   8   8   0   0
  0.5591057E+01  0.3537792E-09  0.3537792E-09  0.3573710E-09  0.2000000E-16
  1.000000000000000E-004
  CAR 
 unknown system                          
     23.63544891    -13.38907567  301     10.07521678      1.00000000
    -13.389  0.0000E+00  0.0000E+00
    -13.266  0.0000E+00  0.0000E+00
    -13.142  0.0000E+00  0.0000E+00
    -13.019  0.0000E+00  0.0000E+00
    -12.895  0.0000E+00  0.0000E+00
    -12.772  0.0000E+00  0.0000E+00
    -12.649  0.0000E+00  0.0000E+00
    -12.525  0.0000E+00  0.0000E+00
    -12.402  0.0000E+00  0.0000E+00
    -12.278  0.0000E+00  0.0000E+00
    -12.155  0.0000E+00  0.0000E+00
    -12.032  0.0000E+00  0.0000E+00
    -11.908  0.0000E+00  0.0000E+00
    -11.785  0.0000E+00  0.0000E+00
    -11.661  0.3433E-01  0.5135E-03
    -11.538  0.1518E+00  0.1492E-01
    -11.414  0.2378E+00  0.3896E-01
    -11.291  0.2690E+00  0.6991E-01
    -11.168  0.3157E+00  0.1060E+00
    -11.044  0.3553E+00  0.1479E+00
    -10.921  0.3840E+00  0.1934E+00
    -10.797  0.4146E+00  0.2426E+00
    -10.674  0.4523E+00  0.2961E+00
    -10.551  0.4750E+00  0.3535E+00
    -10.427  0.4980E+00  0.4136E+00
    -10.304  0.5235E+00  0.4765E+00
    -10.180  0.5514E+00  0.5429E+00
    -10.057  0.5780E+00  0.6126E+00
     -9.933  0.5968E+00  0.6851E+00
     -9.810  0.6164E+00  0.7599E+00
     -9.687  0.6379E+00  0.8373E+00
     -9.563  0.6603E+00  0.9174E+00
     -9.440  0.6841E+00  0.1000E+01
     -9.316  0.7051E+00  0.1086E+01
     -9.193  0.7224E+00  0.1174E+01
     -9.070  0.7397E+00  0.1264E+01
     -8.946  0.7594E+00  0.1357E+01
     -8.823  0.7795E+00  0.1452E+01
     -8.699  0.8006E+00  0.1549E+01
     -8.576  0.8220E+00  0.1650E+01
     -8.452  0.8391E+00  0.1752E+01
     -8.329  0.8563E+00  0.1857E+01
     -8.206  0.8745E+00  0.1963E+01
     -8.082  0.8934E+00  0.2073E+01
     -7.959  0.9127E+00  0.2184E+01
     -7.835  0.9455E+00  0.2298E+01
     -7.712  0.9980E+00  0.2419E+01
     -7.589  0.1033E+01  0.2544E+01
     -7.465  0.1070E+01  0.2674E+01
     -7.342  0.1068E+01  0.2807E+01
     -7.218  0.1041E+01  0.2937E+01
     -7.095  0.1021E+01  0.3064E+01
     -6.971  0.1045E+01  0.3191E+01
     -6.848  0.1054E+01  0.3321E+01
     -6.725  0.1056E+01  0.3451E+01
     -6.601  0.1086E+01  0.3583E+01
     -6.478  0.1148E+01  0.3720E+01
     -6.354  0.1202E+01  0.3865E+01
     -6.231  0.1283E+01  0.4020E+01
     -6.108  0.1312E+01  0.4181E+01
     -5.984  0.1390E+01  0.4346E+01
     -5.861  0.1559E+01  0.4528E+01
     -5.737  0.1548E+01  0.4726E+01
     -5.614  0.1511E+01  0.4915E+01
     -5.491  0.1440E+01  0.5100E+01
     -5.367  0.1398E+01  0.5274E+01
     -5.244  0.1366E+01  0.5446E+01
     -5.120  0.1359E+01  0.5612E+01
     -4.997  0.1377E+01  0.5785E+01
     -4.873  0.1256E+01  0.5948E+01
     -4.750  0.1194E+01  0.6098E+01
     -4.627  0.1181E+01  0.6245E+01
     -4.503  0.1147E+01  0.6388E+01
     -4.380  0.1163E+01  0.6533E+01
     -4.256  0.1085E+01  0.6669E+01
     -4.133  0.9989E+00  0.6800E+01
     -4.010  0.1039E+01  0.6933E+01
     -3.886  0.9899E+00  0.7057E+01
     -3.763  0.9389E+00  0.7176E+01
     -3.639  0.9557E+00  0.7293E+01
     -3.516  0.9513E+00  0.7410E+01
     -3.392  0.1019E+01  0.7528E+01
     -3.269  0.9866E+00  0.7654E+01
     -3.146  0.1056E+01  0.7778E+01
     -3.022  0.9931E+00  0.7906E+01
     -2.899  0.1019E+01  0.8029E+01
     -2.775  0.1082E+01  0.8157E+01
     -2.652  0.1005E+01  0.8286E+01
     -2.529  0.9563E+00  0.8407E+01
     -2.405  0.9810E+00  0.8526E+01
     -2.282  0.1068E+01  0.8652E+01
     -2.158  0.1242E+01  0.8795E+01
     -2.035  0.1414E+01  0.8958E+01
     -1.911  0.1632E+01  0.9146E+01
     -1.788  0.1926E+01  0.9363E+01
     -1.665  0.2483E+01  0.9633E+01
     -1.541  0.2880E+01  0.9969E+01
     -1.418  0.2560E+01  0.1032E+02
     -1.294  0.2078E+01  0.1061E+02
     -1.171  0.1747E+01  0.1084E+02
     -1.048  0.1612E+01  0.1105E+02
     -0.924  0.1512E+01  0.1124E+02
     -0.801  0.1433E+01  0.1142E+02
     -0.677  0.1372E+01  0.1159E+02
     -0.554  0.1342E+01  0.1176E+02
     -0.430  0.1311E+01  0.1192E+02
     -0.307  0.1282E+01  0.1208E+02
     -0.184  0.1229E+01  0.1224E+02
     -0.060  0.1224E+01  0.1239E+02
      0.063  0.1105E+01  0.1253E+02
      0.187  0.1094E+01  0.1267E+02
      0.310  0.1092E+01  0.1280E+02
      0.433  0.1060E+01  0.1294E+02
      0.557  0.9951E+00  0.1306E+02
      0.680  0.1303E+01  0.1320E+02
      0.804  0.1585E+01  0.1338E+02
      0.927  0.1807E+01  0.1359E+02
      1.050  0.2174E+01  0.1383E+02
      1.174  0.2278E+01  0.1412E+02
      1.297  0.2136E+01  0.1438E+02
      1.421  0.2119E+01  0.1464E+02
      1.544  0.2196E+01  0.1491E+02
      1.668  0.2171E+01  0.1518E+02
      1.791  0.1922E+01  0.1544E+02
      1.914  0.1443E+01  0.1565E+02
      2.038  0.1468E+01  0.1582E+02
      2.161  0.1784E+01  0.1602E+02
      2.285  0.2076E+01  0.1626E+02
      2.408  0.2258E+01  0.1653E+02
      2.531  0.2282E+01  0.1681E+02
      2.655  0.2321E+01  0.1710E+02
      2.778  0.2304E+01  0.1738E+02
      2.902  0.2327E+01  0.1767E+02
      3.025  0.2568E+01  0.1796E+02
      3.149  0.2933E+01  0.1830E+02
      3.272  0.3080E+01  0.1868E+02
      3.395  0.2673E+01  0.1903E+02
      3.519  0.2387E+01  0.1934E+02
      3.642  0.2705E+01  0.1965E+02
      3.766  0.2752E+01  0.1998E+02
      3.889  0.2823E+01  0.2033E+02
      4.012  0.3393E+01  0.2070E+02
      4.136  0.3833E+01  0.2115E+02
      4.259  0.3455E+01  0.2162E+02
      4.383  0.3094E+01  0.2202E+02
      4.506  0.2629E+01  0.2237E+02
      4.630  0.2573E+01  0.2269E+02
      4.753  0.2837E+01  0.2302E+02
      4.876  0.2715E+01  0.2337E+02
      5.000  0.2736E+01  0.2371E+02
      5.123  0.2960E+01  0.2406E+02
      5.247  0.2923E+01  0.2442E+02
      5.370  0.2947E+01  0.2479E+02
      5.493  0.3004E+01  0.2515E+02
      5.617  0.3035E+01  0.2553E+02
      5.740  0.2691E+01  0.2588E+02
      5.864  0.2426E+01  0.2620E+02
      5.987  0.2317E+01  0.2649E+02
      6.111  0.2334E+01  0.2677E+02
      6.234  0.2579E+01  0.2707E+02
      6.357  0.2714E+01  0.2741E+02
      6.481  0.2719E+01  0.2775E+02
      6.604  0.2699E+01  0.2808E+02
      6.728  0.2565E+01  0.2841E+02
      6.851  0.2441E+01  0.2871E+02
      6.974  0.2307E+01  0.2901E+02
      7.098  0.2877E+01  0.2931E+02
      7.221  0.2166E+01  0.2964E+02
      7.345  0.1760E+01  0.2988E+02
      7.468  0.1611E+01  0.3009E+02
      7.591  0.1458E+01  0.3028E+02
      7.715  0.1364E+01  0.3045E+02
      7.838  0.1287E+01  0.3061E+02
      7.962  0.1208E+01  0.3077E+02
      8.085  0.1119E+01  0.3091E+02
      8.209  0.1002E+01  0.3104E+02
      8.332  0.9217E+00  0.3116E+02
      8.455  0.8643E+00  0.3127E+02
      8.579  0.8199E+00  0.3138E+02
      8.702  0.7554E+00  0.3147E+02
      8.826  0.6843E+00  0.3156E+02
      8.949  0.6035E+00  0.3164E+02
      9.072  0.5503E+00  0.3171E+02
      9.196  0.5187E+00  0.3178E+02
      9.319  0.4227E+00  0.3184E+02
      9.443  0.3459E+00  0.3188E+02
      9.566  0.3496E+00  0.3193E+02
      9.690  0.2448E+00  0.3196E+02
      9.813  0.1287E+00  0.3199E+02
      9.936  0.3891E-01  0.3200E+02
     10.060  0.0000E+00  0.3200E+02
     10.183  0.0000E+00  0.3200E+02
     10.307  0.0000E+00  0.3200E+02
     10.430  0.0000E+00  0.3200E+02
     10.553  0.0000E+00  0.3200E+02
     10.677  0.0000E+00  0.3200E+02
     10.800  0.0000E+00  0.3200E+02
     10.924  0.0000E+00  0.3200E+02
     11.047  0.0000E+00  0.3200E+02
     11.171  0.0000E+00  0.3200E+02
     11.294  0.0000E+00  0.3200E+02
     11.417  0.0000E+00  0.3200E+02
     11.541  0.0000E+00  0.3200E+02
     11.664  0.0000E+00  0.3200E+02
     11.788  0.0000E+00  0.3200E+02
     11.911  0.0000E+00  0.3200E+02
     12.034  0.0000E+00  0.3200E+02
     12.158  0.0000E+00  0.3200E+02
     12.281  0.0000E+00  0.3200E+02
     12.405  0.0000E+00  0.3200E+02
     12.528  0.0000E+00  0.3200E+02
     12.652  0.0000E+00  0.3200E+02
     12.775  0.0000E+00  0.3200E+02
     12.898  0.0000E+00  0.3200E+02
     13.022  0.0000E+00  0.3200E+02
     13.145  0.0000E+00  0.3200E+02
     13.269  0.0000E+00  0.3200E+02
     13.392  0.0000E+00  0.3200E+02
     13.515  0.0000E+00  0.3200E+02
     13.639  0.0000E+00  0.3200E+02
     13.762  0.0000E+00  0.3200E+02
     13.886  0.0000E+00  0.3200E+02
     14.009  0.0000E+00  0.3200E+02
     14.132  0.3044E-01  0.3200E+02
     14.256  0.1335E+00  0.3201E+02
     14.379  0.3036E+00  0.3204E+02
     14.503  0.4551E+00  0.3208E+02
     14.626  0.6210E+00  0.3215E+02
     14.750  0.6192E+00  0.3222E+02
     14.873  0.7659E+00  0.3231E+02
     14.996  0.8609E+00  0.3241E+02
     15.120  0.1320E+01  0.3253E+02
     15.243  0.1296E+01  0.3269E+02
     15.367  0.1583E+01  0.3286E+02
     15.490  0.1448E+01  0.3304E+02
     15.613  0.1515E+01  0.3322E+02
     15.737  0.1553E+01  0.3341E+02
     15.860  0.1646E+01  0.3360E+02
     15.984  0.1780E+01  0.3381E+02
     16.107  0.1896E+01  0.3404E+02
     16.231  0.2091E+01  0.3429E+02
     16.354  0.2185E+01  0.3456E+02
     16.477  0.2106E+01  0.3482E+02
     16.601  0.2067E+01  0.3508E+02
     16.724  0.2114E+01  0.3534E+02
     16.848  0.2172E+01  0.3560E+02
     16.971  0.2306E+01  0.3588E+02
     17.094  0.2454E+01  0.3617E+02
     17.218  0.2614E+01  0.3648E+02
     17.341  0.2715E+01  0.3681E+02
     17.465  0.2792E+01  0.3715E+02
     17.588  0.2899E+01  0.3750E+02
     17.712  0.3115E+01  0.3787E+02
     17.835  0.3375E+01  0.3827E+02
     17.958  0.3696E+01  0.3870E+02
     18.082  0.4176E+01  0.3919E+02
     18.205  0.4502E+01  0.3973E+02
     18.329  0.4533E+01  0.4030E+02
     18.452  0.3145E+01  0.4079E+02
     18.575  0.2917E+01  0.4113E+02
     18.699  0.3414E+01  0.4154E+02
     18.822  0.3494E+01  0.4196E+02
     18.946  0.3686E+01  0.4240E+02
     19.069  0.3862E+01  0.4287E+02
     19.193  0.3657E+01  0.4333E+02
     19.316  0.3327E+01  0.4377E+02
     19.439  0.3057E+01  0.4416E+02
     19.563  0.2769E+01  0.4452E+02
     19.686  0.2606E+01  0.4485E+02
     19.810  0.2637E+01  0.4517E+02
     19.933  0.2668E+01  0.4550E+02
     20.056  0.2795E+01  0.4584E+02
     20.180  0.2791E+01  0.4618E+02
     20.303  0.2713E+01  0.4652E+02
     20.427  0.2687E+01  0.4686E+02
     20.550  0.2376E+01  0.4717E+02
     20.673  0.1892E+01  0.4744E+02
     20.797  0.1459E+01  0.4764E+02
     20.920  0.8920E+00  0.4779E+02
     21.044  0.5166E+00  0.4787E+02
     21.167  0.3037E+00  0.4792E+02
     21.291  0.1946E+00  0.4795E+02
     21.414  0.1408E+00  0.4797E+02
     21.537  0.9049E-01  0.4799E+02
     21.661  0.4585E-01  0.4800E+02
     21.784  0.1475E-01  0.4800E+02
     21.908  0.2102E-02  0.4800E+02
     22.031  0.0000E+00  0.4800E+02
     22.154  0.0000E+00  0.4800E+02
     22.278  0.0000E+00  0.4800E+02
     22.401  0.0000E+00  0.4800E+02
     22.525  0.0000E+00  0.4800E+02
     22.648  0.0000E+00  0.4800E+02
     22.772  0.0000E+00  0.4800E+02
     22.895  0.0000E+00  0.4800E+02
     23.018  0.0000E+00  0.4800E+02
     23.142  0.0000E+00  0.4800E+02
     23.265  0.0000E+00  0.4800E+02
     23.389  0.0000E+00  0.4800E+02
     23.512  0.0000E+00  0.4800E+02
     23.635  0.0000E+00  0.4800E+02
