       N       E                     dE             d eps       ncg     rms          rms(c)
DAV:   1     0.579988312125E+02    0.57999E+02   -0.14390E+04  9408   0.106E+03
DAV:   2    -0.711789034363E+02   -0.12918E+03   -0.12254E+03 12968   0.223E+02
DAV:   3    -0.753226387822E+02   -0.41437E+01   -0.41239E+01 12224   0.370E+01
DAV:   4    -0.753622538035E+02   -0.39615E-01   -0.39571E-01 11888   0.401E+00
DAV:   5    -0.753630302418E+02   -0.77644E-03   -0.77608E-03 12176   0.502E-01    0.967E+00
DAV:   6    -0.733789712550E+02    0.19841E+01   -0.13087E+00 10888   0.654E+00    0.529E+00
DAV:   7    -0.727091289080E+02    0.66984E+00   -0.14710E+00 10960   0.713E+00    0.700E-01
DAV:   8    -0.727167456184E+02   -0.76167E-02   -0.28588E-02 11872   0.986E-01    0.813E-02
DAV:   9    -0.727169531211E+02   -0.20750E-03   -0.42626E-04 11472   0.140E-01    0.284E-02
DAV:  10    -0.727170064322E+02   -0.53311E-04   -0.45276E-05 11840   0.514E-02    0.265E-03
DAV:  11    -0.727170070560E+02   -0.62384E-06   -0.10200E-06  8640   0.711E-03
   1 F= -.72717007E+02 E0= -.72717007E+02  d E =0.000000E+00
