 vasp.5.4.4.18Apr17-6-g9f103f2a35 (build Mar 12 2022 03:36:41) complex          
  
 executed on IFC19.0.3.199_CrayMP date 2022.11.30  12:19:53
 running on   16 total cores
 distrk:  each k-point on   16 cores,    1 groups
 distr:  one band on NCORES_PER_BAND=   4 cores,    4 groups


--------------------------------------------------------------------------------------------------------


 INCAR:
 POTCAR:   PAW_PBE C 08Apr2002                    
 POTCAR:   PAW_PBE C 08Apr2002                    
   VRHFIN =C: s2p2                                                              
   LEXCH  = PE                                                                  
   EATOM  =   147.1560 eV,   10.8157 Ry                                         
                                                                                
   TITEL  = PAW_PBE C 08Apr2002                                                 
   LULTRA =        F    use ultrasoft PP ?                                      
   IUNSCR =        0    unscreen: 0-lin 1-nonlin 2-no                           
   RPACOR =     .000    partial core radius                                     
   POMASS =   12.011; ZVAL   =    4.000    mass and valenz                      
   RCORE  =    1.500    outmost cutoff radius                                   
   RWIGS  =    1.630; RWIGS  =     .863    wigner-seitz radius (au A)           
   ENMAX  =  400.000; ENMIN  =  300.000 eV                                      
   ICORE  =        2    local potential                                         
   LCOR   =        T    correct aug charges                                     
   LPAW   =        T    paw PP                                                  
   EAUG   =  644.873                                                            
   DEXC   =     .000                                                            
   RMAX   =    2.266    core radius for proj-oper                               
   RAUG   =    1.300    factor for augmentation sphere                          
   RDEP   =    1.501    radius for radial grids                                 
   RDEPT  =    1.300    core radius for aug-charge                              
   QCUT   =   -5.516; QGAM   =   11.032    optimization parameters              
                                                                                
   Description                                                                  
     l     E      TYP  RCUT    TYP  RCUT                                        
     0   .000     23  1.200                                                     
     0   .000     23  1.200                                                     
     1   .000     23  1.500                                                     
     1  2.500     23  1.500                                                     
     2   .000      7  1.500                                                     
  local pseudopotential read in
  atomic valenz-charges read in
  non local Contribution for L=           0  read in
    real space projection operators read in
  non local Contribution for L=           0  read in
    real space projection operators read in
  non local Contribution for L=           1  read in
    real space projection operators read in
  non local Contribution for L=           1  read in
    real space projection operators read in
    PAW grid and wavefunctions read in
 
   number of l-projection  operators is LMAX  =           4
   number of lm-projection operators is LMMAX =           8
 
 PAW_PBE C 08Apr2002                    :
 energy of atom  1       EATOM= -147.1560
 kinetic energy error for atom=    0.0288 (will be added to EATOM!!)
 
 
 POSCAR: C8                                      
  positions in direct lattice
  No initial velocities read in
 exchange correlation table for  LEXCH =        8
   RHO(1)=    0.500       N(1)  =     2000
   RHO(2)=  100.500       N(2)  =     4000
 


--------------------------------------------------------------------------------------------------------


 ion  position               nearest neighbor table
   1  0.250  0.750  0.250-   2 1.54   4 1.54   6 1.54   8 1.54
   2  0.000  0.000  0.500-   1 1.54   3 1.54   5 1.54   7 1.54
   3  0.250  0.250  0.750-   2 1.54   4 1.54   6 1.54   8 1.54
   4  0.000  0.500  0.000-   1 1.54   3 1.54   5 1.54   7 1.54
   5  0.750  0.750  0.750-   2 1.54   4 1.54   6 1.54   8 1.54
   6  0.500  0.000  0.000-   1 1.54   3 1.54   5 1.54   7 1.54
   7  0.750  0.250  0.250-   2 1.54   4 1.54   6 1.54   8 1.54
   8  0.500  0.500  0.500-   1 1.54   3 1.54   5 1.54   7 1.54
 
  LATTYP: Found a simple tetragonal cell.
 ALAT       =     3.5377920000
 C/A-ratio  =     1.0101526602
  
  Lattice vectors:
  
 A1 = (   3.5377920000,   0.0000000000,   0.0000000000)
 A2 = (   0.0000000000,   3.5377920000,   0.0000000000)
 A3 = (   0.0000000000,   0.0000000000,   3.5737100000)


Analysis of symmetry for initial positions (statically):
=====================================================================
 Subroutine PRICEL returns following result:
 
  LATTYP: Found a body centered tetragonal cell.
 ALAT       =     2.5015967136
 C/A-ratio  =     1.4285715921
  
  Lattice vectors:
  
 A1 = (   0.0000000000,  -1.7688960000,   1.7868550000)
 A2 = (   0.0000000000,   1.7688960000,   1.7868550000)
 A3 = (  -1.7688960000,   0.0000000000,  -1.7868550000)
 
   4 primitive cells build up your supercell.
 

 Routine SETGRP: Setting up the symmetry group for a 
 simple tetragonal supercell.


 Subroutine GETGRP returns: Found 16 space group operations
 (whereof  8 operations were pure point group operations)
 out of a pool of 16 trial point group operations.


The static configuration has the point symmetry D_2d.
 The point group associated with its full space group is D_4h.


Analysis of symmetry for dynamics (positions and initial velocities):
=====================================================================
 Subroutine PRICEL returns following result:
 
  LATTYP: Found a body centered tetragonal cell.
 ALAT       =     2.5015967136
 C/A-ratio  =     1.4285715921
  
  Lattice vectors:
  
 A1 = (   0.0000000000,  -1.7688960000,   1.7868550000)
 A2 = (   0.0000000000,   1.7688960000,   1.7868550000)
 A3 = (  -1.7688960000,   0.0000000000,  -1.7868550000)
 
   4 primitive cells build up your supercell.
 

 Routine SETGRP: Setting up the symmetry group for a 
 simple tetragonal supercell.


 Subroutine GETGRP returns: Found 16 space group operations
 (whereof  8 operations were pure point group operations)
 out of a pool of 16 trial point group operations.


The dynamic configuration has the point symmetry D_2d.
 The point group associated with its full space group is D_4h.


 Subroutine INISYM returns: Found 16 space group operations
 (whereof  8 operations are pure point group operations),
 and found     4 'primitive' translations

 
 
 KPOINTS: kpt_density=1000                        

Automatic generation of k-mesh.
Space group operators:
 irot       det(A)        alpha          n_x          n_y          n_z        tau_x        tau_y        tau_z
    1     1.000000     0.000000     1.000000     0.000000     0.000000     0.000000     0.000000     0.000000
    2    -1.000000    90.000000     0.000000     0.000000    -1.000000     0.000000     0.000000     0.000000
    3     1.000000   180.000000     0.000000     0.000000     1.000000     0.000000     0.000000     0.000000
    4    -1.000000    90.000000     0.000000     0.000000     1.000000     0.000000     0.000000     0.000000
    5     1.000000   180.000000     0.000000     1.000000     0.000000     0.000000     0.000000     0.000000
    6    -1.000000   180.000000     0.707107     0.707107     0.000000     0.000000     0.000000     0.000000
    7     1.000000   180.000000     1.000000     0.000000     0.000000     0.000000     0.000000     0.000000
    8    -1.000000   180.000000     0.707107    -0.707107     0.000000     0.000000     0.000000     0.000000
    9    -1.000000     0.000000     1.000000     0.000000     0.000000    -0.250000    -0.250000     0.250000
   10     1.000000    90.000000     0.000000     0.000000    -1.000000    -0.250000    -0.250000     0.250000
   11    -1.000000   180.000000     0.000000     0.000000     1.000000    -0.250000    -0.250000     0.250000
   12     1.000000    90.000000     0.000000     0.000000     1.000000    -0.250000    -0.250000     0.250000
   13    -1.000000   180.000000     0.000000     1.000000     0.000000    -0.250000    -0.250000     0.250000
   14     1.000000   180.000000     0.707107     0.707107     0.000000    -0.250000    -0.250000     0.250000
   15    -1.000000   180.000000     1.000000     0.000000     0.000000    -0.250000    -0.250000     0.250000
   16     1.000000   180.000000     0.707107    -0.707107     0.000000    -0.250000    -0.250000     0.250000
 
 Subroutine IBZKPT returns following result:
 ===========================================
 
 Found    196 irreducible k-points:
 
 Following reciprocal coordinates:
            Coordinates               Weight
  0.000000  0.000000  0.000000      1.000000
  0.083333  0.000000  0.000000      4.000000
  0.166667  0.000000  0.000000      4.000000
  0.250000  0.000000  0.000000      4.000000
  0.333333  0.000000  0.000000      4.000000
  0.416667  0.000000  0.000000      4.000000
  0.500000  0.000000  0.000000      2.000000
  0.083333  0.083333  0.000000      4.000000
  0.166667  0.083333  0.000000      8.000000
  0.250000  0.083333  0.000000      8.000000
  0.333333  0.083333  0.000000      8.000000
  0.416667  0.083333  0.000000      8.000000
  0.500000  0.083333  0.000000      4.000000
  0.166667  0.166667  0.000000      4.000000
  0.250000  0.166667  0.000000      8.000000
  0.333333  0.166667  0.000000      8.000000
  0.416667  0.166667  0.000000      8.000000
  0.500000  0.166667  0.000000      4.000000
  0.250000  0.250000  0.000000      4.000000
  0.333333  0.250000  0.000000      8.000000
  0.416667  0.250000  0.000000      8.000000
  0.500000  0.250000  0.000000      4.000000
  0.333333  0.333333  0.000000      4.000000
  0.416667  0.333333  0.000000      8.000000
  0.500000  0.333333  0.000000      4.000000
  0.416667  0.416667  0.000000      4.000000
  0.500000  0.416667  0.000000      4.000000
  0.500000  0.500000  0.000000      1.000000
  0.000000  0.000000  0.083333      2.000000
  0.083333  0.000000  0.083333      8.000000
  0.166667  0.000000  0.083333      8.000000
  0.250000  0.000000  0.083333      8.000000
  0.333333  0.000000  0.083333      8.000000
  0.416667  0.000000  0.083333      8.000000
  0.500000  0.000000  0.083333      4.000000
  0.083333  0.083333  0.083333      8.000000
  0.166667  0.083333  0.083333     16.000000
  0.250000  0.083333  0.083333     16.000000
  0.333333  0.083333  0.083333     16.000000
  0.416667  0.083333  0.083333     16.000000
  0.500000  0.083333  0.083333      8.000000
  0.166667  0.166667  0.083333      8.000000
  0.250000  0.166667  0.083333     16.000000
  0.333333  0.166667  0.083333     16.000000
  0.416667  0.166667  0.083333     16.000000
  0.500000  0.166667  0.083333      8.000000
  0.250000  0.250000  0.083333      8.000000
  0.333333  0.250000  0.083333     16.000000
  0.416667  0.250000  0.083333     16.000000
  0.500000  0.250000  0.083333      8.000000
  0.333333  0.333333  0.083333      8.000000
  0.416667  0.333333  0.083333     16.000000
  0.500000  0.333333  0.083333      8.000000
  0.416667  0.416667  0.083333      8.000000
  0.500000  0.416667  0.083333      8.000000
  0.500000  0.500000  0.083333      2.000000
  0.000000  0.000000  0.166667      2.000000
  0.083333  0.000000  0.166667      8.000000
  0.166667  0.000000  0.166667      8.000000
  0.250000  0.000000  0.166667      8.000000
  0.333333  0.000000  0.166667      8.000000
  0.416667  0.000000  0.166667      8.000000
  0.500000  0.000000  0.166667      4.000000
  0.083333  0.083333  0.166667      8.000000
  0.166667  0.083333  0.166667     16.000000
  0.250000  0.083333  0.166667     16.000000
  0.333333  0.083333  0.166667     16.000000
  0.416667  0.083333  0.166667     16.000000
  0.500000  0.083333  0.166667      8.000000
  0.166667  0.166667  0.166667      8.000000
  0.250000  0.166667  0.166667     16.000000
  0.333333  0.166667  0.166667     16.000000
  0.416667  0.166667  0.166667     16.000000
  0.500000  0.166667  0.166667      8.000000
  0.250000  0.250000  0.166667      8.000000
  0.333333  0.250000  0.166667     16.000000
  0.416667  0.250000  0.166667     16.000000
  0.500000  0.250000  0.166667      8.000000
  0.333333  0.333333  0.166667      8.000000
  0.416667  0.333333  0.166667     16.000000
  0.500000  0.333333  0.166667      8.000000
  0.416667  0.416667  0.166667      8.000000
  0.500000  0.416667  0.166667      8.000000
  0.500000  0.500000  0.166667      2.000000
  0.000000  0.000000  0.250000      2.000000
  0.083333  0.000000  0.250000      8.000000
  0.166667  0.000000  0.250000      8.000000
  0.250000  0.000000  0.250000      8.000000
  0.333333  0.000000  0.250000      8.000000
  0.416667  0.000000  0.250000      8.000000
  0.500000  0.000000  0.250000      4.000000
  0.083333  0.083333  0.250000      8.000000
  0.166667  0.083333  0.250000     16.000000
  0.250000  0.083333  0.250000     16.000000
  0.333333  0.083333  0.250000     16.000000
  0.416667  0.083333  0.250000     16.000000
  0.500000  0.083333  0.250000      8.000000
  0.166667  0.166667  0.250000      8.000000
  0.250000  0.166667  0.250000     16.000000
  0.333333  0.166667  0.250000     16.000000
  0.416667  0.166667  0.250000     16.000000
  0.500000  0.166667  0.250000      8.000000
  0.250000  0.250000  0.250000      8.000000
  0.333333  0.250000  0.250000     16.000000
  0.416667  0.250000  0.250000     16.000000
  0.500000  0.250000  0.250000      8.000000
  0.333333  0.333333  0.250000      8.000000
  0.416667  0.333333  0.250000     16.000000
  0.500000  0.333333  0.250000      8.000000
  0.416667  0.416667  0.250000      8.000000
  0.500000  0.416667  0.250000      8.000000
  0.500000  0.500000  0.250000      2.000000
  0.000000  0.000000  0.333333      2.000000
  0.083333  0.000000  0.333333      8.000000
  0.166667  0.000000  0.333333      8.000000
  0.250000  0.000000  0.333333      8.000000
  0.333333  0.000000  0.333333      8.000000
  0.416667  0.000000  0.333333      8.000000
  0.500000  0.000000  0.333333      4.000000
  0.083333  0.083333  0.333333      8.000000
  0.166667  0.083333  0.333333     16.000000
  0.250000  0.083333  0.333333     16.000000
  0.333333  0.083333  0.333333     16.000000
  0.416667  0.083333  0.333333     16.000000
  0.500000  0.083333  0.333333      8.000000
  0.166667  0.166667  0.333333      8.000000
  0.250000  0.166667  0.333333     16.000000
  0.333333  0.166667  0.333333     16.000000
  0.416667  0.166667  0.333333     16.000000
  0.500000  0.166667  0.333333      8.000000
  0.250000  0.250000  0.333333      8.000000
  0.333333  0.250000  0.333333     16.000000
  0.416667  0.250000  0.333333     16.000000
  0.500000  0.250000  0.333333      8.000000
  0.333333  0.333333  0.333333      8.000000
  0.416667  0.333333  0.333333     16.000000
  0.500000  0.333333  0.333333      8.000000
  0.416667  0.416667  0.333333      8.000000
  0.500000  0.416667  0.333333      8.000000
  0.500000  0.500000  0.333333      2.000000
  0.000000  0.000000  0.416667      2.000000
  0.083333  0.000000  0.416667      8.000000
  0.166667  0.000000  0.416667      8.000000
  0.250000  0.000000  0.416667      8.000000
  0.333333  0.000000  0.416667      8.000000
  0.416667  0.000000  0.416667      8.000000
  0.500000  0.000000  0.416667      4.000000
  0.083333  0.083333  0.416667      8.000000
  0.166667  0.083333  0.416667     16.000000
  0.250000  0.083333  0.416667     16.000000
  0.333333  0.083333  0.416667     16.000000
  0.416667  0.083333  0.416667     16.000000
  0.500000  0.083333  0.416667      8.000000
  0.166667  0.166667  0.416667      8.000000
  0.250000  0.166667  0.416667     16.000000
  0.333333  0.166667  0.416667     16.000000
  0.416667  0.166667  0.416667     16.000000
  0.500000  0.166667  0.416667      8.000000
  0.250000  0.250000  0.416667      8.000000
  0.333333  0.250000  0.416667     16.000000
  0.416667  0.250000  0.416667     16.000000
  0.500000  0.250000  0.416667      8.000000
  0.333333  0.333333  0.416667      8.000000
  0.416667  0.333333  0.416667     16.000000
  0.500000  0.333333  0.416667      8.000000
  0.416667  0.416667  0.416667      8.000000
  0.500000  0.416667  0.416667      8.000000
  0.500000  0.500000  0.416667      2.000000
  0.000000  0.000000  0.500000      1.000000
  0.083333  0.000000  0.500000      4.000000
  0.166667  0.000000  0.500000      4.000000
  0.250000  0.000000  0.500000      4.000000
  0.333333  0.000000  0.500000      4.000000
  0.416667  0.000000  0.500000      4.000000
  0.500000  0.000000  0.500000      2.000000
  0.083333  0.083333  0.500000      4.000000
  0.166667  0.083333  0.500000      8.000000
  0.250000  0.083333  0.500000      8.000000
  0.333333  0.083333  0.500000      8.000000
  0.416667  0.083333  0.500000      8.000000
  0.500000  0.083333  0.500000      4.000000
  0.166667  0.166667  0.500000      4.000000
  0.250000  0.166667  0.500000      8.000000
  0.333333  0.166667  0.500000      8.000000
  0.416667  0.166667  0.500000      8.000000
  0.500000  0.166667  0.500000      4.000000
  0.250000  0.250000  0.500000      4.000000
  0.333333  0.250000  0.500000      8.000000
  0.416667  0.250000  0.500000      8.000000
  0.500000  0.250000  0.500000      4.000000
  0.333333  0.333333  0.500000      4.000000
  0.416667  0.333333  0.500000      8.000000
  0.500000  0.333333  0.500000      4.000000
  0.416667  0.416667  0.500000      4.000000
  0.500000  0.416667  0.500000      4.000000
  0.500000  0.500000  0.500000      1.000000
 
 Following cartesian coordinates:
            Coordinates               Weight
  0.000000  0.000000  0.000000      1.000000
  0.023555  0.000000  0.000000      4.000000
  0.047110  0.000000  0.000000      4.000000
  0.070666  0.000000  0.000000      4.000000
  0.094221  0.000000  0.000000      4.000000
  0.117776  0.000000  0.000000      4.000000
  0.141331  0.000000  0.000000      2.000000
  0.023555  0.023555  0.000000      4.000000
  0.047110  0.023555  0.000000      8.000000
  0.070666  0.023555  0.000000      8.000000
  0.094221  0.023555  0.000000      8.000000
  0.117776  0.023555  0.000000      8.000000
  0.141331  0.023555  0.000000      4.000000
  0.047110  0.047110  0.000000      4.000000
  0.070666  0.047110  0.000000      8.000000
  0.094221  0.047110  0.000000      8.000000
  0.117776  0.047110  0.000000      8.000000
  0.141331  0.047110  0.000000      4.000000
  0.070666  0.070666  0.000000      4.000000
  0.094221  0.070666  0.000000      8.000000
  0.117776  0.070666  0.000000      8.000000
  0.141331  0.070666  0.000000      4.000000
  0.094221  0.094221  0.000000      4.000000
  0.117776  0.094221  0.000000      8.000000
  0.141331  0.094221  0.000000      4.000000
  0.117776  0.117776  0.000000      4.000000
  0.141331  0.117776  0.000000      4.000000
  0.141331  0.141331  0.000000      1.000000
  0.000000  0.000000  0.023318      2.000000
  0.023555  0.000000  0.023318      8.000000
  0.047110  0.000000  0.023318      8.000000
  0.070666  0.000000  0.023318      8.000000
  0.094221  0.000000  0.023318      8.000000
  0.117776  0.000000  0.023318      8.000000
  0.141331  0.000000  0.023318      4.000000
  0.023555  0.023555  0.023318      8.000000
  0.047110  0.023555  0.023318     16.000000
  0.070666  0.023555  0.023318     16.000000
  0.094221  0.023555  0.023318     16.000000
  0.117776  0.023555  0.023318     16.000000
  0.141331  0.023555  0.023318      8.000000
  0.047110  0.047110  0.023318      8.000000
  0.070666  0.047110  0.023318     16.000000
  0.094221  0.047110  0.023318     16.000000
  0.117776  0.047110  0.023318     16.000000
  0.141331  0.047110  0.023318      8.000000
  0.070666  0.070666  0.023318      8.000000
  0.094221  0.070666  0.023318     16.000000
  0.117776  0.070666  0.023318     16.000000
  0.141331  0.070666  0.023318      8.000000
  0.094221  0.094221  0.023318      8.000000
  0.117776  0.094221  0.023318     16.000000
  0.141331  0.094221  0.023318      8.000000
  0.117776  0.117776  0.023318      8.000000
  0.141331  0.117776  0.023318      8.000000
  0.141331  0.141331  0.023318      2.000000
  0.000000  0.000000  0.046637      2.000000
  0.023555  0.000000  0.046637      8.000000
  0.047110  0.000000  0.046637      8.000000
  0.070666  0.000000  0.046637      8.000000
  0.094221  0.000000  0.046637      8.000000
  0.117776  0.000000  0.046637      8.000000
  0.141331  0.000000  0.046637      4.000000
  0.023555  0.023555  0.046637      8.000000
  0.047110  0.023555  0.046637     16.000000
  0.070666  0.023555  0.046637     16.000000
  0.094221  0.023555  0.046637     16.000000
  0.117776  0.023555  0.046637     16.000000
  0.141331  0.023555  0.046637      8.000000
  0.047110  0.047110  0.046637      8.000000
  0.070666  0.047110  0.046637     16.000000
  0.094221  0.047110  0.046637     16.000000
  0.117776  0.047110  0.046637     16.000000
  0.141331  0.047110  0.046637      8.000000
  0.070666  0.070666  0.046637      8.000000
  0.094221  0.070666  0.046637     16.000000
  0.117776  0.070666  0.046637     16.000000
  0.141331  0.070666  0.046637      8.000000
  0.094221  0.094221  0.046637      8.000000
  0.117776  0.094221  0.046637     16.000000
  0.141331  0.094221  0.046637      8.000000
  0.117776  0.117776  0.046637      8.000000
  0.141331  0.117776  0.046637      8.000000
  0.141331  0.141331  0.046637      2.000000
  0.000000  0.000000  0.069955      2.000000
  0.023555  0.000000  0.069955      8.000000
  0.047110  0.000000  0.069955      8.000000
  0.070666  0.000000  0.069955      8.000000
  0.094221  0.000000  0.069955      8.000000
  0.117776  0.000000  0.069955      8.000000
  0.141331  0.000000  0.069955      4.000000
  0.023555  0.023555  0.069955      8.000000
  0.047110  0.023555  0.069955     16.000000
  0.070666  0.023555  0.069955     16.000000
  0.094221  0.023555  0.069955     16.000000
  0.117776  0.023555  0.069955     16.000000
  0.141331  0.023555  0.069955      8.000000
  0.047110  0.047110  0.069955      8.000000
  0.070666  0.047110  0.069955     16.000000
  0.094221  0.047110  0.069955     16.000000
  0.117776  0.047110  0.069955     16.000000
  0.141331  0.047110  0.069955      8.000000
  0.070666  0.070666  0.069955      8.000000
  0.094221  0.070666  0.069955     16.000000
  0.117776  0.070666  0.069955     16.000000
  0.141331  0.070666  0.069955      8.000000
  0.094221  0.094221  0.069955      8.000000
  0.117776  0.094221  0.069955     16.000000
  0.141331  0.094221  0.069955      8.000000
  0.117776  0.117776  0.069955      8.000000
  0.141331  0.117776  0.069955      8.000000
  0.141331  0.141331  0.069955      2.000000
  0.000000  0.000000  0.093274      2.000000
  0.023555  0.000000  0.093274      8.000000
  0.047110  0.000000  0.093274      8.000000
  0.070666  0.000000  0.093274      8.000000
  0.094221  0.000000  0.093274      8.000000
  0.117776  0.000000  0.093274      8.000000
  0.141331  0.000000  0.093274      4.000000
  0.023555  0.023555  0.093274      8.000000
  0.047110  0.023555  0.093274     16.000000
  0.070666  0.023555  0.093274     16.000000
  0.094221  0.023555  0.093274     16.000000
  0.117776  0.023555  0.093274     16.000000
  0.141331  0.023555  0.093274      8.000000
  0.047110  0.047110  0.093274      8.000000
  0.070666  0.047110  0.093274     16.000000
  0.094221  0.047110  0.093274     16.000000
  0.117776  0.047110  0.093274     16.000000
  0.141331  0.047110  0.093274      8.000000
  0.070666  0.070666  0.093274      8.000000
  0.094221  0.070666  0.093274     16.000000
  0.117776  0.070666  0.093274     16.000000
  0.141331  0.070666  0.093274      8.000000
  0.094221  0.094221  0.093274      8.000000
  0.117776  0.094221  0.093274     16.000000
  0.141331  0.094221  0.093274      8.000000
  0.117776  0.117776  0.093274      8.000000
  0.141331  0.117776  0.093274      8.000000
  0.141331  0.141331  0.093274      2.000000
  0.000000  0.000000  0.116592      2.000000
  0.023555  0.000000  0.116592      8.000000
  0.047110  0.000000  0.116592      8.000000
  0.070666  0.000000  0.116592      8.000000
  0.094221  0.000000  0.116592      8.000000
  0.117776  0.000000  0.116592      8.000000
  0.141331  0.000000  0.116592      4.000000
  0.023555  0.023555  0.116592      8.000000
  0.047110  0.023555  0.116592     16.000000
  0.070666  0.023555  0.116592     16.000000
  0.094221  0.023555  0.116592     16.000000
  0.117776  0.023555  0.116592     16.000000
  0.141331  0.023555  0.116592      8.000000
  0.047110  0.047110  0.116592      8.000000
  0.070666  0.047110  0.116592     16.000000
  0.094221  0.047110  0.116592     16.000000
  0.117776  0.047110  0.116592     16.000000
  0.141331  0.047110  0.116592      8.000000
  0.070666  0.070666  0.116592      8.000000
  0.094221  0.070666  0.116592     16.000000
  0.117776  0.070666  0.116592     16.000000
  0.141331  0.070666  0.116592      8.000000
  0.094221  0.094221  0.116592      8.000000
  0.117776  0.094221  0.116592     16.000000
  0.141331  0.094221  0.116592      8.000000
  0.117776  0.117776  0.116592      8.000000
  0.141331  0.117776  0.116592      8.000000
  0.141331  0.141331  0.116592      2.000000
  0.000000  0.000000  0.139911      1.000000
  0.023555  0.000000  0.139911      4.000000
  0.047110  0.000000  0.139911      4.000000
  0.070666  0.000000  0.139911      4.000000
  0.094221  0.000000  0.139911      4.000000
  0.117776  0.000000  0.139911      4.000000
  0.141331  0.000000  0.139911      2.000000
  0.023555  0.023555  0.139911      4.000000
  0.047110  0.023555  0.139911      8.000000
  0.070666  0.023555  0.139911      8.000000
  0.094221  0.023555  0.139911      8.000000
  0.117776  0.023555  0.139911      8.000000
  0.141331  0.023555  0.139911      4.000000
  0.047110  0.047110  0.139911      4.000000
  0.070666  0.047110  0.139911      8.000000
  0.094221  0.047110  0.139911      8.000000
  0.117776  0.047110  0.139911      8.000000
  0.141331  0.047110  0.139911      4.000000
  0.070666  0.070666  0.139911      4.000000
  0.094221  0.070666  0.139911      8.000000
  0.117776  0.070666  0.139911      8.000000
  0.141331  0.070666  0.139911      4.000000
  0.094221  0.094221  0.139911      4.000000
  0.117776  0.094221  0.139911      8.000000
  0.141331  0.094221  0.139911      4.000000
  0.117776  0.117776  0.139911      4.000000
  0.141331  0.117776  0.139911      4.000000
  0.141331  0.141331  0.139911      1.000000
 
 TETIRR: Found   2592 inequivalent tetrahedra from    10368


--------------------------------------------------------------------------------------------------------




 Dimension of arrays:
   k-points           NKPTS =    196   k-points in BZ     NKDIM =    196   number of bands    NBANDS=     24
   number of dos      NEDOS =    301   number of ions     NIONS =      8
   non local maximal  LDIM  =      4   non local SUM 2l+1 LMDIM =      8
   total plane-waves  NPLWV =  13824
   max r-space proj   IRMAX =      1   max aug-charges    IRDMAX=   3846
   dimension x,y,z NGX =    24 NGY =   24 NGZ =   24
   dimension x,y,z NGXF=    48 NGYF=   48 NGZF=   48
   support grid    NGXF=    48 NGYF=   48 NGZF=   48
   ions per type =               8
   NGX,Y,Z   is equivalent  to a cutoff of  11.28, 11.28, 11.16 a.u.
   NGXF,Y,Z  is equivalent  to a cutoff of  22.56, 22.56, 22.33 a.u.

 SYSTEM =  unknown system                          
 POSCAR =  C8                                      

 Startparameter for this run:
   NWRITE =      2    write-flag & timer
   PREC   = accura    normal or accurate (medium, high low for compatibility)
   ISTART =      0    job   : 0-new  1-cont  2-samecut
   ICHARG =      2    charge: 1-file 2-atom 10-const
   ISPIN  =      1    spin polarized calculation?
   LNONCOLLINEAR =      F non collinear calculations
   LSORBIT =      F    spin-orbit coupling
   INIWAV =      1    electr: 0-lowe 1-rand  2-diag
   LASPH  =      F    aspherical Exc in radial PAW
   METAGGA=      F    non-selfconsistent MetaGGA calc.

 Electronic Relaxation 1
   ENCUT  =  400.0 eV  29.40 Ry    5.42 a.u.   5.77  5.77  5.83*2*pi/ulx,y,z
   ENINI  =  400.0     initial cutoff
   ENAUG  =  644.9 eV  augmentation charge cutoff
   NELM   =     60;   NELMIN=  2; NELMDL= -5     # of ELM steps 
   EDIFF  = 0.1E-05   stopping-criterion for ELM
   LREAL  =      F    real-space projection
   NLSPLINE    = F    spline interpolate recip. space projectors
   LCOMPAT=      F    compatible to vasp.4.4
   GGA_COMPAT  = T    GGA compatible to vasp.4.4-vasp.4.6
   LMAXPAW     = -100 max onsite density
   LMAXMIX     =    2 max onsite mixed and CHGCAR
   VOSKOWN=      0    Vosko Wilk Nusair interpolation
   ROPT   =    0.00000
 Ionic relaxation
   EDIFFG = 0.1E-04   stopping-criterion for IOM
   NSW    =      0    number of steps for IOM
   NBLOCK =      1;   KBLOCK =      1    inner block; outer block 
   IBRION =     -1    ionic relax: 0-MD 1-quasi-New 2-CG
   NFREE  =      0    steps in history (QN), initial steepest desc. (CG)
   ISIF   =      2    stress and relaxation
   IWAVPR =     10    prediction:  0-non 1-charg 2-wave 3-comb
   ISYM   =      2    0-nonsym 1-usesym 2-fastsym
   LCORR  =      T    Harris-Foulkes like correction to forces

   POTIM  = 0.0200    time-step for ionic-motion
   TEIN   =    0.0    initial temperature
   TEBEG  =    0.0;   TEEND  =   0.0 temperature during run
   SMASS  =  -3.00    Nose mass-parameter (am)
   estimated Nose-frequenzy (Omega)   =  0.10E-29 period in steps =****** mass=  -0.286E-27a.u.
   SCALEE = 1.0000    scale energy and forces
   NPACO  =    256;   APACO  = 16.0  distance and # of slots for P.C.
   PSTRESS=    0.0 pullay stress

  Mass of Ions in am
   POMASS =  12.01
  Ionic Valenz
   ZVAL   =   4.00
  Atomic Wigner-Seitz radii
   RWIGS  =  -1.00
  virtual crystal weights 
   VCA    =   1.00
   NELECT =      32.0000    total number of electrons
   NUPDOWN=      -1.0000    fix difference up-down

 DOS related values:
   EMIN   =  10.00;   EMAX   =-10.00  energy-range for DOS
   EFERMI =   0.00
   ISMEAR =    -5;   SIGMA  =   0.06  broadening in eV -4-tet -1-fermi 0-gaus

 Electronic relaxation 2 (details)
   IALGO  =     38    algorithm
   LDIAG  =      T    sub-space diagonalisation (order eigenvalues)
   LSUBROT=      F    optimize rotation matrix (better conditioning)
   TURBO    =      0    0=normal 1=particle mesh
   IRESTART =      0    0=no restart 2=restart with 2 vectors
   NREBOOT  =      0    no. of reboots
   NMIN     =      0    reboot dimension
   EREF     =   0.00    reference energy to select bands
   IMIX   =      4    mixing-type and parameters
     AMIX     =   0.40;   BMIX     =  1.00
     AMIX_MAG =   1.60;   BMIX_MAG =  1.00
     AMIN     =   0.10
     WC   =   100.;   INIMIX=   1;  MIXPRE=   1;  MAXMIX= -45

 Intra band minimization:
   WEIMIN = 0.0000     energy-eigenvalue tresh-hold
   EBREAK =  0.10E-07  absolut break condition
   DEPER  =   0.30     relativ break condition  

   TIME   =   0.40     timestep for ELM

  volume/ion in A,a.u.               =       5.59        37.73
  Fermi-wavevector in a.u.,A,eV,Ry     =   1.464188  2.766914 29.168804  2.143847
  Thomas-Fermi vector in A             =   2.580194
 
 Write flags
   LWAVE        =      F    write WAVECAR
   LDOWNSAMPLE  =      F    k-point downsampling of WAVECAR
   LCHARG       =      F    write CHGCAR
   LVTOT        =      F    write LOCPOT, total local potential
   LVHAR        =      F    write LOCPOT, Hartree potential only
   LELF         =      F    write electronic localiz. function (ELF)
   LORBIT       =      0    0 simple, 1 ext, 2 COOP (PROOUT), +10 PAW based schemes


 Dipole corrections
   LMONO  =      F    monopole corrections only (constant potential shift)
   LDIPOL =      F    correct potential (dipole corrections)
   IDIPOL =      0    1-x, 2-y, 3-z, 4-all directions 
   EPSILON=  1.0000000 bulk dielectric constant

 Exchange correlation treatment:
   GGA     =    --    GGA type
   LEXCH   =     8    internal setting for exchange type
   VOSKOWN=      0    Vosko Wilk Nusair interpolation
   LHFCALC =     F    Hartree Fock is set to
   LHFONE  =     F    Hartree Fock one center treatment
   AEXX    =    0.0000 exact exchange contribution

 Linear response parameters
   LEPSILON=     F    determine dielectric tensor
   LRPA    =     F    only Hartree local field effects (RPA)
   LNABLA  =     F    use nabla operator in PAW spheres
   LVEL    =     F    velocity operator in full k-point grid
   LINTERFAST=   F  fast interpolation
   KINTER  =     0    interpolate to denser k-point grid
   CSHIFT  =0.1000    complex shift for real part using Kramers Kronig
   OMEGAMAX=  -1.0    maximum frequency
   DEG_THRESHOLD= 0.2000000E-02 threshold for treating states as degnerate
   RTIME   =   -0.100 relaxation time in fs
  (WPLASMAI=    0.000 imaginary part of plasma frequency in eV, 0.658/RTIME)
   DFIELD  = 0.0000000 0.0000000 0.0000000 field for delta impulse in time
 
 Orbital magnetization related:
   ORBITALMAG=     F  switch on orbital magnetization
   LCHIMAG   =     F  perturbation theory with respect to B field
   DQ        =  0.001000  dq finite difference perturbation B field
   LLRAUG    =     F  two centre corrections for induced B field



--------------------------------------------------------------------------------------------------------


 Static calculation
 charge density and potential will be updated during run
 non-spin polarized calculation
 Variant of blocked Davidson
 Davidson routine will perform the subspace rotation
 perform sub-space diagonalisation
    after iterative eigenvector-optimisation
 modified Broyden-mixing scheme, WC =      100.0
 initial mixing is a Kerker type mixing with AMIX =  0.4000 and BMIX =      1.0000
 Hartree-type preconditioning will be used
 using additional bands            8
 reciprocal scheme for non local part
 calculate Harris-corrections to forces 
   (improved forces if not selfconsistent)
 use gradient corrections 
 use of overlap-Matrix (Vanderbilt PP)
 Fermi weights with tetrahedron method with Bloechl corrections


--------------------------------------------------------------------------------------------------------


  energy-cutoff  :      400.00
  volume of cell :       44.73
      direct lattice vectors                 reciprocal lattice vectors
     3.537792000  0.000000000  0.000000000     0.282662180  0.000000000  0.000000000
     0.000000000  3.537792000  0.000000000     0.000000000  0.282662180  0.000000000
     0.000000000  0.000000000  3.573710000     0.000000000  0.000000000  0.279821250

  length of vectors
     3.537792000  3.537792000  3.573710000     0.282662180  0.282662180  0.279821250


 
 k-points in units of 2pi/SCALE and weight: kpt_density=1000                        
   0.00000000  0.00000000  0.00000000       0.001
   0.02355518  0.00000000  0.00000000       0.002
   0.04711036  0.00000000  0.00000000       0.002
   0.07066555  0.00000000  0.00000000       0.002
   0.09422073  0.00000000  0.00000000       0.002
   0.11777591  0.00000000  0.00000000       0.002
   0.14133109  0.00000000  0.00000000       0.001
   0.02355518  0.02355518  0.00000000       0.002
   0.04711036  0.02355518  0.00000000       0.005
   0.07066555  0.02355518  0.00000000       0.005
   0.09422073  0.02355518  0.00000000       0.005
   0.11777591  0.02355518  0.00000000       0.005
   0.14133109  0.02355518  0.00000000       0.002
   0.04711036  0.04711036  0.00000000       0.002
   0.07066555  0.04711036  0.00000000       0.005
   0.09422073  0.04711036  0.00000000       0.005
   0.11777591  0.04711036  0.00000000       0.005
   0.14133109  0.04711036  0.00000000       0.002
   0.07066555  0.07066555  0.00000000       0.002
   0.09422073  0.07066555  0.00000000       0.005
   0.11777591  0.07066555  0.00000000       0.005
   0.14133109  0.07066555  0.00000000       0.002
   0.09422073  0.09422073  0.00000000       0.002
   0.11777591  0.09422073  0.00000000       0.005
   0.14133109  0.09422073  0.00000000       0.002
   0.11777591  0.11777591  0.00000000       0.002
   0.14133109  0.11777591  0.00000000       0.002
   0.14133109  0.14133109  0.00000000       0.001
   0.00000000  0.00000000  0.02331844       0.001
   0.02355518  0.00000000  0.02331844       0.005
   0.04711036  0.00000000  0.02331844       0.005
   0.07066555  0.00000000  0.02331844       0.005
   0.09422073  0.00000000  0.02331844       0.005
   0.11777591  0.00000000  0.02331844       0.005
   0.14133109  0.00000000  0.02331844       0.002
   0.02355518  0.02355518  0.02331844       0.005
   0.04711036  0.02355518  0.02331844       0.009
   0.07066555  0.02355518  0.02331844       0.009
   0.09422073  0.02355518  0.02331844       0.009
   0.11777591  0.02355518  0.02331844       0.009
   0.14133109  0.02355518  0.02331844       0.005
   0.04711036  0.04711036  0.02331844       0.005
   0.07066555  0.04711036  0.02331844       0.009
   0.09422073  0.04711036  0.02331844       0.009
   0.11777591  0.04711036  0.02331844       0.009
   0.14133109  0.04711036  0.02331844       0.005
   0.07066555  0.07066555  0.02331844       0.005
   0.09422073  0.07066555  0.02331844       0.009
   0.11777591  0.07066555  0.02331844       0.009
   0.14133109  0.07066555  0.02331844       0.005
   0.09422073  0.09422073  0.02331844       0.005
   0.11777591  0.09422073  0.02331844       0.009
   0.14133109  0.09422073  0.02331844       0.005
   0.11777591  0.11777591  0.02331844       0.005
   0.14133109  0.11777591  0.02331844       0.005
   0.14133109  0.14133109  0.02331844       0.001
   0.00000000  0.00000000  0.04663688       0.001
   0.02355518  0.00000000  0.04663688       0.005
   0.04711036  0.00000000  0.04663688       0.005
   0.07066555  0.00000000  0.04663688       0.005
   0.09422073  0.00000000  0.04663688       0.005
   0.11777591  0.00000000  0.04663688       0.005
   0.14133109  0.00000000  0.04663688       0.002
   0.02355518  0.02355518  0.04663688       0.005
   0.04711036  0.02355518  0.04663688       0.009
   0.07066555  0.02355518  0.04663688       0.009
   0.09422073  0.02355518  0.04663688       0.009
   0.11777591  0.02355518  0.04663688       0.009
   0.14133109  0.02355518  0.04663688       0.005
   0.04711036  0.04711036  0.04663688       0.005
   0.07066555  0.04711036  0.04663688       0.009
   0.09422073  0.04711036  0.04663688       0.009
   0.11777591  0.04711036  0.04663688       0.009
   0.14133109  0.04711036  0.04663688       0.005
   0.07066555  0.07066555  0.04663688       0.005
   0.09422073  0.07066555  0.04663688       0.009
   0.11777591  0.07066555  0.04663688       0.009
   0.14133109  0.07066555  0.04663688       0.005
   0.09422073  0.09422073  0.04663688       0.005
   0.11777591  0.09422073  0.04663688       0.009
   0.14133109  0.09422073  0.04663688       0.005
   0.11777591  0.11777591  0.04663688       0.005
   0.14133109  0.11777591  0.04663688       0.005
   0.14133109  0.14133109  0.04663688       0.001
   0.00000000  0.00000000  0.06995531       0.001
   0.02355518  0.00000000  0.06995531       0.005
   0.04711036  0.00000000  0.06995531       0.005
   0.07066555  0.00000000  0.06995531       0.005
   0.09422073  0.00000000  0.06995531       0.005
   0.11777591  0.00000000  0.06995531       0.005
   0.14133109  0.00000000  0.06995531       0.002
   0.02355518  0.02355518  0.06995531       0.005
   0.04711036  0.02355518  0.06995531       0.009
   0.07066555  0.02355518  0.06995531       0.009
   0.09422073  0.02355518  0.06995531       0.009
   0.11777591  0.02355518  0.06995531       0.009
   0.14133109  0.02355518  0.06995531       0.005
   0.04711036  0.04711036  0.06995531       0.005
   0.07066555  0.04711036  0.06995531       0.009
   0.09422073  0.04711036  0.06995531       0.009
   0.11777591  0.04711036  0.06995531       0.009
   0.14133109  0.04711036  0.06995531       0.005
   0.07066555  0.07066555  0.06995531       0.005
   0.09422073  0.07066555  0.06995531       0.009
   0.11777591  0.07066555  0.06995531       0.009
   0.14133109  0.07066555  0.06995531       0.005
   0.09422073  0.09422073  0.06995531       0.005
   0.11777591  0.09422073  0.06995531       0.009
   0.14133109  0.09422073  0.06995531       0.005
   0.11777591  0.11777591  0.06995531       0.005
   0.14133109  0.11777591  0.06995531       0.005
   0.14133109  0.14133109  0.06995531       0.001
   0.00000000  0.00000000  0.09327375       0.001
   0.02355518  0.00000000  0.09327375       0.005
   0.04711036  0.00000000  0.09327375       0.005
   0.07066555  0.00000000  0.09327375       0.005
   0.09422073  0.00000000  0.09327375       0.005
   0.11777591  0.00000000  0.09327375       0.005
   0.14133109  0.00000000  0.09327375       0.002
   0.02355518  0.02355518  0.09327375       0.005
   0.04711036  0.02355518  0.09327375       0.009
   0.07066555  0.02355518  0.09327375       0.009
   0.09422073  0.02355518  0.09327375       0.009
   0.11777591  0.02355518  0.09327375       0.009
   0.14133109  0.02355518  0.09327375       0.005
   0.04711036  0.04711036  0.09327375       0.005
   0.07066555  0.04711036  0.09327375       0.009
   0.09422073  0.04711036  0.09327375       0.009
   0.11777591  0.04711036  0.09327375       0.009
   0.14133109  0.04711036  0.09327375       0.005
   0.07066555  0.07066555  0.09327375       0.005
   0.09422073  0.07066555  0.09327375       0.009
   0.11777591  0.07066555  0.09327375       0.009
   0.14133109  0.07066555  0.09327375       0.005
   0.09422073  0.09422073  0.09327375       0.005
   0.11777591  0.09422073  0.09327375       0.009
   0.14133109  0.09422073  0.09327375       0.005
   0.11777591  0.11777591  0.09327375       0.005
   0.14133109  0.11777591  0.09327375       0.005
   0.14133109  0.14133109  0.09327375       0.001
   0.00000000  0.00000000  0.11659219       0.001
   0.02355518  0.00000000  0.11659219       0.005
   0.04711036  0.00000000  0.11659219       0.005
   0.07066555  0.00000000  0.11659219       0.005
   0.09422073  0.00000000  0.11659219       0.005
   0.11777591  0.00000000  0.11659219       0.005
   0.14133109  0.00000000  0.11659219       0.002
   0.02355518  0.02355518  0.11659219       0.005
   0.04711036  0.02355518  0.11659219       0.009
   0.07066555  0.02355518  0.11659219       0.009
   0.09422073  0.02355518  0.11659219       0.009
   0.11777591  0.02355518  0.11659219       0.009
   0.14133109  0.02355518  0.11659219       0.005
   0.04711036  0.04711036  0.11659219       0.005
   0.07066555  0.04711036  0.11659219       0.009
   0.09422073  0.04711036  0.11659219       0.009
   0.11777591  0.04711036  0.11659219       0.009
   0.14133109  0.04711036  0.11659219       0.005
   0.07066555  0.07066555  0.11659219       0.005
   0.09422073  0.07066555  0.11659219       0.009
   0.11777591  0.07066555  0.11659219       0.009
   0.14133109  0.07066555  0.11659219       0.005
   0.09422073  0.09422073  0.11659219       0.005
   0.11777591  0.09422073  0.11659219       0.009
   0.14133109  0.09422073  0.11659219       0.005
   0.11777591  0.11777591  0.11659219       0.005
   0.14133109  0.11777591  0.11659219       0.005
   0.14133109  0.14133109  0.11659219       0.001
   0.00000000  0.00000000  0.13991063       0.001
   0.02355518  0.00000000  0.13991063       0.002
   0.04711036  0.00000000  0.13991063       0.002
   0.07066555  0.00000000  0.13991063       0.002
   0.09422073  0.00000000  0.13991063       0.002
   0.11777591  0.00000000  0.13991063       0.002
   0.14133109  0.00000000  0.13991063       0.001
   0.02355518  0.02355518  0.13991063       0.002
   0.04711036  0.02355518  0.13991063       0.005
   0.07066555  0.02355518  0.13991063       0.005
   0.09422073  0.02355518  0.13991063       0.005
   0.11777591  0.02355518  0.13991063       0.005
   0.14133109  0.02355518  0.13991063       0.002
   0.04711036  0.04711036  0.13991063       0.002
   0.07066555  0.04711036  0.13991063       0.005
   0.09422073  0.04711036  0.13991063       0.005
   0.11777591  0.04711036  0.13991063       0.005
   0.14133109  0.04711036  0.13991063       0.002
   0.07066555  0.07066555  0.13991063       0.002
   0.09422073  0.07066555  0.13991063       0.005
   0.11777591  0.07066555  0.13991063       0.005
   0.14133109  0.07066555  0.13991063       0.002
   0.09422073  0.09422073  0.13991063       0.002
   0.11777591  0.09422073  0.13991063       0.005
   0.14133109  0.09422073  0.13991063       0.002
   0.11777591  0.11777591  0.13991063       0.002
   0.14133109  0.11777591  0.13991063       0.002
   0.14133109  0.14133109  0.13991063       0.001
 
 k-points in reciprocal lattice and weights: kpt_density=1000                        
   0.00000000  0.00000000  0.00000000       0.001
   0.08333333  0.00000000  0.00000000       0.002
   0.16666667  0.00000000  0.00000000       0.002
   0.25000000  0.00000000  0.00000000       0.002
   0.33333333  0.00000000  0.00000000       0.002
   0.41666667  0.00000000  0.00000000       0.002
   0.50000000  0.00000000  0.00000000       0.001
   0.08333333  0.08333333  0.00000000       0.002
   0.16666667  0.08333333  0.00000000       0.005
   0.25000000  0.08333333  0.00000000       0.005
   0.33333333  0.08333333  0.00000000       0.005
   0.41666667  0.08333333  0.00000000       0.005
   0.50000000  0.08333333  0.00000000       0.002
   0.16666667  0.16666667  0.00000000       0.002
   0.25000000  0.16666667  0.00000000       0.005
   0.33333333  0.16666667  0.00000000       0.005
   0.41666667  0.16666667  0.00000000       0.005
   0.50000000  0.16666667  0.00000000       0.002
   0.25000000  0.25000000  0.00000000       0.002
   0.33333333  0.25000000  0.00000000       0.005
   0.41666667  0.25000000  0.00000000       0.005
   0.50000000  0.25000000  0.00000000       0.002
   0.33333333  0.33333333  0.00000000       0.002
   0.41666667  0.33333333  0.00000000       0.005
   0.50000000  0.33333333  0.00000000       0.002
   0.41666667  0.41666667  0.00000000       0.002
   0.50000000  0.41666667  0.00000000       0.002
   0.50000000  0.50000000  0.00000000       0.001
   0.00000000  0.00000000  0.08333333       0.001
   0.08333333  0.00000000  0.08333333       0.005
   0.16666667  0.00000000  0.08333333       0.005
   0.25000000  0.00000000  0.08333333       0.005
   0.33333333  0.00000000  0.08333333       0.005
   0.41666667  0.00000000  0.08333333       0.005
   0.50000000  0.00000000  0.08333333       0.002
   0.08333333  0.08333333  0.08333333       0.005
   0.16666667  0.08333333  0.08333333       0.009
   0.25000000  0.08333333  0.08333333       0.009
   0.33333333  0.08333333  0.08333333       0.009
   0.41666667  0.08333333  0.08333333       0.009
   0.50000000  0.08333333  0.08333333       0.005
   0.16666667  0.16666667  0.08333333       0.005
   0.25000000  0.16666667  0.08333333       0.009
   0.33333333  0.16666667  0.08333333       0.009
   0.41666667  0.16666667  0.08333333       0.009
   0.50000000  0.16666667  0.08333333       0.005
   0.25000000  0.25000000  0.08333333       0.005
   0.33333333  0.25000000  0.08333333       0.009
   0.41666667  0.25000000  0.08333333       0.009
   0.50000000  0.25000000  0.08333333       0.005
   0.33333333  0.33333333  0.08333333       0.005
   0.41666667  0.33333333  0.08333333       0.009
   0.50000000  0.33333333  0.08333333       0.005
   0.41666667  0.41666667  0.08333333       0.005
   0.50000000  0.41666667  0.08333333       0.005
   0.50000000  0.50000000  0.08333333       0.001
   0.00000000  0.00000000  0.16666667       0.001
   0.08333333  0.00000000  0.16666667       0.005
   0.16666667  0.00000000  0.16666667       0.005
   0.25000000  0.00000000  0.16666667       0.005
   0.33333333  0.00000000  0.16666667       0.005
   0.41666667  0.00000000  0.16666667       0.005
   0.50000000  0.00000000  0.16666667       0.002
   0.08333333  0.08333333  0.16666667       0.005
   0.16666667  0.08333333  0.16666667       0.009
   0.25000000  0.08333333  0.16666667       0.009
   0.33333333  0.08333333  0.16666667       0.009
   0.41666667  0.08333333  0.16666667       0.009
   0.50000000  0.08333333  0.16666667       0.005
   0.16666667  0.16666667  0.16666667       0.005
   0.25000000  0.16666667  0.16666667       0.009
   0.33333333  0.16666667  0.16666667       0.009
   0.41666667  0.16666667  0.16666667       0.009
   0.50000000  0.16666667  0.16666667       0.005
   0.25000000  0.25000000  0.16666667       0.005
   0.33333333  0.25000000  0.16666667       0.009
   0.41666667  0.25000000  0.16666667       0.009
   0.50000000  0.25000000  0.16666667       0.005
   0.33333333  0.33333333  0.16666667       0.005
   0.41666667  0.33333333  0.16666667       0.009
   0.50000000  0.33333333  0.16666667       0.005
   0.41666667  0.41666667  0.16666667       0.005
   0.50000000  0.41666667  0.16666667       0.005
   0.50000000  0.50000000  0.16666667       0.001
   0.00000000  0.00000000  0.25000000       0.001
   0.08333333  0.00000000  0.25000000       0.005
   0.16666667  0.00000000  0.25000000       0.005
   0.25000000  0.00000000  0.25000000       0.005
   0.33333333  0.00000000  0.25000000       0.005
   0.41666667  0.00000000  0.25000000       0.005
   0.50000000  0.00000000  0.25000000       0.002
   0.08333333  0.08333333  0.25000000       0.005
   0.16666667  0.08333333  0.25000000       0.009
   0.25000000  0.08333333  0.25000000       0.009
   0.33333333  0.08333333  0.25000000       0.009
   0.41666667  0.08333333  0.25000000       0.009
   0.50000000  0.08333333  0.25000000       0.005
   0.16666667  0.16666667  0.25000000       0.005
   0.25000000  0.16666667  0.25000000       0.009
   0.33333333  0.16666667  0.25000000       0.009
   0.41666667  0.16666667  0.25000000       0.009
   0.50000000  0.16666667  0.25000000       0.005
   0.25000000  0.25000000  0.25000000       0.005
   0.33333333  0.25000000  0.25000000       0.009
   0.41666667  0.25000000  0.25000000       0.009
   0.50000000  0.25000000  0.25000000       0.005
   0.33333333  0.33333333  0.25000000       0.005
   0.41666667  0.33333333  0.25000000       0.009
   0.50000000  0.33333333  0.25000000       0.005
   0.41666667  0.41666667  0.25000000       0.005
   0.50000000  0.41666667  0.25000000       0.005
   0.50000000  0.50000000  0.25000000       0.001
   0.00000000  0.00000000  0.33333333       0.001
   0.08333333  0.00000000  0.33333333       0.005
   0.16666667  0.00000000  0.33333333       0.005
   0.25000000  0.00000000  0.33333333       0.005
   0.33333333  0.00000000  0.33333333       0.005
   0.41666667  0.00000000  0.33333333       0.005
   0.50000000  0.00000000  0.33333333       0.002
   0.08333333  0.08333333  0.33333333       0.005
   0.16666667  0.08333333  0.33333333       0.009
   0.25000000  0.08333333  0.33333333       0.009
   0.33333333  0.08333333  0.33333333       0.009
   0.41666667  0.08333333  0.33333333       0.009
   0.50000000  0.08333333  0.33333333       0.005
   0.16666667  0.16666667  0.33333333       0.005
   0.25000000  0.16666667  0.33333333       0.009
   0.33333333  0.16666667  0.33333333       0.009
   0.41666667  0.16666667  0.33333333       0.009
   0.50000000  0.16666667  0.33333333       0.005
   0.25000000  0.25000000  0.33333333       0.005
   0.33333333  0.25000000  0.33333333       0.009
   0.41666667  0.25000000  0.33333333       0.009
   0.50000000  0.25000000  0.33333333       0.005
   0.33333333  0.33333333  0.33333333       0.005
   0.41666667  0.33333333  0.33333333       0.009
   0.50000000  0.33333333  0.33333333       0.005
   0.41666667  0.41666667  0.33333333       0.005
   0.50000000  0.41666667  0.33333333       0.005
   0.50000000  0.50000000  0.33333333       0.001
   0.00000000  0.00000000  0.41666667       0.001
   0.08333333  0.00000000  0.41666667       0.005
   0.16666667  0.00000000  0.41666667       0.005
   0.25000000  0.00000000  0.41666667       0.005
   0.33333333  0.00000000  0.41666667       0.005
   0.41666667  0.00000000  0.41666667       0.005
   0.50000000  0.00000000  0.41666667       0.002
   0.08333333  0.08333333  0.41666667       0.005
   0.16666667  0.08333333  0.41666667       0.009
   0.25000000  0.08333333  0.41666667       0.009
   0.33333333  0.08333333  0.41666667       0.009
   0.41666667  0.08333333  0.41666667       0.009
   0.50000000  0.08333333  0.41666667       0.005
   0.16666667  0.16666667  0.41666667       0.005
   0.25000000  0.16666667  0.41666667       0.009
   0.33333333  0.16666667  0.41666667       0.009
   0.41666667  0.16666667  0.41666667       0.009
   0.50000000  0.16666667  0.41666667       0.005
   0.25000000  0.25000000  0.41666667       0.005
   0.33333333  0.25000000  0.41666667       0.009
   0.41666667  0.25000000  0.41666667       0.009
   0.50000000  0.25000000  0.41666667       0.005
   0.33333333  0.33333333  0.41666667       0.005
   0.41666667  0.33333333  0.41666667       0.009
   0.50000000  0.33333333  0.41666667       0.005
   0.41666667  0.41666667  0.41666667       0.005
   0.50000000  0.41666667  0.41666667       0.005
   0.50000000  0.50000000  0.41666667       0.001
   0.00000000  0.00000000  0.50000000       0.001
   0.08333333  0.00000000  0.50000000       0.002
   0.16666667  0.00000000  0.50000000       0.002
   0.25000000  0.00000000  0.50000000       0.002
   0.33333333  0.00000000  0.50000000       0.002
   0.41666667  0.00000000  0.50000000       0.002
   0.50000000  0.00000000  0.50000000       0.001
   0.08333333  0.08333333  0.50000000       0.002
   0.16666667  0.08333333  0.50000000       0.005
   0.25000000  0.08333333  0.50000000       0.005
   0.33333333  0.08333333  0.50000000       0.005
   0.41666667  0.08333333  0.50000000       0.005
   0.50000000  0.08333333  0.50000000       0.002
   0.16666667  0.16666667  0.50000000       0.002
   0.25000000  0.16666667  0.50000000       0.005
   0.33333333  0.16666667  0.50000000       0.005
   0.41666667  0.16666667  0.50000000       0.005
   0.50000000  0.16666667  0.50000000       0.002
   0.25000000  0.25000000  0.50000000       0.002
   0.33333333  0.25000000  0.50000000       0.005
   0.41666667  0.25000000  0.50000000       0.005
   0.50000000  0.25000000  0.50000000       0.002
   0.33333333  0.33333333  0.50000000       0.002
   0.41666667  0.33333333  0.50000000       0.005
   0.50000000  0.33333333  0.50000000       0.002
   0.41666667  0.41666667  0.50000000       0.002
   0.50000000  0.41666667  0.50000000       0.002
   0.50000000  0.50000000  0.50000000       0.001
 
 position of ions in fractional coordinates (direct lattice) 
   0.25000000  0.75000000  0.25000000
   0.00000000  0.00000000  0.50000000
   0.25000000  0.25000000  0.75000000
   0.00000000  0.50000000  0.00000000
   0.75000000  0.75000000  0.75000000
   0.50000000  0.00000000  0.00000000
   0.75000000  0.25000000  0.25000000
   0.50000000  0.50000000  0.50000000
 
 position of ions in cartesian coordinates  (Angst):
   0.88444800  2.65334400  0.89342750
   0.00000000  0.00000000  1.78685500
   0.88444800  0.88444800  2.68028250
   0.00000000  1.76889600  0.00000000
   2.65334400  2.65334400  2.68028250
   1.76889600  0.00000000  0.00000000
   2.65334400  0.88444800  0.89342750
   1.76889600  1.76889600  1.78685500
 


--------------------------------------------------------------------------------------------------------


 k-point  1 :   0.0000 0.0000 0.0000  plane waves:     799
 k-point  2 :   0.0833 0.0000 0.0000  plane waves:     801
 k-point  3 :   0.1667 0.0000 0.0000  plane waves:     805
 k-point  4 :   0.2500 0.0000 0.0000  plane waves:     808
 k-point  5 :   0.3333 0.0000 0.0000  plane waves:     808
 k-point  6 :   0.4167 0.0000 0.0000  plane waves:     814
 k-point  7 :   0.5000 0.0000 0.0000  plane waves:     820
 k-point  8 :   0.0833 0.0833 0.0000  plane waves:     800
 k-point  9 :   0.1667 0.0833 0.0000  plane waves:     807
 k-point 10 :   0.2500 0.0833 0.0000  plane waves:     815
 k-point 11 :   0.3333 0.0833 0.0000  plane waves:     815
 k-point 12 :   0.4167 0.0833 0.0000  plane waves:     815
 k-point 13 :   0.5000 0.0833 0.0000  plane waves:     824
 k-point 14 :   0.1667 0.1667 0.0000  plane waves:     806
 k-point 15 :   0.2500 0.1667 0.0000  plane waves:     814
 k-point 16 :   0.3333 0.1667 0.0000  plane waves:     816
 k-point 17 :   0.4167 0.1667 0.0000  plane waves:     818
 k-point 18 :   0.5000 0.1667 0.0000  plane waves:     812
 k-point 19 :   0.2500 0.2500 0.0000  plane waves:     812
 k-point 20 :   0.3333 0.2500 0.0000  plane waves:     815
 k-point 21 :   0.4167 0.2500 0.0000  plane waves:     806
 k-point 22 :   0.5000 0.2500 0.0000  plane waves:     810
 k-point 23 :   0.3333 0.3333 0.0000  plane waves:     812
 k-point 24 :   0.4167 0.3333 0.0000  plane waves:     814
 k-point 25 :   0.5000 0.3333 0.0000  plane waves:     810
 k-point 26 :   0.4167 0.4167 0.0000  plane waves:     810
 k-point 27 :   0.5000 0.4167 0.0000  plane waves:     814
 k-point 28 :   0.5000 0.5000 0.0000  plane waves:     800
 k-point 29 :   0.0000 0.0000 0.0833  plane waves:     795
 k-point 30 :   0.0833 0.0000 0.0833  plane waves:     798
 k-point 31 :   0.1667 0.0000 0.0833  plane waves:     799
 k-point 32 :   0.2500 0.0000 0.0833  plane waves:     813
 k-point 33 :   0.3333 0.0000 0.0833  plane waves:     818
 k-point 34 :   0.4167 0.0000 0.0833  plane waves:     817
 k-point 35 :   0.5000 0.0000 0.0833  plane waves:     820
 k-point 36 :   0.0833 0.0833 0.0833  plane waves:     802
 k-point 37 :   0.1667 0.0833 0.0833  plane waves:     806
 k-point 38 :   0.2500 0.0833 0.0833  plane waves:     814
 k-point 39 :   0.3333 0.0833 0.0833  plane waves:     815
 k-point 40 :   0.4167 0.0833 0.0833  plane waves:     817
 k-point 41 :   0.5000 0.0833 0.0833  plane waves:     820
 k-point 42 :   0.1667 0.1667 0.0833  plane waves:     810
 k-point 43 :   0.2500 0.1667 0.0833  plane waves:     812
 k-point 44 :   0.3333 0.1667 0.0833  plane waves:     812
 k-point 45 :   0.4167 0.1667 0.0833  plane waves:     809
 k-point 46 :   0.5000 0.1667 0.0833  plane waves:     814
 k-point 47 :   0.2500 0.2500 0.0833  plane waves:     810
 k-point 48 :   0.3333 0.2500 0.0833  plane waves:     811
 k-point 49 :   0.4167 0.2500 0.0833  plane waves:     812
 k-point 50 :   0.5000 0.2500 0.0833  plane waves:     810
 k-point 51 :   0.3333 0.3333 0.0833  plane waves:     812
 k-point 52 :   0.4167 0.3333 0.0833  plane waves:     814
 k-point 53 :   0.5000 0.3333 0.0833  plane waves:     812
 k-point 54 :   0.4167 0.4167 0.0833  plane waves:     814
 k-point 55 :   0.5000 0.4167 0.0833  plane waves:     814
 k-point 56 :   0.5000 0.5000 0.0833  plane waves:     796
 k-point 57 :   0.0000 0.0000 0.1667  plane waves:     803
 k-point 58 :   0.0833 0.0000 0.1667  plane waves:     803
 k-point 59 :   0.1667 0.0000 0.1667  plane waves:     806
 k-point 60 :   0.2500 0.0000 0.1667  plane waves:     808
 k-point 61 :   0.3333 0.0000 0.1667  plane waves:     818
 k-point 62 :   0.4167 0.0000 0.1667  plane waves:     817
 k-point 63 :   0.5000 0.0000 0.1667  plane waves:     824
 k-point 64 :   0.0833 0.0833 0.1667  plane waves:     803
 k-point 65 :   0.1667 0.0833 0.1667  plane waves:     809
 k-point 66 :   0.2500 0.0833 0.1667  plane waves:     809
 k-point 67 :   0.3333 0.0833 0.1667  plane waves:     814
 k-point 68 :   0.4167 0.0833 0.1667  plane waves:     817
 k-point 69 :   0.5000 0.0833 0.1667  plane waves:     812
 k-point 70 :   0.1667 0.1667 0.1667  plane waves:     814
 k-point 71 :   0.2500 0.1667 0.1667  plane waves:     814
 k-point 72 :   0.3333 0.1667 0.1667  plane waves:     809
 k-point 73 :   0.4167 0.1667 0.1667  plane waves:     807
 k-point 74 :   0.5000 0.1667 0.1667  plane waves:     808
 k-point 75 :   0.2500 0.2500 0.1667  plane waves:     809
 k-point 76 :   0.3333 0.2500 0.1667  plane waves:     811
 k-point 77 :   0.4167 0.2500 0.1667  plane waves:     809
 k-point 78 :   0.5000 0.2500 0.1667  plane waves:     806
 k-point 79 :   0.3333 0.3333 0.1667  plane waves:     804
 k-point 80 :   0.4167 0.3333 0.1667  plane waves:     809
 k-point 81 :   0.5000 0.3333 0.1667  plane waves:     806
 k-point 82 :   0.4167 0.4167 0.1667  plane waves:     816
 k-point 83 :   0.5000 0.4167 0.1667  plane waves:     812
 k-point 84 :   0.5000 0.5000 0.1667  plane waves:     820
 k-point 85 :   0.0000 0.0000 0.2500  plane waves:     800
 k-point 86 :   0.0833 0.0000 0.2500  plane waves:     814
 k-point 87 :   0.1667 0.0000 0.2500  plane waves:     809
 k-point 88 :   0.2500 0.0000 0.2500  plane waves:     815
 k-point 89 :   0.3333 0.0000 0.2500  plane waves:     817
 k-point 90 :   0.4167 0.0000 0.2500  plane waves:     812
 k-point 91 :   0.5000 0.0000 0.2500  plane waves:     820
 k-point 92 :   0.0833 0.0833 0.2500  plane waves:     813
 k-point 93 :   0.1667 0.0833 0.2500  plane waves:     813
 k-point 94 :   0.2500 0.0833 0.2500  plane waves:     811
 k-point 95 :   0.3333 0.0833 0.2500  plane waves:     809
 k-point 96 :   0.4167 0.0833 0.2500  plane waves:     813
 k-point 97 :   0.5000 0.0833 0.2500  plane waves:     812
 k-point 98 :   0.1667 0.1667 0.2500  plane waves:     817
 k-point 99 :   0.2500 0.1667 0.2500  plane waves:     815
 k-point ** :   0.3333 0.1667 0.2500  plane waves:     811
 k-point ** :   0.4167 0.1667 0.2500  plane waves:     812
 k-point ** :   0.5000 0.1667 0.2500  plane waves:     810
 k-point ** :   0.2500 0.2500 0.2500  plane waves:     816
 k-point ** :   0.3333 0.2500 0.2500  plane waves:     812
 k-point ** :   0.4167 0.2500 0.2500  plane waves:     810
 k-point ** :   0.5000 0.2500 0.2500  plane waves:     804
 k-point ** :   0.3333 0.3333 0.2500  plane waves:     812
 k-point ** :   0.4167 0.3333 0.2500  plane waves:     810
 k-point ** :   0.5000 0.3333 0.2500  plane waves:     808
 k-point ** :   0.4167 0.4167 0.2500  plane waves:     814
 k-point ** :   0.5000 0.4167 0.2500  plane waves:     810
 k-point ** :   0.5000 0.5000 0.2500  plane waves:     816
 k-point ** :   0.0000 0.0000 0.3333  plane waves:     820
 k-point ** :   0.0833 0.0000 0.3333  plane waves:     818
 k-point ** :   0.1667 0.0000 0.3333  plane waves:     814
 k-point ** :   0.2500 0.0000 0.3333  plane waves:     813
 k-point ** :   0.3333 0.0000 0.3333  plane waves:     817
 k-point ** :   0.4167 0.0000 0.3333  plane waves:     815
 k-point ** :   0.5000 0.0000 0.3333  plane waves:     814
 k-point ** :   0.0833 0.0833 0.3333  plane waves:     816
 k-point ** :   0.1667 0.0833 0.3333  plane waves:     819
 k-point ** :   0.2500 0.0833 0.3333  plane waves:     814
 k-point ** :   0.3333 0.0833 0.3333  plane waves:     816
 k-point ** :   0.4167 0.0833 0.3333  plane waves:     814
 k-point ** :   0.5000 0.0833 0.3333  plane waves:     814
 k-point ** :   0.1667 0.1667 0.3333  plane waves:     815
 k-point ** :   0.2500 0.1667 0.3333  plane waves:     813
 k-point ** :   0.3333 0.1667 0.3333  plane waves:     812
 k-point ** :   0.4167 0.1667 0.3333  plane waves:     814
 k-point ** :   0.5000 0.1667 0.3333  plane waves:     808
 k-point ** :   0.2500 0.2500 0.3333  plane waves:     812
 k-point ** :   0.3333 0.2500 0.3333  plane waves:     812
 k-point ** :   0.4167 0.2500 0.3333  plane waves:     812
 k-point ** :   0.5000 0.2500 0.3333  plane waves:     810
 k-point ** :   0.3333 0.3333 0.3333  plane waves:     812
 k-point ** :   0.4167 0.3333 0.3333  plane waves:     811
 k-point ** :   0.5000 0.3333 0.3333  plane waves:     810
 k-point ** :   0.4167 0.4167 0.3333  plane waves:     817
 k-point ** :   0.5000 0.4167 0.3333  plane waves:     812
 k-point ** :   0.5000 0.5000 0.3333  plane waves:     816
 k-point ** :   0.0000 0.0000 0.4167  plane waves:     816
 k-point ** :   0.0833 0.0000 0.4167  plane waves:     818
 k-point ** :   0.1667 0.0000 0.4167  plane waves:     823
 k-point ** :   0.2500 0.0000 0.4167  plane waves:     815
 k-point ** :   0.3333 0.0000 0.4167  plane waves:     815
 k-point ** :   0.4167 0.0000 0.4167  plane waves:     817
 k-point ** :   0.5000 0.0000 0.4167  plane waves:     816
 k-point ** :   0.0833 0.0833 0.4167  plane waves:     820
 k-point ** :   0.1667 0.0833 0.4167  plane waves:     817
 k-point ** :   0.2500 0.0833 0.4167  plane waves:     813
 k-point ** :   0.3333 0.0833 0.4167  plane waves:     814
 k-point ** :   0.4167 0.0833 0.4167  plane waves:     815
 k-point ** :   0.5000 0.0833 0.4167  plane waves:     814
 k-point ** :   0.1667 0.1667 0.4167  plane waves:     806
 k-point ** :   0.2500 0.1667 0.4167  plane waves:     809
 k-point ** :   0.3333 0.1667 0.4167  plane waves:     811
 k-point ** :   0.4167 0.1667 0.4167  plane waves:     817
 k-point ** :   0.5000 0.1667 0.4167  plane waves:     814
 k-point ** :   0.2500 0.2500 0.4167  plane waves:     806
 k-point ** :   0.3333 0.2500 0.4167  plane waves:     809
 k-point ** :   0.4167 0.2500 0.4167  plane waves:     809
 k-point ** :   0.5000 0.2500 0.4167  plane waves:     814
 k-point ** :   0.3333 0.3333 0.4167  plane waves:     816
 k-point ** :   0.4167 0.3333 0.4167  plane waves:     814
 k-point ** :   0.5000 0.3333 0.4167  plane waves:     820
 k-point ** :   0.4167 0.4167 0.4167  plane waves:     812
 k-point ** :   0.5000 0.4167 0.4167  plane waves:     820
 k-point ** :   0.5000 0.5000 0.4167  plane waves:     844
 k-point ** :   0.0000 0.0000 0.5000  plane waves:     820
 k-point ** :   0.0833 0.0000 0.5000  plane waves:     816
 k-point ** :   0.1667 0.0000 0.5000  plane waves:     814
 k-point ** :   0.2500 0.0000 0.5000  plane waves:     812
 k-point ** :   0.3333 0.0000 0.5000  plane waves:     810
 k-point ** :   0.4167 0.0000 0.5000  plane waves:     814
 k-point ** :   0.5000 0.0000 0.5000  plane waves:     816
 k-point ** :   0.0833 0.0833 0.5000  plane waves:     820
 k-point ** :   0.1667 0.0833 0.5000  plane waves:     814
 k-point ** :   0.2500 0.0833 0.5000  plane waves:     804
 k-point ** :   0.3333 0.0833 0.5000  plane waves:     810
 k-point ** :   0.4167 0.0833 0.5000  plane waves:     818
 k-point ** :   0.5000 0.0833 0.5000  plane waves:     816
 k-point ** :   0.1667 0.1667 0.5000  plane waves:     808
 k-point ** :   0.2500 0.1667 0.5000  plane waves:     808
 k-point ** :   0.3333 0.1667 0.5000  plane waves:     812
 k-point ** :   0.4167 0.1667 0.5000  plane waves:     818
 k-point ** :   0.5000 0.1667 0.5000  plane waves:     828
 k-point ** :   0.2500 0.2500 0.5000  plane waves:     808
 k-point ** :   0.3333 0.2500 0.5000  plane waves:     814
 k-point ** :   0.4167 0.2500 0.5000  plane waves:     822
 k-point ** :   0.5000 0.2500 0.5000  plane waves:     816
 k-point ** :   0.3333 0.3333 0.5000  plane waves:     812
 k-point ** :   0.4167 0.3333 0.5000  plane waves:     814
 k-point ** :   0.5000 0.3333 0.5000  plane waves:     824
 k-point ** :   0.4167 0.4167 0.5000  plane waves:     812
 k-point ** :   0.5000 0.4167 0.5000  plane waves:     820
 k-point ** :   0.5000 0.5000 0.5000  plane waves:     840

 maximum and minimum number of plane-waves per node :       218      184

 maximum number of plane-waves:       844
 maximum index in each direction: 
   IXMAX=    5   IYMAX=    5   IZMAX=    5
   IXMIN=   -6   IYMIN=   -6   IZMIN=   -6


 parallel 3D FFT for wavefunctions:
    minimum data exchange during FFTs selected (reduces bandwidth)
 parallel 3D FFT for charge:
    minimum data exchange during FFTs selected (reduces bandwidth)


 total amount of memory used by VASP MPI-rank0    37808. kBytes
=======================================================================

   base      :      30000. kBytes
   nonl-proj :       2686. kBytes
   fftplans  :        345. kBytes
   grid      :        481. kBytes
   one-center:          6. kBytes
   wavefun   :       4290. kBytes
 
     INWAV:  cpu time    0.0004: real time    0.0006
 Broyden mixing: mesh for mixing (old mesh)
   NGX = 11   NGY = 11   NGZ = 11
  (NGX  = 48   NGY  = 48   NGZ  = 48)
  gives a total of   1331 points

 initial charge density was supplied:
 charge density of overlapping atoms calculated
 number of electron      32.0000000 magnetization 
 keeping initial charge density in first step


--------------------------------------------------------------------------------------------------------


 Maximum index for augmentation-charges          281 (set IRDMAX)


--------------------------------------------------------------------------------------------------------


 First call to EWALD:  gamma=   0.499
 Maximum number of real-space cells 3x 3x 3
 Maximum number of reciprocal cells 3x 3x 3

    FEWALD:  cpu time    0.0053: real time    0.0053


--------------------------------------- Iteration      1(   1)  ---------------------------------------


    POTLOK:  cpu time    0.0273: real time    0.0314
    SETDIJ:  cpu time    0.0072: real time    0.0072
     EDDAV:  cpu time   12.6395: real time   12.6492
 BZINTS: Fermi energy: 18.883042; 32.000000 electrons
         Band energy: 126.591521;  BLOECHL correction: -0.202188
       DOS:  cpu time    0.5001: real time    0.5001
    --------------------------------------------
      LOOP:  cpu time   13.1741: real time   13.1880

 eigenvalue-minimisations  :  9408
 total energy-change (2. order) : 0.5799883E+02  (-0.1438983E+04)
 number of electron      32.0000000 magnetization 
 augmentation part       32.0000000 magnetization 

 Free energy of the ion-electron system (eV)
  ---------------------------------------------------
  alpha Z        PSCENC =       116.58642088
  Ewald energy   TEWEN  =     -1398.55290819
  -Hartree energ DENC   =       -69.19148825
  -exchange      EXHF   =         0.00000000
  -V(xc)+E(xc)   XCENC  =       114.75133235
  PAW double counting   =       302.65154477     -311.85538214
  entropy T*S    EENTRO =         0.00000000
  eigenvalues    EBANDS =       126.59152082
  atomic energy  EATOM  =      1177.01779097
  Solvation  Ediel_sol  =         0.00000000
  ---------------------------------------------------
  free energy    TOTEN  =        57.99883121 eV

  energy without entropy =       57.99883121  energy(sigma->0) =       57.99883121


--------------------------------------------------------------------------------------------------------




--------------------------------------- Iteration      1(   2)  ---------------------------------------


     EDDAV:  cpu time   15.3458: real time   15.3468
 BZINTS: Fermi energy:  9.223654; 32.000000 electrons
         Band energy:  -2.586214;  BLOECHL correction:  0.000000
       DOS:  cpu time    0.1234: real time    0.1234
    --------------------------------------------
      LOOP:  cpu time   15.4692: real time   15.4702

 eigenvalue-minimisations  : 12968
 total energy-change (2. order) :-0.1291777E+03  (-0.1225449E+03)
 number of electron      32.0000000 magnetization 
 augmentation part       32.0000000 magnetization 

 Free energy of the ion-electron system (eV)
  ---------------------------------------------------
  alpha Z        PSCENC =       116.58642088
  Ewald energy   TEWEN  =     -1398.55290819
  -Hartree energ DENC   =       -69.19148825
  -exchange      EXHF   =         0.00000000
  -V(xc)+E(xc)   XCENC  =       114.75133235
  PAW double counting   =       302.65154477     -311.85538214
  entropy T*S    EENTRO =         0.00000000
  eigenvalues    EBANDS =        -2.58621383
  atomic energy  EATOM  =      1177.01779097
  Solvation  Ediel_sol  =         0.00000000
  ---------------------------------------------------
  free energy    TOTEN  =       -71.17890344 eV

  energy without entropy =      -71.17890344  energy(sigma->0) =      -71.17890344


--------------------------------------------------------------------------------------------------------




--------------------------------------- Iteration      1(   3)  ---------------------------------------


     EDDAV:  cpu time   14.9712: real time   14.9751
 BZINTS: Fermi energy:  8.599704; 32.000000 electrons
         Band energy:  -6.729949;  BLOECHL correction:  0.000000
       DOS:  cpu time    0.1104: real time    0.1104
    --------------------------------------------
      LOOP:  cpu time   15.0816: real time   15.0855

 eigenvalue-minimisations  : 12224
 total energy-change (2. order) :-0.4143735E+01  (-0.4123896E+01)
 number of electron      32.0000000 magnetization 
 augmentation part       32.0000000 magnetization 

 Free energy of the ion-electron system (eV)
  ---------------------------------------------------
  alpha Z        PSCENC =       116.58642088
  Ewald energy   TEWEN  =     -1398.55290819
  -Hartree energ DENC   =       -69.19148825
  -exchange      EXHF   =         0.00000000
  -V(xc)+E(xc)   XCENC  =       114.75133235
  PAW double counting   =       302.65154477     -311.85538214
  entropy T*S    EENTRO =         0.00000000
  eigenvalues    EBANDS =        -6.72994918
  atomic energy  EATOM  =      1177.01779097
  Solvation  Ediel_sol  =         0.00000000
  ---------------------------------------------------
  free energy    TOTEN  =       -75.32263878 eV

  energy without entropy =      -75.32263878  energy(sigma->0) =      -75.32263878


--------------------------------------------------------------------------------------------------------




--------------------------------------- Iteration      1(   4)  ---------------------------------------


     EDDAV:  cpu time   14.2653: real time   14.2665
 BZINTS: Fermi energy:  8.613906; 32.000000 electrons
         Band energy:  -6.769564;  BLOECHL correction:  0.000000
       DOS:  cpu time    0.1096: real time    0.1096
    --------------------------------------------
      LOOP:  cpu time   14.3749: real time   14.3761

 eigenvalue-minimisations  : 11888
 total energy-change (2. order) :-0.3961502E-01  (-0.3957119E-01)
 number of electron      32.0000000 magnetization 
 augmentation part       32.0000000 magnetization 

 Free energy of the ion-electron system (eV)
  ---------------------------------------------------
  alpha Z        PSCENC =       116.58642088
  Ewald energy   TEWEN  =     -1398.55290819
  -Hartree energ DENC   =       -69.19148825
  -exchange      EXHF   =         0.00000000
  -V(xc)+E(xc)   XCENC  =       114.75133235
  PAW double counting   =       302.65154477     -311.85538214
  entropy T*S    EENTRO =         0.00000000
  eigenvalues    EBANDS =        -6.76956420
  atomic energy  EATOM  =      1177.01779097
  Solvation  Ediel_sol  =         0.00000000
  ---------------------------------------------------
  free energy    TOTEN  =       -75.36225380 eV

  energy without entropy =      -75.36225380  energy(sigma->0) =      -75.36225380


--------------------------------------------------------------------------------------------------------




--------------------------------------- Iteration      1(   5)  ---------------------------------------


     EDDAV:  cpu time   14.5350: real time   14.5362
 BZINTS: Fermi energy:  8.597389; 32.000000 electrons
         Band energy:  -6.770341;  BLOECHL correction:  0.000000
       DOS:  cpu time    0.1097: real time    0.1097
    CHARGE:  cpu time    0.3537: real time    0.3537
    MIXING:  cpu time    0.0018: real time    0.0017
    --------------------------------------------
      LOOP:  cpu time   15.0001: real time   15.0013

 eigenvalue-minimisations  : 12176
 total energy-change (2. order) :-0.7764382E-03  (-0.7760822E-03)
 number of electron      32.0000018 magnetization 
 augmentation part        0.8008879 magnetization 

 Broyden mixing:
  rms(total) = 0.96697E+00    rms(broyden)= 0.96680E+00
  rms(prec ) = 0.22823E+01
  weight for this iteration     100.00

 Free energy of the ion-electron system (eV)
  ---------------------------------------------------
  alpha Z        PSCENC =       116.58642088
  Ewald energy   TEWEN  =     -1398.55290819
  -Hartree energ DENC   =       -69.19148825
  -exchange      EXHF   =         0.00000000
  -V(xc)+E(xc)   XCENC  =       114.75133235
  PAW double counting   =       302.65154477     -311.85538214
  entropy T*S    EENTRO =         0.00000000
  eigenvalues    EBANDS =        -6.77034064
  atomic energy  EATOM  =      1177.01779097
  Solvation  Ediel_sol  =         0.00000000
  ---------------------------------------------------
  free energy    TOTEN  =       -75.36303024 eV

  energy without entropy =      -75.36303024  energy(sigma->0) =      -75.36303024


--------------------------------------------------------------------------------------------------------




--------------------------------------- Iteration      1(   6)  ---------------------------------------


    POTLOK:  cpu time    0.0220: real time    0.0223
    SETDIJ:  cpu time    0.0064: real time    0.0064
     EDDAV:  cpu time   13.5193: real time   13.5200
 BZINTS: Fermi energy:  9.350092; 32.000000 electrons
         Band energy:   9.705977;  BLOECHL correction:  0.000000
       DOS:  cpu time    0.1232: real time    0.1232
    CHARGE:  cpu time    0.3341: real time    0.3341
    MIXING:  cpu time    0.0018: real time    0.0018
    --------------------------------------------
      LOOP:  cpu time   14.0069: real time   14.0079

 eigenvalue-minimisations  : 10888
 total energy-change (2. order) : 0.1984059E+01  (-0.1308670E+00)
 number of electron      32.0000017 magnetization 
 augmentation part        0.7825258 magnetization 

 Broyden mixing:
  rms(total) = 0.52864E+00    rms(broyden)= 0.52863E+00
  rms(prec ) = 0.12314E+01
  weight for this iteration     100.00

 eigenvalues of (default mixing * dielectric matrix)
  average eigenvalue GAMMA=   2.1606
  2.1606

 Free energy of the ion-electron system (eV)
  ---------------------------------------------------
  alpha Z        PSCENC =       116.58642088
  Ewald energy   TEWEN  =     -1398.55290819
  -Hartree energ DENC   =       -84.56365176
  -exchange      EXHF   =         0.00000000
  -V(xc)+E(xc)   XCENC  =       116.19343960
  PAW double counting   =       396.87278180     -406.63882142
  entropy T*S    EENTRO =         0.00000000
  eigenvalues    EBANDS =         9.70597686
  atomic energy  EATOM  =      1177.01779097
  Solvation  Ediel_sol  =         0.00000000
  ---------------------------------------------------
  free energy    TOTEN  =       -73.37897125 eV

  energy without entropy =      -73.37897125  energy(sigma->0) =      -73.37897125


--------------------------------------------------------------------------------------------------------




--------------------------------------- Iteration      1(   7)  ---------------------------------------


    POTLOK:  cpu time    0.0218: real time    0.0221
    SETDIJ:  cpu time    0.0060: real time    0.0059
     EDDAV:  cpu time   13.3872: real time   13.3879
 BZINTS: Fermi energy: 10.073355; 32.000000 electrons
         Band energy:  28.672094;  BLOECHL correction:  0.000000
       DOS:  cpu time    0.1100: real time    0.1100
    CHARGE:  cpu time    0.3298: real time    0.3298
    MIXING:  cpu time    0.0018: real time    0.0018
    --------------------------------------------
      LOOP:  cpu time   13.8566: real time   13.8577

 eigenvalue-minimisations  : 10960
 total energy-change (2. order) : 0.6698423E+00  (-0.1470954E+00)
 number of electron      32.0000017 magnetization 
 augmentation part        0.7626897 magnetization 

 Broyden mixing:
  rms(total) = 0.70031E-01    rms(broyden)= 0.69700E-01
  rms(prec ) = 0.12155E+00
  weight for this iteration     100.00

 eigenvalues of (default mixing * dielectric matrix)
  average eigenvalue GAMMA=   2.2688
  2.0020  2.5356

 Free energy of the ion-electron system (eV)
  ---------------------------------------------------
  alpha Z        PSCENC =       116.58642088
  Ewald energy   TEWEN  =     -1398.55290819
[...]

 k-point   184 :       0.3333    0.1667    0.5000
  band No.  band energies     occupation 
      1      -8.1821      2.00000
      2      -8.1821      2.00000
      3      -5.4297      2.00000
      4      -5.4297      2.00000
      5      -1.7174      2.00000
      6      -1.7174      2.00000
      7       0.8820      2.00000
      8       0.8820      2.00000
      9       3.2246      2.00000
     10       3.2246      2.00000
     11       5.3807      2.00000
     12       5.3807      2.00000
     13       5.6202      2.00000
     14       5.6202      2.00000
     15       7.0953      2.00000
     16       7.0953      2.00000
     17      17.7586      0.00000
     18      17.7586      0.00000
     19      17.9450      0.00000
     20      17.9450      0.00000
     21      19.3697      0.00000
     22      19.3697      0.00000
     23      19.8069      0.00000
     24      19.8069      0.00000

 k-point   185 :       0.4167    0.1667    0.5000
  band No.  band energies     occupation 
      1      -7.6343      2.00000
      2      -7.6343      2.00000
      3      -6.2340      2.00000
      4      -6.2340      2.00000
      5      -1.2615      2.00000
      6      -1.2615      2.00000
      7       0.0648      2.00000
      8       0.0648      2.00000
      9       3.7363      2.00000
     10       3.7363      2.00000
     11       4.8325      2.00000
     12       4.8325      2.00000
     13       6.3937      2.00000
     14       6.3937      2.00000
     15       7.1485      2.00000
     16       7.1485      2.00000
     17      17.8337      0.00000
     18      17.8337      0.00000
     19      18.4329      0.00000
     20      18.4329      0.00000
     21      18.9859      0.00000
     22      18.9859      0.00000
     23      19.8250      0.00000
     24      19.8250      0.00000

 k-point   186 :       0.5000    0.1667    0.5000
  band No.  band energies     occupation 
      1      -6.9796      2.00000
      2      -6.9796      2.00000
      3      -6.9796      2.00000
      4      -6.9796      2.00000
      5      -0.6575      2.00000
      6      -0.6575      2.00000
      7      -0.6575      2.00000
      8      -0.6575      2.00000
      9       4.2747      2.00000
     10       4.2747      2.00000
     11       4.2747      2.00000
     12       4.2747      2.00000
     13       6.9197      2.00000
     14       6.9197      2.00000
     15       6.9197      2.00000
     16       6.9197      2.00000
     17      18.0337      0.00000
     18      18.0337      0.00000
     19      18.0337      0.00000
     20      18.0337      0.00000
     21      19.6286      0.00000
     22      19.6286      0.00000
     23      19.6286      0.00000
     24      19.6286      0.00000

 k-point   187 :       0.2500    0.2500    0.5000
  band No.  band energies     occupation 
      1      -8.3061      2.00000
      2      -8.3061      2.00000
      3      -4.8213      2.00000
      4      -4.8213      2.00000
      5      -2.5311      2.00000
      6      -2.5311      2.00000
      7       0.7856      2.00000
      8       0.7856      2.00000
      9       3.6498      2.00000
     10       3.6498      2.00000
     11       5.1882      2.00000
     12       5.1882      2.00000
     13       6.4815      2.00000
     14       6.4815      2.00000
     15       6.6348      2.00000
     16       6.6348      2.00000
     17      17.1514      0.00000
     18      17.1514      0.00000
     19      18.2428      0.00000
     20      18.2428      0.00000
     21      19.3576      0.00000
     22      19.3576      0.00000
     23      20.1385      0.00000
     24      20.1508      0.00000

 k-point   188 :       0.3333    0.2500    0.5000
  band No.  band energies     occupation 
      1      -7.8799      2.00000
      2      -7.8799      2.00000
      3      -5.3237      2.00000
      4      -5.3237      2.00000
      5      -2.5902      2.00000
      6      -2.5902      2.00000
      7      -0.1393      2.00000
      8      -0.1393      2.00000
      9       4.3513      2.00000
     10       4.3513      2.00000
     11       5.8454      2.00000
     12       5.8454      2.00000
     13       6.2299      2.00000
     14       6.2299      2.00000
     15       6.9962      2.00000
     16       6.9962      2.00000
     17      17.7105      0.00000
     18      17.7105      0.00000
     19      18.0847      0.00000
     20      18.0847      0.00000
     21      19.2440      0.00000
     22      19.2440      0.00000
     23      19.4287      0.00000
     24      19.4287      0.00000

 k-point   189 :       0.4167    0.2500    0.5000
  band No.  band energies     occupation 
      1      -7.3431      2.00000
      2      -7.3431      2.00000
      3      -6.0114      2.00000
      4      -6.0114      2.00000
      5      -2.2548      2.00000
      6      -2.2548      2.00000
      7      -0.9735      2.00000
      8      -0.9735      2.00000
      9       4.8950      2.00000
     10       4.8950      2.00000
     11       5.8301      2.00000
     12       5.8301      2.00000
     13       6.5103      2.00000
     14       6.5103      2.00000
     15       7.1416      2.00000
     16       7.1416      2.00000
     17      18.0187      0.00000
     18      18.0187      0.00000
     19      18.3416      0.00000
     20      18.3416      0.00000
     21      18.9008      0.00000
     22      18.9008      0.00000
     23      19.2839      0.00000
     24      19.2839      0.00000

 k-point   190 :       0.5000    0.2500    0.5000
  band No.  band energies     occupation 
      1      -6.7100      2.00000
      2      -6.7100      2.00000
      3      -6.7100      2.00000
      4      -6.7100      2.00000
      5      -1.6904      2.00000
      6      -1.6904      2.00000
      7      -1.6904      2.00000
      8      -1.6904      2.00000
      9       5.3798      2.00000
     10       5.3798      2.00000
     11       5.3798      2.00000
     12       5.3798      2.00000
     13       6.9763      2.00000
     14       6.9763      2.00000
     15       6.9763      2.00000
     16       6.9763      2.00000
     17      18.1856      0.00000
     18      18.1856      0.00000
     19      18.1856      0.00000
     20      18.1856      0.00000
     21      19.2086      0.00000
     22      19.2086      0.00000
     23      19.2086      0.00000
     24      19.2086      0.00000

 k-point   191 :       0.3333    0.3333    0.5000
  band No.  band energies     occupation 
      1      -7.4651      2.00000
      2      -7.4651      2.00000
      3      -5.3894      2.00000
      4      -5.3894      2.00000
      5      -3.0914      2.00000
      6      -3.0914      2.00000
      7      -1.0820      2.00000
      8      -1.0820      2.00000
      9       5.2883      2.00000
     10       5.2883      2.00000
     11       6.1913      2.00000
     12       6.1913      2.00000
     13       6.8338      2.00000
     14       6.8338      2.00000
     15       6.8363      2.00000
     16       6.8363      2.00000
     17      17.8914      0.00000
     18      17.8914      0.00000
     19      18.1959      0.00000
     20      18.1959      0.00000
     21      18.8946      0.00000
     22      18.8946      0.00000
     23      19.3918      0.00000
     24      19.4763      0.00000

 k-point   192 :       0.4167    0.3333    0.5000
  band No.  band energies     occupation 
      1      -6.9504      2.00000
      2      -6.9504      2.00000
      3      -5.7853      2.00000
      4      -5.7853      2.00000
      5      -3.0473      2.00000
      6      -3.0473      2.00000
      7      -1.9134      2.00000
      8      -1.9134      2.00000
      9       5.9099      2.00000
     10       5.9099      2.00000
     11       6.6080      2.00000
     12       6.6080      2.00000
     13       6.6583      2.00000
     14       6.6583      2.00000
     15       7.1173      2.00000
     16       7.1173      2.00000
     17      18.2304      0.00000
     18      18.2304      0.00000
     19      18.2663      0.00000
     20      18.2663      0.00000
     21      18.8313      0.00000
     22      18.8313      0.00000
     23      18.8909      0.00000
     24      18.8909      0.00000

 k-point   193 :       0.5000    0.3333    0.5000
  band No.  band energies     occupation 
      1      -6.3654      2.00000
      2      -6.3654      2.00000
      3      -6.3654      2.00000
      4      -6.3654      2.00000
      5      -2.5951      2.00000
      6      -2.5951      2.00000
      7      -2.5951      2.00000
      8      -2.5951      2.00000
      9       6.3068      2.00000
     10       6.3068      2.00000
     11       6.3068      2.00000
     12       6.3068      2.00000
     13       7.0379      2.00000
     14       7.0379      2.00000
     15       7.0379      2.00000
     16       7.0379      2.00000
     17      18.3391      0.00000
     18      18.3391      0.00000
     19      18.3391      0.00000
     20      18.3391      0.00000
     21      18.8240      0.00000
     22      18.8240      0.00000
     23      18.8240      0.00000
     24      18.8240      0.00000

 k-point   194 :       0.4167    0.4167    0.5000
  band No.  band energies     occupation 
      1      -6.4840      2.00000
      2      -6.4840      2.00000
      3      -5.7337      2.00000
      4      -5.7337      2.00000
      5      -3.4462      2.00000
      6      -3.4462      2.00000
      7      -2.7108      2.00000
      8      -2.7108      2.00000
      9       6.6594      2.00000
     10       6.6594      2.00000
     11       6.8288      2.00000
     12       6.8288      2.00000
     13       6.9885      2.00000
     14       6.9885      2.00000
     15       7.1183      2.00000
     16       7.1183      2.00000
     17      18.3179      0.00000
     18      18.3179      0.00000
     19      18.4083      0.00000
     20      18.4084      0.00000
     21      18.5669      0.00000
     22      18.5673      0.00000
     23      18.7756      0.00000
     24      18.7782      0.00000

 k-point   195 :       0.5000    0.4167    0.5000
  band No.  band energies     occupation 
      1      -6.0179      2.00000
      2      -6.0179      2.00000
      3      -6.0179      2.00000
      4      -6.0179      2.00000
      5      -3.2834      2.00000
      6      -3.2834      2.00000
      7      -3.2834      2.00000
      8      -3.2834      2.00000
      9       6.9159      2.00000
     10       6.9159      2.00000
     11       6.9159      2.00000
     12       6.9159      2.00000
     13       7.1119      2.00000
     14       7.1119      2.00000
     15       7.1119      2.00000
     16       7.1119      2.00000
     17      18.4174      0.00000
     18      18.4174      0.00000
     19      18.4174      0.00000
     20      18.4174      0.00000
     21      18.5871      0.00000
     22      18.5871      0.00000
     23      18.5871      0.00000
     24      18.5871      0.00000

 k-point   196 :       0.5000    0.5000    0.5000
  band No.  band energies     occupation 
      1      -5.8489      2.00000
      2      -5.8489      2.00000
      3      -5.8489      2.00000
      4      -5.8489      2.00000
      5      -3.5670      2.00000
      6      -3.5670      2.00000
      7      -3.5670      2.00000
      8      -3.5670      2.00000
      9       7.0432      2.00000
     10       7.0432      2.00000
     11       7.0432      2.00000
     12       7.0432      2.00000
     13       7.2273      2.00000
     14       7.2273      2.00000
     15       7.2273      2.00000
     16       7.2273      2.00000
     17      18.3919      0.00000
     18      18.3919      0.00000
     19      18.3919      0.00000
     20      18.3919      0.00000
     21      18.5371      0.00000
     22      18.5371      0.00000
     23      18.5371      0.00000
     24      18.5371      0.00000


--------------------------------------------------------------------------------------------------------


 soft charge-density along one line, spin component           1
         0         1         2         3         4         5         6         7         8         9
 total charge-density along one line
 
 pseudopotential strength for first ion, spin component:           1
  9.427  -0.005   0.000   0.000  -0.000  -0.000  -0.000  -0.000
 -0.005  -0.002  -0.000  -0.000  -0.000  -0.000  -0.000  -0.000
  0.000  -0.000  -3.647  -0.000  -0.000  -0.009  -0.000  -0.000
  0.000  -0.000  -0.000  -3.647   0.000  -0.000  -0.009   0.000
 -0.000  -0.000  -0.000   0.000  -3.647  -0.000   0.000  -0.009
 -0.000  -0.000  -0.009  -0.000  -0.000  -0.757  -0.000  -0.000
 -0.000  -0.000  -0.000  -0.009   0.000  -0.000  -0.757   0.000
 -0.000  -0.000  -0.000   0.000  -0.009  -0.000   0.000  -0.757
 total augmentation occupancy for first ion, spin component:           1
  1.426  -1.057   0.000  -0.000   0.000   0.000   0.000  -0.000
 -1.057   1.067   0.000  -0.000  -0.000   0.000   0.000   0.000
 -0.000   0.000   1.109   0.000   0.000   0.188   0.000   0.000
  0.000   0.000  -0.000   1.106   0.000   0.000   0.189   0.000
  0.000  -0.000  -0.000   0.000   1.109   0.000   0.000   0.188
  0.000   0.000   0.188   0.000   0.000   0.037  -0.000  -0.000
  0.000   0.000   0.000   0.189  -0.000  -0.000   0.038  -0.000
  0.000   0.000   0.000  -0.000   0.188   0.000  -0.000   0.037


------------------------ aborting loop because EDIFF is reached ----------------------------------------


    CHARGE:  cpu time    0.2636: real time    0.2636
    FORLOC:  cpu time    0.0020: real time    0.0020
    FORNL :  cpu time    0.4385: real time    0.4385
    STRESS:  cpu time    1.0331: real time    1.0334
    FORHAR:  cpu time    0.0057: real time    0.0057
    MIXING:  cpu time    0.0018: real time    0.0018
    OFIELD:  cpu time    0.0001: real time    0.0001

  FORCE on cell =-STRESS in cart. coord.  units (eV):
  Direction    XX          YY          ZZ          XY          YZ          ZX
  --------------------------------------------------------------------------------------
  Alpha Z   116.58642   116.58642   116.58642
  Ewald    -468.34354  -468.34354  -461.86822     0.00000    -0.00000     0.00000
  Hartree    34.43661    34.43661    35.78393    -0.00000    -0.00000    -0.00000
  E(xc)    -120.12617  -120.12617  -120.08027     0.00000    -0.00000     0.00000
  Local     -43.22171   -43.22171   -50.50316    -0.00000     0.00000     0.00000
  n-local   -28.98872   -29.24547   -28.81169     0.62026     0.65665     0.56403
  augment    -2.90225    -2.90225    -2.90753    -0.00000    -0.00000    -0.00000
  Kinetic   508.48990   521.34714   511.33537    -4.84878    -5.41930    -4.16412
  Fock        0.00000     0.00000     0.00000     0.00000     0.00000     0.00000
  -------------------------------------------------------------------------------------
  Total       2.23079     2.23079    -0.46516     0.00000    -0.00000     0.00000
  in kB      79.90709    79.90709   -16.66203     0.00000    -0.00000     0.00000
  external pressure =       47.72 kB  Pullay stress =        0.00 kB


 VOLUME and BASIS-vectors are now :
 -----------------------------------------------------------------------------
  energy-cutoff  :      400.00
  volume of cell :       44.73
      direct lattice vectors                 reciprocal lattice vectors
     3.537792000  0.000000000  0.000000000     0.282662180  0.000000000  0.000000000
     0.000000000  3.537792000  0.000000000     0.000000000  0.282662180  0.000000000
     0.000000000  0.000000000  3.573710000     0.000000000  0.000000000  0.279821250

  length of vectors
     3.537792000  3.537792000  3.573710000     0.282662180  0.282662180  0.279821250


 FORCES acting on ions
    electron-ion (+dipol)            ewald-force                    non-local-force                 convergence-correction
 -----------------------------------------------------------------------------------------------
   0.161E-13 -.152E-12 0.182E-13   0.355E-13 0.284E-13 0.711E-14   -.103E-16 -.745E-17 -.534E-17   0.117E-14 0.189E-15 -.327E-14
   -.803E-14 0.183E-14 0.311E-13   0.700E-14 0.147E-13 -.122E-17   -.214E-16 0.120E-16 0.126E-18   -.633E-14 0.810E-15 -.514E-14
   0.241E-13 -.174E-12 0.321E-13   0.355E-13 0.142E-13 0.000E+00   0.410E-17 -.215E-16 -.464E-17   0.810E-15 0.929E-15 -.528E-15
   -.161E-13 0.227E-13 0.853E-14   0.826E-14 0.164E-16 -.709E-14   -.763E-17 0.120E-16 -.769E-17   -.503E-14 0.126E-14 -.197E-14
   0.402E-13 0.206E-12 0.394E-12   0.711E-14 0.000E+00 0.711E-14   0.161E-16 -.584E-17 0.796E-18   -.573E-14 0.718E-16 -.878E-15
   0.803E-14 0.220E-14 -.401E-12   -.283E-13 -.122E-13 0.136E-16   0.353E-17 0.652E-17 0.829E-17   0.106E-14 0.357E-15 -.109E-14
   0.321E-13 -.189E-12 0.861E-14   0.000E+00 -.142E-13 0.000E+00   0.163E-16 -.546E-17 0.372E-17   -.529E-14 -.122E-14 -.309E-14
   0.803E-14 0.382E-12 0.292E-13   -.355E-13 -.284E-13 -.719E-14   -.651E-18 0.205E-16 0.867E-17   0.197E-15 0.178E-14 -.407E-14
 -----------------------------------------------------------------------------------------------
   0.104E-12 0.100E-12 0.121E-12   0.296E-13 0.252E-14 -.554E-16   0.371E-19 0.108E-16 0.394E-17   -.191E-13 0.417E-14 -.200E-13
 
 
 POSITION                                       TOTAL-FORCE (eV/Angst)
 -----------------------------------------------------------------------------------
      0.88445      2.65334      0.89343         0.000000     -0.000000      0.000000
      0.00000      0.00000      1.78686         0.000000     -0.000000     -0.000000
      0.88445      0.88445      2.68028         0.000000     -0.000000      0.000000
      0.00000      1.76890      0.00000         0.000000     -0.000000     -0.000000
      2.65334      2.65334      2.68028         0.000000      0.000000      0.000000
      1.76890      0.00000      0.00000        -0.000000      0.000000     -0.000000
      2.65334      0.88445      0.89343        -0.000000      0.000000     -0.000000
      1.76890      1.76890      1.78686        -0.000000      0.000000      0.000000
 -----------------------------------------------------------------------------------
    total drift:                                0.000000      0.000000      0.000000


--------------------------------------------------------------------------------------------------------



  FREE ENERGIE OF THE ION-ELECTRON SYSTEM (eV)
  ---------------------------------------------------
  free  energy   TOTEN  =       -72.71700706 eV

  energy  without entropy=      -72.71700706  energy(sigma->0) =      -72.71700706
 


--------------------------------------------------------------------------------------------------------


    POTLOK:  cpu time    0.0276: real time    0.0276


--------------------------------------------------------------------------------------------------------


     LOOP+:  cpu time  159.0141: real time  159.0477
    4ORBIT:  cpu time    0.0000: real time    0.0000
 BZINTS: Fermi energy: 10.075217; 32.000000 electrons
         Band energy:  28.946730;  BLOECHL correction:  0.000000

 total amount of memory used by VASP MPI-rank0    37808. kBytes
=======================================================================

   base      :      30000. kBytes
   nonl-proj :       2686. kBytes
   fftplans  :        345. kBytes
   grid      :        481. kBytes
   one-center:          6. kBytes
   wavefun   :       4290. kBytes
 
  
  
 General timing and accounting informations for this job:
 ========================================================
  
                  Total CPU time used (sec):      163.042
                            User time (sec):      158.302
                          System time (sec):        4.740
                         Elapsed time (sec):      163.147
  
                   Maximum memory used (kb):      193688.
                   Average memory used (kb):           0.
  
                          Minor page faults:        36895
                          Major page faults:           37
                 Voluntary context switches:          783
