   8   8   0   0
  0.5436519E+01  0.3480633E-09  0.3480633E-09  0.3589999E-09  0.2000000E-16
  1.000000000000000E-004
  CAR 
 unknown system                          
     24.22811304    -13.38366450  301     10.57817210      1.00000000
    -13.384  0.0000E+00  0.0000E+00
    -13.258  0.0000E+00  0.0000E+00
    -13.133  0.0000E+00  0.0000E+00
    -13.008  0.0000E+00  0.0000E+00
    -12.882  0.0000E+00  0.0000E+00
    -12.757  0.0000E+00  0.0000E+00
    -12.631  0.0000E+00  0.0000E+00
    -12.506  0.0000E+00  0.0000E+00
    -12.381  0.0000E+00  0.0000E+00
    -12.255  0.0000E+00  0.0000E+00
    -12.130  0.0000E+00  0.0000E+00
    -12.005  0.0000E+00  0.0000E+00
    -11.879  0.0000E+00  0.0000E+00
    -11.754  0.0000E+00  0.0000E+00
    -11.628  0.3345E-01  0.5084E-03
    -11.503  0.1487E+00  0.1484E-01
    -11.378  0.2327E+00  0.3872E-01
    -11.252  0.2634E+00  0.6953E-01
    -11.127  0.3091E+00  0.1054E+00
    -11.002  0.3485E+00  0.1471E+00
    -10.876  0.3760E+00  0.1924E+00
    -10.751  0.4058E+00  0.2413E+00
    -10.625  0.4418E+00  0.2944E+00
    -10.500  0.4653E+00  0.3515E+00
    -10.375  0.4876E+00  0.4112E+00
    -10.249  0.5122E+00  0.4738E+00
    -10.124  0.5394E+00  0.5397E+00
     -9.999  0.5644E+00  0.6090E+00
     -9.873  0.5838E+00  0.6810E+00
     -9.748  0.6033E+00  0.7554E+00
     -9.622  0.6239E+00  0.8323E+00
     -9.497  0.6456E+00  0.9119E+00
     -9.372  0.6682E+00  0.9943E+00
     -9.246  0.6896E+00  0.1079E+01
     -9.121  0.7061E+00  0.1167E+01
     -8.996  0.7232E+00  0.1256E+01
     -8.870  0.7420E+00  0.1348E+01
     -8.745  0.7615E+00  0.1443E+01
     -8.620  0.7818E+00  0.1539E+01
     -8.494  0.8010E+00  0.1639E+01
     -8.369  0.8197E+00  0.1740E+01
     -8.243  0.8360E+00  0.1844E+01
     -8.118  0.8534E+00  0.1950E+01
     -7.993  0.8719E+00  0.2058E+01
     -7.867  0.8908E+00  0.2168E+01
     -7.742  0.9252E+00  0.2282E+01
     -7.617  0.9704E+00  0.2401E+01
     -7.491  0.1011E+01  0.2525E+01
     -7.366  0.1046E+01  0.2654E+01
     -7.240  0.1052E+01  0.2786E+01
     -7.115  0.1030E+01  0.2916E+01
     -6.990  0.1005E+01  0.3044E+01
     -6.864  0.1017E+01  0.3170E+01
     -6.739  0.1020E+01  0.3298E+01
     -6.614  0.1020E+01  0.3426E+01
     -6.488  0.1044E+01  0.3555E+01
     -6.363  0.1101E+01  0.3689E+01
     -6.237  0.1158E+01  0.3831E+01
     -6.112  0.1209E+01  0.3980E+01
     -5.987  0.1230E+01  0.4132E+01
     -5.861  0.1294E+01  0.4291E+01
     -5.736  0.1437E+01  0.4460E+01
     -5.611  0.1574E+01  0.4650E+01
     -5.485  0.1494E+01  0.4844E+01
     -5.360  0.1464E+01  0.5030E+01
     -5.234  0.1373E+01  0.5212E+01
     -5.109  0.1314E+01  0.5379E+01
     -4.984  0.1318E+01  0.5545E+01
     -4.858  0.1370E+01  0.5713E+01
     -4.733  0.1287E+01  0.5882E+01
     -4.608  0.1177E+01  0.6036E+01
     -4.482  0.1175E+01  0.6183E+01
     -4.357  0.1134E+01  0.6328E+01
     -4.231  0.1131E+01  0.6469E+01
     -4.106  0.1095E+01  0.6611E+01
     -3.981  0.1041E+01  0.6744E+01
     -3.855  0.1007E+01  0.6873E+01
     -3.730  0.9827E+00  0.6999E+01
     -3.605  0.9505E+00  0.7120E+01
     -3.479  0.9144E+00  0.7237E+01
     -3.354  0.9469E+00  0.7352E+01
     -3.228  0.1092E+01  0.7482E+01
     -3.103  0.1039E+01  0.7616E+01
     -2.978  0.1102E+01  0.7754E+01
     -2.852  0.1048E+01  0.7888E+01
     -2.727  0.1011E+01  0.8016E+01
     -2.602  0.1081E+01  0.8147E+01
     -2.476  0.1111E+01  0.8282E+01
     -2.351  0.9917E+00  0.8415E+01
     -2.226  0.9917E+00  0.8538E+01
     -2.100  0.1078E+01  0.8667E+01
     -1.975  0.1199E+01  0.8810E+01
     -1.849  0.1354E+01  0.8968E+01
     -1.724  0.1558E+01  0.9151E+01
     -1.599  0.1869E+01  0.9364E+01
     -1.473  0.2169E+01  0.9618E+01
     -1.348  0.2663E+01  0.9921E+01
     -1.223  0.2417E+01  0.1025E+02
     -1.097  0.2087E+01  0.1053E+02
     -0.972  0.1830E+01  0.1078E+02
     -0.846  0.1631E+01  0.1100E+02
     -0.721  0.1520E+01  0.1120E+02
     -0.596  0.1438E+01  0.1138E+02
     -0.470  0.1370E+01  0.1156E+02
     -0.345  0.1330E+01  0.1173E+02
     -0.220  0.1311E+01  0.1189E+02
     -0.094  0.1278E+01  0.1206E+02
      0.031  0.1197E+01  0.1221E+02
      0.157  0.1153E+01  0.1236E+02
      0.282  0.1152E+01  0.1250E+02
      0.407  0.1114E+01  0.1265E+02
      0.533  0.1084E+01  0.1278E+02
      0.658  0.1079E+01  0.1292E+02
      0.783  0.1105E+01  0.1306E+02
      0.909  0.1380E+01  0.1321E+02
      1.034  0.1684E+01  0.1340E+02
      1.160  0.1896E+01  0.1363E+02
      1.285  0.2183E+01  0.1388E+02
      1.410  0.2171E+01  0.1416E+02
      1.536  0.2054E+01  0.1443E+02
      1.661  0.2114E+01  0.1469E+02
      1.786  0.2125E+01  0.1496E+02
      1.912  0.2114E+01  0.1522E+02
      2.037  0.1847E+01  0.1548E+02
      2.163  0.1383E+01  0.1568E+02
      2.288  0.1461E+01  0.1585E+02
      2.413  0.1750E+01  0.1605E+02
      2.539  0.2134E+01  0.1629E+02
      2.664  0.2251E+01  0.1657E+02
      2.789  0.2260E+01  0.1685E+02
      2.915  0.2279E+01  0.1714E+02
      3.040  0.2300E+01  0.1742E+02
      3.166  0.2278E+01  0.1771E+02
      3.291  0.2558E+01  0.1801E+02
      3.416  0.2883E+01  0.1835E+02
      3.542  0.2883E+01  0.1871E+02
      3.667  0.2764E+01  0.1906E+02
      3.792  0.2696E+01  0.1941E+02
      3.918  0.2436E+01  0.1972E+02
      4.043  0.2586E+01  0.2003E+02
      4.168  0.2937E+01  0.2037E+02
      4.294  0.3288E+01  0.2076E+02
      4.419  0.3411E+01  0.2119E+02
      4.545  0.3227E+01  0.2161E+02
      4.670  0.3032E+01  0.2200E+02
      4.795  0.2807E+01  0.2236E+02
      4.921  0.2746E+01  0.2271E+02
      5.046  0.2648E+01  0.2305E+02
      5.171  0.2618E+01  0.2338E+02
      5.297  0.2640E+01  0.2371E+02
      5.422  0.2942E+01  0.2405E+02
      5.548  0.2939E+01  0.2443E+02
      5.673  0.2881E+01  0.2479E+02
      5.798  0.2915E+01  0.2515E+02
      5.924  0.2902E+01  0.2552E+02
      6.049  0.2612E+01  0.2587E+02
      6.174  0.2390E+01  0.2618E+02
      6.300  0.2337E+01  0.2647E+02
      6.425  0.2336E+01  0.2676E+02
      6.551  0.2502E+01  0.2707E+02
      6.676  0.2598E+01  0.2739E+02
      6.801  0.2648E+01  0.2772E+02
      6.927  0.2582E+01  0.2805E+02
      7.052  0.2511E+01  0.2837E+02
      7.177  0.2223E+01  0.2867E+02
      7.303  0.2370E+01  0.2895E+02
      7.428  0.2384E+01  0.2926E+02
      7.554  0.2016E+01  0.2953E+02
      7.679  0.1904E+01  0.2978E+02
      7.804  0.1745E+01  0.3001E+02
      7.930  0.1511E+01  0.3021E+02
      8.055  0.1385E+01  0.3040E+02
      8.180  0.1316E+01  0.3056E+02
      8.306  0.1189E+01  0.3072E+02
      8.431  0.1093E+01  0.3087E+02
      8.557  0.1010E+01  0.3100E+02
      8.682  0.9447E+00  0.3112E+02
      8.807  0.8760E+00  0.3123E+02
      8.933  0.8270E+00  0.3134E+02
      9.058  0.7440E+00  0.3144E+02
      9.183  0.6762E+00  0.3153E+02
      9.309  0.6176E+00  0.3161E+02
      9.434  0.5645E+00  0.3168E+02
      9.560  0.5187E+00  0.3175E+02
      9.685  0.4374E+00  0.3181E+02
      9.810  0.3778E+00  0.3186E+02
      9.936  0.3090E+00  0.3190E+02
     10.061  0.2473E+00  0.3194E+02
     10.186  0.1967E+00  0.3197E+02
     10.312  0.1359E+00  0.3199E+02
     10.437  0.4689E-01  0.3200E+02
     10.563  0.4864E-05  0.3200E+02
     10.688  0.0000E+00  0.3200E+02
     10.813  0.0000E+00  0.3200E+02
     10.939  0.0000E+00  0.3200E+02
     11.064  0.0000E+00  0.3200E+02
     11.189  0.0000E+00  0.3200E+02
     11.315  0.0000E+00  0.3200E+02
     11.440  0.0000E+00  0.3200E+02
     11.565  0.0000E+00  0.3200E+02
     11.691  0.0000E+00  0.3200E+02
     11.816  0.0000E+00  0.3200E+02
     11.942  0.0000E+00  0.3200E+02
     12.067  0.0000E+00  0.3200E+02
     12.192  0.0000E+00  0.3200E+02
     12.318  0.0000E+00  0.3200E+02
     12.443  0.0000E+00  0.3200E+02
     12.568  0.0000E+00  0.3200E+02
     12.694  0.0000E+00  0.3200E+02
     12.819  0.0000E+00  0.3200E+02
     12.945  0.0000E+00  0.3200E+02
     13.070  0.0000E+00  0.3200E+02
     13.195  0.0000E+00  0.3200E+02
     13.321  0.0000E+00  0.3200E+02
     13.446  0.0000E+00  0.3200E+02
     13.571  0.0000E+00  0.3200E+02
     13.697  0.0000E+00  0.3200E+02
     13.822  0.0000E+00  0.3200E+02
     13.948  0.0000E+00  0.3200E+02
     14.073  0.0000E+00  0.3200E+02
     14.198  0.0000E+00  0.3200E+02
     14.324  0.0000E+00  0.3200E+02
     14.449  0.3024E-01  0.3200E+02
     14.574  0.1304E+00  0.3201E+02
     14.700  0.2804E+00  0.3204E+02
     14.825  0.3577E+00  0.3208E+02
     14.951  0.3742E+00  0.3212E+02
     15.076  0.4740E+00  0.3217E+02
     15.201  0.5902E+00  0.3224E+02
     15.327  0.7138E+00  0.3232E+02
     15.452  0.1084E+01  0.3243E+02
     15.577  0.1023E+01  0.3256E+02
     15.703  0.1147E+01  0.3270E+02
     15.828  0.1174E+01  0.3284E+02
     15.954  0.1260E+01  0.3300E+02
     16.079  0.1405E+01  0.3316E+02
     16.204  0.1715E+01  0.3335E+02
     16.330  0.1723E+01  0.3357E+02
     16.455  0.1800E+01  0.3379E+02
     16.580  0.1846E+01  0.3402E+02
     16.706  0.1868E+01  0.3426E+02
     16.831  0.1912E+01  0.3450E+02
     16.957  0.2001E+01  0.3474E+02
     17.082  0.2082E+01  0.3500E+02
     17.207  0.2173E+01  0.3526E+02
     17.333  0.2277E+01  0.3554E+02
     17.458  0.2343E+01  0.3583E+02
     17.583  0.2377E+01  0.3613E+02
     17.709  0.2563E+01  0.3643E+02
     17.834  0.2610E+01  0.3676E+02
     17.959  0.2723E+01  0.3709E+02
     18.085  0.2974E+01  0.3745E+02
     18.210  0.3189E+01  0.3784E+02
     18.336  0.3327E+01  0.3824E+02
     18.461  0.3852E+01  0.3869E+02
     18.586  0.4300E+01  0.3920E+02
     18.712  0.4296E+01  0.3982E+02
     18.837  0.3409E+01  0.4028E+02
     18.962  0.2784E+01  0.4067E+02
     19.088  0.3004E+01  0.4102E+02
     19.213  0.3245E+01  0.4144E+02
     19.339  0.3191E+01  0.4184E+02
     19.464  0.3175E+01  0.4224E+02
     19.589  0.3018E+01  0.4263E+02
     19.715  0.3237E+01  0.4302E+02
     19.840  0.3176E+01  0.4343E+02
     19.965  0.3016E+01  0.4381E+02
     20.091  0.2991E+01  0.4420E+02
     20.216  0.2864E+01  0.4457E+02
     20.342  0.2978E+01  0.4493E+02
     20.467  0.2874E+01  0.4530E+02
     20.592  0.2721E+01  0.4565E+02
     20.718  0.2645E+01  0.4599E+02
     20.843  0.2582E+01  0.4631E+02
     20.968  0.2625E+01  0.4664E+02
     21.094  0.2399E+01  0.4696E+02
     21.219  0.1995E+01  0.4724E+02
     21.345  0.1574E+01  0.4746E+02
     21.470  0.1326E+01  0.4764E+02
     21.595  0.1055E+01  0.4780E+02
     21.721  0.5269E+00  0.4790E+02
     21.846  0.2798E+00  0.4794E+02
     21.971  0.1606E+00  0.4797E+02
     22.097  0.9329E-01  0.4799E+02
     22.222  0.4584E-01  0.4800E+02
     22.348  0.1555E-01  0.4800E+02
     22.473  0.2426E-02  0.4800E+02
     22.598  0.0000E+00  0.4800E+02
     22.724  0.0000E+00  0.4800E+02
     22.849  0.0000E+00  0.4800E+02
     22.974  0.0000E+00  0.4800E+02
     23.100  0.0000E+00  0.4800E+02
     23.225  0.0000E+00  0.4800E+02
     23.351  0.0000E+00  0.4800E+02
     23.476  0.0000E+00  0.4800E+02
     23.601  0.0000E+00  0.4800E+02
     23.727  0.0000E+00  0.4800E+02
     23.852  0.0000E+00  0.4800E+02
     23.977  0.0000E+00  0.4800E+02
     24.103  0.0000E+00  0.4800E+02
     24.228  0.0000E+00  0.4800E+02
