       N       E                     dE             d eps       ncg     rms          rms(c)
DAV:   1     0.579739053037E+02    0.57974E+02   -0.14494E+04  9416   0.106E+03
DAV:   2    -0.711923073685E+02   -0.12917E+03   -0.12252E+03 12880   0.225E+02
DAV:   3    -0.753511791186E+02   -0.41589E+01   -0.41386E+01 12264   0.376E+01
DAV:   4    -0.753904298159E+02   -0.39251E-01   -0.39218E-01 11888   0.401E+00
DAV:   5    -0.753911616458E+02   -0.73183E-03   -0.73137E-03 12248   0.486E-01    0.100E+01
DAV:   6    -0.732392074381E+02    0.21520E+01   -0.14112E+00 10544   0.685E+00    0.544E+00
DAV:   7    -0.725134560248E+02    0.72575E+00   -0.15753E+00 10824   0.745E+00    0.707E-01
DAV:   8    -0.725213529942E+02   -0.78970E-02   -0.30115E-02 11816   0.102E+00    0.828E-02
DAV:   9    -0.725215555245E+02   -0.20253E-03   -0.42176E-04 11296   0.140E-01    0.288E-02
DAV:  10    -0.725216067549E+02   -0.51230E-04   -0.42006E-05 11880   0.500E-02    0.274E-03
DAV:  11    -0.725216074398E+02   -0.68489E-06   -0.10142E-06  8696   0.716E-03
   1 F= -.72521607E+02 E0= -.72521607E+02  d E =0.000000E+00
