 vasp.5.4.4.18Apr17-6-g9f103f2a35 (build Mar 12 2022 03:36:41) complex          
  
 executed on IFC19.0.3.199_CrayMP date 2022.12.01  10:18:05
 running on   16 total cores
 distrk:  each k-point on   16 cores,    1 groups
 distr:  one band on NCORES_PER_BAND=   4 cores,    4 groups


--------------------------------------------------------------------------------------------------------


 INCAR:
 POTCAR:   PAW_PBE C 08Apr2002                    
 POTCAR:   PAW_PBE C 08Apr2002                    
   VRHFIN =C: s2p2                                                              
   LEXCH  = PE                                                                  
   EATOM  =   147.1560 eV,   10.8157 Ry                                         
                                                                                
   TITEL  = PAW_PBE C 08Apr2002                                                 
   LULTRA =        F    use ultrasoft PP ?                                      
   IUNSCR =        0    unscreen: 0-lin 1-nonlin 2-no                           
   RPACOR =     .000    partial core radius                                     
   POMASS =   12.011; ZVAL   =    4.000    mass and valenz                      
   RCORE  =    1.500    outmost cutoff radius                                   
   RWIGS  =    1.630; RWIGS  =     .863    wigner-seitz radius (au A)           
   ENMAX  =  400.000; ENMIN  =  300.000 eV                                      
   ICORE  =        2    local potential                                         
   LCOR   =        T    correct aug charges                                     
   LPAW   =        T    paw PP                                                  
   EAUG   =  644.873                                                            
   DEXC   =     .000                                                            
   RMAX   =    2.266    core radius for proj-oper                               
   RAUG   =    1.300    factor for augmentation sphere                          
   RDEP   =    1.501    radius for radial grids                                 
   RDEPT  =    1.300    core radius for aug-charge                              
   QCUT   =   -5.516; QGAM   =   11.032    optimization parameters              
                                                                                
   Description                                                                  
     l     E      TYP  RCUT    TYP  RCUT                                        
     0   .000     23  1.200                                                     
     0   .000     23  1.200                                                     
     1   .000     23  1.500                                                     
     1  2.500     23  1.500                                                     
     2   .000      7  1.500                                                     
  local pseudopotential read in
  atomic valenz-charges read in
  non local Contribution for L=           0  read in
    real space projection operators read in
  non local Contribution for L=           0  read in
    real space projection operators read in
  non local Contribution for L=           1  read in
    real space projection operators read in
  non local Contribution for L=           1  read in
    real space projection operators read in
    PAW grid and wavefunctions read in
 
   number of l-projection  operators is LMAX  =           4
   number of lm-projection operators is LMMAX =           8
 
 PAW_PBE C 08Apr2002                    :
 energy of atom  1       EATOM= -147.1560
 kinetic energy error for atom=    0.0288 (will be added to EATOM!!)
 
 
 POSCAR: C8                                      
  positions in direct lattice
  No initial velocities read in
 exchange correlation table for  LEXCH =        8
   RHO(1)=    0.500       N(1)  =     2000
   RHO(2)=  100.500       N(2)  =     4000
 


--------------------------------------------------------------------------------------------------------


 ion  position               nearest neighbor table
   1  0.250  0.750  0.250-   2 1.52   4 1.52   6 1.52   8 1.52
   2  0.000  0.000  0.500-   1 1.52   3 1.52   5 1.52   7 1.52
   3  0.250  0.250  0.750-   2 1.52   4 1.52   6 1.52   8 1.52
   4  0.000  0.500  0.000-   1 1.52   3 1.52   5 1.52   7 1.52
   5  0.750  0.750  0.750-   2 1.52   4 1.52   6 1.52   8 1.52
   6  0.500  0.000  0.000-   1 1.52   3 1.52   5 1.52   7 1.52
   7  0.750  0.250  0.250-   2 1.52   4 1.52   6 1.52   8 1.52
   8  0.500  0.500  0.500-   1 1.52   3 1.52   5 1.52   7 1.52
 
  LATTYP: Found a simple tetragonal cell.
 ALAT       =     3.4806331177
 C/A-ratio  =     1.0314213643
  
  Lattice vectors:
  
 A1 = (   3.4806331177,   0.0000000000,   0.0000000000)
 A2 = (   0.0000000000,   3.4806331177,   0.0000000000)
 A3 = (   0.0000000000,   0.0000000000,   3.5899993590)


Analysis of symmetry for initial positions (statically):
=====================================================================
 Subroutine PRICEL returns following result:
 
  LATTYP: Found a body centered tetragonal cell.
 ALAT       =     2.4611792803
 C/A-ratio  =     1.4586500820
  
  Lattice vectors:
  
 A1 = (   0.0000000000,  -1.7403165588,   1.7949996795)
 A2 = (   0.0000000000,   1.7403165588,   1.7949996795)
 A3 = (  -1.7403165588,   0.0000000000,  -1.7949996795)
 
   4 primitive cells build up your supercell.
 

 Routine SETGRP: Setting up the symmetry group for a 
 simple tetragonal supercell.


 Subroutine GETGRP returns: Found 16 space group operations
 (whereof  8 operations were pure point group operations)
 out of a pool of 16 trial point group operations.


The static configuration has the point symmetry D_2d.
 The point group associated with its full space group is D_4h.


Analysis of symmetry for dynamics (positions and initial velocities):
=====================================================================
 Subroutine PRICEL returns following result:
 
  LATTYP: Found a body centered tetragonal cell.
 ALAT       =     2.4611792803
 C/A-ratio  =     1.4586500820
  
  Lattice vectors:
  
 A1 = (   0.0000000000,  -1.7403165588,   1.7949996795)
 A2 = (   0.0000000000,   1.7403165588,   1.7949996795)
 A3 = (  -1.7403165588,   0.0000000000,  -1.7949996795)
 
   4 primitive cells build up your supercell.
 

 Routine SETGRP: Setting up the symmetry group for a 
 simple tetragonal supercell.


 Subroutine GETGRP returns: Found 16 space group operations
 (whereof  8 operations were pure point group operations)
 out of a pool of 16 trial point group operations.


The dynamic configuration has the point symmetry D_2d.
 The point group associated with its full space group is D_4h.


 Subroutine INISYM returns: Found 16 space group operations
 (whereof  8 operations are pure point group operations),
 and found     4 'primitive' translations

 
 
 KPOINTS: kpt_density=1000                        

Automatic generation of k-mesh.
Space group operators:
 irot       det(A)        alpha          n_x          n_y          n_z        tau_x        tau_y        tau_z
    1     1.000000     0.000000     1.000000     0.000000     0.000000     0.000000     0.000000     0.000000
    2    -1.000000    90.000000     0.000000     0.000000    -1.000000     0.000000     0.000000     0.000000
    3     1.000000   180.000000     0.000000     0.000000     1.000000     0.000000     0.000000     0.000000
    4    -1.000000    90.000000     0.000000     0.000000     1.000000     0.000000     0.000000     0.000000
    5     1.000000   180.000000     0.000000     1.000000     0.000000     0.000000     0.000000     0.000000
    6    -1.000000   180.000000     0.707107     0.707107     0.000000     0.000000     0.000000     0.000000
    7     1.000000   180.000000     1.000000     0.000000     0.000000     0.000000     0.000000     0.000000
    8    -1.000000   180.000000     0.707107    -0.707107     0.000000     0.000000     0.000000     0.000000
    9    -1.000000     0.000000     1.000000     0.000000     0.000000    -0.250000    -0.250000     0.250000
   10     1.000000    90.000000     0.000000     0.000000    -1.000000    -0.250000    -0.250000     0.250000
   11    -1.000000   180.000000     0.000000     0.000000     1.000000    -0.250000    -0.250000     0.250000
   12     1.000000    90.000000     0.000000     0.000000     1.000000    -0.250000    -0.250000     0.250000
   13    -1.000000   180.000000     0.000000     1.000000     0.000000    -0.250000    -0.250000     0.250000
   14     1.000000   180.000000     0.707107     0.707107     0.000000    -0.250000    -0.250000     0.250000
   15    -1.000000   180.000000     1.000000     0.000000     0.000000    -0.250000    -0.250000     0.250000
   16     1.000000   180.000000     0.707107    -0.707107     0.000000    -0.250000    -0.250000     0.250000
 
 Subroutine IBZKPT returns following result:
 ===========================================
 
 Found    196 irreducible k-points:
 
 Following reciprocal coordinates:
            Coordinates               Weight
  0.000000  0.000000  0.000000      1.000000
  0.083333  0.000000  0.000000      4.000000
  0.166667  0.000000  0.000000      4.000000
  0.250000  0.000000  0.000000      4.000000
  0.333333  0.000000  0.000000      4.000000
  0.416667  0.000000  0.000000      4.000000
  0.500000  0.000000  0.000000      2.000000
  0.083333  0.083333  0.000000      4.000000
  0.166667  0.083333  0.000000      8.000000
  0.250000  0.083333  0.000000      8.000000
  0.333333  0.083333  0.000000      8.000000
  0.416667  0.083333  0.000000      8.000000
  0.500000  0.083333  0.000000      4.000000
  0.166667  0.166667  0.000000      4.000000
  0.250000  0.166667  0.000000      8.000000
  0.333333  0.166667  0.000000      8.000000
  0.416667  0.166667  0.000000      8.000000
  0.500000  0.166667  0.000000      4.000000
  0.250000  0.250000  0.000000      4.000000
  0.333333  0.250000  0.000000      8.000000
  0.416667  0.250000  0.000000      8.000000
  0.500000  0.250000  0.000000      4.000000
  0.333333  0.333333  0.000000      4.000000
  0.416667  0.333333  0.000000      8.000000
  0.500000  0.333333  0.000000      4.000000
  0.416667  0.416667  0.000000      4.000000
  0.500000  0.416667  0.000000      4.000000
  0.500000  0.500000  0.000000      1.000000
  0.000000  0.000000  0.083333      2.000000
  0.083333  0.000000  0.083333      8.000000
  0.166667  0.000000  0.083333      8.000000
  0.250000  0.000000  0.083333      8.000000
  0.333333  0.000000  0.083333      8.000000
  0.416667  0.000000  0.083333      8.000000
  0.500000  0.000000  0.083333      4.000000
  0.083333  0.083333  0.083333      8.000000
  0.166667  0.083333  0.083333     16.000000
  0.250000  0.083333  0.083333     16.000000
  0.333333  0.083333  0.083333     16.000000
  0.416667  0.083333  0.083333     16.000000
  0.500000  0.083333  0.083333      8.000000
  0.166667  0.166667  0.083333      8.000000
  0.250000  0.166667  0.083333     16.000000
  0.333333  0.166667  0.083333     16.000000
  0.416667  0.166667  0.083333     16.000000
  0.500000  0.166667  0.083333      8.000000
  0.250000  0.250000  0.083333      8.000000
  0.333333  0.250000  0.083333     16.000000
  0.416667  0.250000  0.083333     16.000000
  0.500000  0.250000  0.083333      8.000000
  0.333333  0.333333  0.083333      8.000000
  0.416667  0.333333  0.083333     16.000000
  0.500000  0.333333  0.083333      8.000000
  0.416667  0.416667  0.083333      8.000000
  0.500000  0.416667  0.083333      8.000000
  0.500000  0.500000  0.083333      2.000000
  0.000000  0.000000  0.166667      2.000000
  0.083333  0.000000  0.166667      8.000000
  0.166667  0.000000  0.166667      8.000000
  0.250000  0.000000  0.166667      8.000000
  0.333333  0.000000  0.166667      8.000000
  0.416667  0.000000  0.166667      8.000000
  0.500000  0.000000  0.166667      4.000000
  0.083333  0.083333  0.166667      8.000000
  0.166667  0.083333  0.166667     16.000000
  0.250000  0.083333  0.166667     16.000000
  0.333333  0.083333  0.166667     16.000000
  0.416667  0.083333  0.166667     16.000000
  0.500000  0.083333  0.166667      8.000000
  0.166667  0.166667  0.166667      8.000000
  0.250000  0.166667  0.166667     16.000000
  0.333333  0.166667  0.166667     16.000000
  0.416667  0.166667  0.166667     16.000000
  0.500000  0.166667  0.166667      8.000000
  0.250000  0.250000  0.166667      8.000000
  0.333333  0.250000  0.166667     16.000000
  0.416667  0.250000  0.166667     16.000000
  0.500000  0.250000  0.166667      8.000000
  0.333333  0.333333  0.166667      8.000000
  0.416667  0.333333  0.166667     16.000000
  0.500000  0.333333  0.166667      8.000000
  0.416667  0.416667  0.166667      8.000000
  0.500000  0.416667  0.166667      8.000000
  0.500000  0.500000  0.166667      2.000000
  0.000000  0.000000  0.250000      2.000000
  0.083333  0.000000  0.250000      8.000000
  0.166667  0.000000  0.250000      8.000000
  0.250000  0.000000  0.250000      8.000000
  0.333333  0.000000  0.250000      8.000000
  0.416667  0.000000  0.250000      8.000000
  0.500000  0.000000  0.250000      4.000000
  0.083333  0.083333  0.250000      8.000000
  0.166667  0.083333  0.250000     16.000000
  0.250000  0.083333  0.250000     16.000000
  0.333333  0.083333  0.250000     16.000000
  0.416667  0.083333  0.250000     16.000000
  0.500000  0.083333  0.250000      8.000000
  0.166667  0.166667  0.250000      8.000000
  0.250000  0.166667  0.250000     16.000000
  0.333333  0.166667  0.250000     16.000000
  0.416667  0.166667  0.250000     16.000000
  0.500000  0.166667  0.250000      8.000000
  0.250000  0.250000  0.250000      8.000000
  0.333333  0.250000  0.250000     16.000000
  0.416667  0.250000  0.250000     16.000000
  0.500000  0.250000  0.250000      8.000000
  0.333333  0.333333  0.250000      8.000000
  0.416667  0.333333  0.250000     16.000000
  0.500000  0.333333  0.250000      8.000000
  0.416667  0.416667  0.250000      8.000000
  0.500000  0.416667  0.250000      8.000000
  0.500000  0.500000  0.250000      2.000000
  0.000000  0.000000  0.333333      2.000000
  0.083333  0.000000  0.333333      8.000000
  0.166667  0.000000  0.333333      8.000000
  0.250000  0.000000  0.333333      8.000000
  0.333333  0.000000  0.333333      8.000000
  0.416667  0.000000  0.333333      8.000000
  0.500000  0.000000  0.333333      4.000000
  0.083333  0.083333  0.333333      8.000000
  0.166667  0.083333  0.333333     16.000000
  0.250000  0.083333  0.333333     16.000000
  0.333333  0.083333  0.333333     16.000000
  0.416667  0.083333  0.333333     16.000000
  0.500000  0.083333  0.333333      8.000000
  0.166667  0.166667  0.333333      8.000000
  0.250000  0.166667  0.333333     16.000000
  0.333333  0.166667  0.333333     16.000000
  0.416667  0.166667  0.333333     16.000000
  0.500000  0.166667  0.333333      8.000000
  0.250000  0.250000  0.333333      8.000000
  0.333333  0.250000  0.333333     16.000000
  0.416667  0.250000  0.333333     16.000000
  0.500000  0.250000  0.333333      8.000000
  0.333333  0.333333  0.333333      8.000000
  0.416667  0.333333  0.333333     16.000000
  0.500000  0.333333  0.333333      8.000000
  0.416667  0.416667  0.333333      8.000000
  0.500000  0.416667  0.333333      8.000000
  0.500000  0.500000  0.333333      2.000000
  0.000000  0.000000  0.416667      2.000000
  0.083333  0.000000  0.416667      8.000000
  0.166667  0.000000  0.416667      8.000000
  0.250000  0.000000  0.416667      8.000000
  0.333333  0.000000  0.416667      8.000000
  0.416667  0.000000  0.416667      8.000000
  0.500000  0.000000  0.416667      4.000000
  0.083333  0.083333  0.416667      8.000000
  0.166667  0.083333  0.416667     16.000000
  0.250000  0.083333  0.416667     16.000000
  0.333333  0.083333  0.416667     16.000000
  0.416667  0.083333  0.416667     16.000000
  0.500000  0.083333  0.416667      8.000000
  0.166667  0.166667  0.416667      8.000000
  0.250000  0.166667  0.416667     16.000000
  0.333333  0.166667  0.416667     16.000000
  0.416667  0.166667  0.416667     16.000000
  0.500000  0.166667  0.416667      8.000000
  0.250000  0.250000  0.416667      8.000000
  0.333333  0.250000  0.416667     16.000000
  0.416667  0.250000  0.416667     16.000000
  0.500000  0.250000  0.416667      8.000000
  0.333333  0.333333  0.416667      8.000000
  0.416667  0.333333  0.416667     16.000000
  0.500000  0.333333  0.416667      8.000000
  0.416667  0.416667  0.416667      8.000000
  0.500000  0.416667  0.416667      8.000000
  0.500000  0.500000  0.416667      2.000000
  0.000000  0.000000  0.500000      1.000000
  0.083333  0.000000  0.500000      4.000000
  0.166667  0.000000  0.500000      4.000000
  0.250000  0.000000  0.500000      4.000000
  0.333333  0.000000  0.500000      4.000000
  0.416667  0.000000  0.500000      4.000000
  0.500000  0.000000  0.500000      2.000000
  0.083333  0.083333  0.500000      4.000000
  0.166667  0.083333  0.500000      8.000000
  0.250000  0.083333  0.500000      8.000000
  0.333333  0.083333  0.500000      8.000000
  0.416667  0.083333  0.500000      8.000000
  0.500000  0.083333  0.500000      4.000000
  0.166667  0.166667  0.500000      4.000000
  0.250000  0.166667  0.500000      8.000000
  0.333333  0.166667  0.500000      8.000000
  0.416667  0.166667  0.500000      8.000000
  0.500000  0.166667  0.500000      4.000000
  0.250000  0.250000  0.500000      4.000000
  0.333333  0.250000  0.500000      8.000000
  0.416667  0.250000  0.500000      8.000000
  0.500000  0.250000  0.500000      4.000000
  0.333333  0.333333  0.500000      4.000000
  0.416667  0.333333  0.500000      8.000000
  0.500000  0.333333  0.500000      4.000000
  0.416667  0.416667  0.500000      4.000000
  0.500000  0.416667  0.500000      4.000000
  0.500000  0.500000  0.500000      1.000000
 
 Following cartesian coordinates:
            Coordinates               Weight
  0.000000  0.000000  0.000000      1.000000
  0.024051  0.000000  0.000000      4.000000
  0.048102  0.000000  0.000000      4.000000
  0.072153  0.000000  0.000000      4.000000
  0.096205  0.000000  0.000000      4.000000
  0.120256  0.000000  0.000000      4.000000
  0.144307  0.000000  0.000000      2.000000
  0.024051  0.024051  0.000000      4.000000
  0.048102  0.024051  0.000000      8.000000
  0.072153  0.024051  0.000000      8.000000
  0.096205  0.024051  0.000000      8.000000
  0.120256  0.024051  0.000000      8.000000
  0.144307  0.024051  0.000000      4.000000
  0.048102  0.048102  0.000000      4.000000
  0.072153  0.048102  0.000000      8.000000
  0.096205  0.048102  0.000000      8.000000
  0.120256  0.048102  0.000000      8.000000
  0.144307  0.048102  0.000000      4.000000
  0.072153  0.072153  0.000000      4.000000
  0.096205  0.072153  0.000000      8.000000
  0.120256  0.072153  0.000000      8.000000
  0.144307  0.072153  0.000000      4.000000
  0.096205  0.096205  0.000000      4.000000
  0.120256  0.096205  0.000000      8.000000
  0.144307  0.096205  0.000000      4.000000
  0.120256  0.120256  0.000000      4.000000
  0.144307  0.120256  0.000000      4.000000
  0.144307  0.144307  0.000000      1.000000
  0.000000  0.000000  0.023318      2.000000
  0.024051  0.000000  0.023318      8.000000
  0.048102  0.000000  0.023318      8.000000
  0.072153  0.000000  0.023318      8.000000
  0.096205  0.000000  0.023318      8.000000
  0.120256  0.000000  0.023318      8.000000
  0.144307  0.000000  0.023318      4.000000
  0.024051  0.024051  0.023318      8.000000
  0.048102  0.024051  0.023318     16.000000
  0.072153  0.024051  0.023318     16.000000
  0.096205  0.024051  0.023318     16.000000
  0.120256  0.024051  0.023318     16.000000
  0.144307  0.024051  0.023318      8.000000
  0.048102  0.048102  0.023318      8.000000
  0.072153  0.048102  0.023318     16.000000
  0.096205  0.048102  0.023318     16.000000
  0.120256  0.048102  0.023318     16.000000
  0.144307  0.048102  0.023318      8.000000
  0.072153  0.072153  0.023318      8.000000
  0.096205  0.072153  0.023318     16.000000
  0.120256  0.072153  0.023318     16.000000
  0.144307  0.072153  0.023318      8.000000
  0.096205  0.096205  0.023318      8.000000
  0.120256  0.096205  0.023318     16.000000
  0.144307  0.096205  0.023318      8.000000
  0.120256  0.120256  0.023318      8.000000
  0.144307  0.120256  0.023318      8.000000
  0.144307  0.144307  0.023318      2.000000
  0.000000  0.000000  0.046637      2.000000
  0.024051  0.000000  0.046637      8.000000
  0.048102  0.000000  0.046637      8.000000
  0.072153  0.000000  0.046637      8.000000
  0.096205  0.000000  0.046637      8.000000
  0.120256  0.000000  0.046637      8.000000
  0.144307  0.000000  0.046637      4.000000
  0.024051  0.024051  0.046637      8.000000
  0.048102  0.024051  0.046637     16.000000
  0.072153  0.024051  0.046637     16.000000
  0.096205  0.024051  0.046637     16.000000
  0.120256  0.024051  0.046637     16.000000
  0.144307  0.024051  0.046637      8.000000
  0.048102  0.048102  0.046637      8.000000
  0.072153  0.048102  0.046637     16.000000
  0.096205  0.048102  0.046637     16.000000
  0.120256  0.048102  0.046637     16.000000
  0.144307  0.048102  0.046637      8.000000
  0.072153  0.072153  0.046637      8.000000
  0.096205  0.072153  0.046637     16.000000
  0.120256  0.072153  0.046637     16.000000
  0.144307  0.072153  0.046637      8.000000
  0.096205  0.096205  0.046637      8.000000
  0.120256  0.096205  0.046637     16.000000
  0.144307  0.096205  0.046637      8.000000
  0.120256  0.120256  0.046637      8.000000
  0.144307  0.120256  0.046637      8.000000
  0.144307  0.144307  0.046637      2.000000
  0.000000  0.000000  0.069955      2.000000
  0.024051  0.000000  0.069955      8.000000
  0.048102  0.000000  0.069955      8.000000
  0.072153  0.000000  0.069955      8.000000
  0.096205  0.000000  0.069955      8.000000
  0.120256  0.000000  0.069955      8.000000
  0.144307  0.000000  0.069955      4.000000
  0.024051  0.024051  0.069955      8.000000
  0.048102  0.024051  0.069955     16.000000
  0.072153  0.024051  0.069955     16.000000
  0.096205  0.024051  0.069955     16.000000
  0.120256  0.024051  0.069955     16.000000
  0.144307  0.024051  0.069955      8.000000
  0.048102  0.048102  0.069955      8.000000
  0.072153  0.048102  0.069955     16.000000
  0.096205  0.048102  0.069955     16.000000
  0.120256  0.048102  0.069955     16.000000
  0.144307  0.048102  0.069955      8.000000
  0.072153  0.072153  0.069955      8.000000
  0.096205  0.072153  0.069955     16.000000
  0.120256  0.072153  0.069955     16.000000
  0.144307  0.072153  0.069955      8.000000
  0.096205  0.096205  0.069955      8.000000
  0.120256  0.096205  0.069955     16.000000
  0.144307  0.096205  0.069955      8.000000
  0.120256  0.120256  0.069955      8.000000
  0.144307  0.120256  0.069955      8.000000
  0.144307  0.144307  0.069955      2.000000
  0.000000  0.000000  0.093274      2.000000
  0.024051  0.000000  0.093274      8.000000
  0.048102  0.000000  0.093274      8.000000
  0.072153  0.000000  0.093274      8.000000
  0.096205  0.000000  0.093274      8.000000
  0.120256  0.000000  0.093274      8.000000
  0.144307  0.000000  0.093274      4.000000
  0.024051  0.024051  0.093274      8.000000
  0.048102  0.024051  0.093274     16.000000
  0.072153  0.024051  0.093274     16.000000
  0.096205  0.024051  0.093274     16.000000
  0.120256  0.024051  0.093274     16.000000
  0.144307  0.024051  0.093274      8.000000
  0.048102  0.048102  0.093274      8.000000
  0.072153  0.048102  0.093274     16.000000
  0.096205  0.048102  0.093274     16.000000
  0.120256  0.048102  0.093274     16.000000
  0.144307  0.048102  0.093274      8.000000
  0.072153  0.072153  0.093274      8.000000
  0.096205  0.072153  0.093274     16.000000
  0.120256  0.072153  0.093274     16.000000
  0.144307  0.072153  0.093274      8.000000
  0.096205  0.096205  0.093274      8.000000
  0.120256  0.096205  0.093274     16.000000
  0.144307  0.096205  0.093274      8.000000
  0.120256  0.120256  0.093274      8.000000
  0.144307  0.120256  0.093274      8.000000
  0.144307  0.144307  0.093274      2.000000
  0.000000  0.000000  0.116592      2.000000
  0.024051  0.000000  0.116592      8.000000
  0.048102  0.000000  0.116592      8.000000
  0.072153  0.000000  0.116592      8.000000
  0.096205  0.000000  0.116592      8.000000
  0.120256  0.000000  0.116592      8.000000
  0.144307  0.000000  0.116592      4.000000
  0.024051  0.024051  0.116592      8.000000
  0.048102  0.024051  0.116592     16.000000
  0.072153  0.024051  0.116592     16.000000
  0.096205  0.024051  0.116592     16.000000
  0.120256  0.024051  0.116592     16.000000
  0.144307  0.024051  0.116592      8.000000
  0.048102  0.048102  0.116592      8.000000
  0.072153  0.048102  0.116592     16.000000
  0.096205  0.048102  0.116592     16.000000
  0.120256  0.048102  0.116592     16.000000
  0.144307  0.048102  0.116592      8.000000
  0.072153  0.072153  0.116592      8.000000
  0.096205  0.072153  0.116592     16.000000
  0.120256  0.072153  0.116592     16.000000
  0.144307  0.072153  0.116592      8.000000
  0.096205  0.096205  0.116592      8.000000
  0.120256  0.096205  0.116592     16.000000
  0.144307  0.096205  0.116592      8.000000
  0.120256  0.120256  0.116592      8.000000
  0.144307  0.120256  0.116592      8.000000
  0.144307  0.144307  0.116592      2.000000
  0.000000  0.000000  0.139911      1.000000
  0.024051  0.000000  0.139911      4.000000
  0.048102  0.000000  0.139911      4.000000
  0.072153  0.000000  0.139911      4.000000
  0.096205  0.000000  0.139911      4.000000
  0.120256  0.000000  0.139911      4.000000
  0.144307  0.000000  0.139911      2.000000
  0.024051  0.024051  0.139911      4.000000
  0.048102  0.024051  0.139911      8.000000
  0.072153  0.024051  0.139911      8.000000
  0.096205  0.024051  0.139911      8.000000
  0.120256  0.024051  0.139911      8.000000
  0.144307  0.024051  0.139911      4.000000
  0.048102  0.048102  0.139911      4.000000
  0.072153  0.048102  0.139911      8.000000
  0.096205  0.048102  0.139911      8.000000
  0.120256  0.048102  0.139911      8.000000
  0.144307  0.048102  0.139911      4.000000
  0.072153  0.072153  0.139911      4.000000
  0.096205  0.072153  0.139911      8.000000
  0.120256  0.072153  0.139911      8.000000
  0.144307  0.072153  0.139911      4.000000
  0.096205  0.096205  0.139911      4.000000
  0.120256  0.096205  0.139911      8.000000
  0.144307  0.096205  0.139911      4.000000
  0.120256  0.120256  0.139911      4.000000
  0.144307  0.120256  0.139911      4.000000
  0.144307  0.144307  0.139911      1.000000
 
 TETIRR: Found   2592 inequivalent tetrahedra from    10368


--------------------------------------------------------------------------------------------------------




 Dimension of arrays:
   k-points           NKPTS =    196   k-points in BZ     NKDIM =    196   number of bands    NBANDS=     24
   number of dos      NEDOS =    301   number of ions     NIONS =      8
   non local maximal  LDIM  =      4   non local SUM 2l+1 LMDIM =      8
   total plane-waves  NPLWV =  13824
   max r-space proj   IRMAX =      1   max aug-charges    IRDMAX=   3950
   dimension x,y,z NGX =    24 NGY =   24 NGZ =   24
   dimension x,y,z NGXF=    48 NGYF=   48 NGZF=   48
   support grid    NGXF=    48 NGYF=   48 NGZF=   48
   ions per type =               8
   NGX,Y,Z   is equivalent  to a cutoff of  11.46, 11.46, 11.11 a.u.
   NGXF,Y,Z  is equivalent  to a cutoff of  22.93, 22.93, 22.23 a.u.

 SYSTEM =  unknown system                          
 POSCAR =  C8                                      

 Startparameter for this run:
   NWRITE =      2    write-flag & timer
   PREC   = accura    normal or accurate (medium, high low for compatibility)
   ISTART =      0    job   : 0-new  1-cont  2-samecut
   ICHARG =      2    charge: 1-file 2-atom 10-const
   ISPIN  =      1    spin polarized calculation?
   LNONCOLLINEAR =      F non collinear calculations
   LSORBIT =      F    spin-orbit coupling
   INIWAV =      1    electr: 0-lowe 1-rand  2-diag
   LASPH  =      F    aspherical Exc in radial PAW
   METAGGA=      F    non-selfconsistent MetaGGA calc.

 Electronic Relaxation 1
   ENCUT  =  400.0 eV  29.40 Ry    5.42 a.u.   5.68  5.68  5.85*2*pi/ulx,y,z
   ENINI  =  400.0     initial cutoff
   ENAUG  =  644.9 eV  augmentation charge cutoff
   NELM   =     60;   NELMIN=  2; NELMDL= -5     # of ELM steps 
   EDIFF  = 0.1E-05   stopping-criterion for ELM
   LREAL  =      F    real-space projection
   NLSPLINE    = F    spline interpolate recip. space projectors
   LCOMPAT=      F    compatible to vasp.4.4
   GGA_COMPAT  = T    GGA compatible to vasp.4.4-vasp.4.6
   LMAXPAW     = -100 max onsite density
   LMAXMIX     =    2 max onsite mixed and CHGCAR
   VOSKOWN=      0    Vosko Wilk Nusair interpolation
   ROPT   =    0.00000
 Ionic relaxation
   EDIFFG = 0.1E-04   stopping-criterion for IOM
   NSW    =      0    number of steps for IOM
   NBLOCK =      1;   KBLOCK =      1    inner block; outer block 
   IBRION =     -1    ionic relax: 0-MD 1-quasi-New 2-CG
   NFREE  =      0    steps in history (QN), initial steepest desc. (CG)
   ISIF   =      2    stress and relaxation
   IWAVPR =     10    prediction:  0-non 1-charg 2-wave 3-comb
   ISYM   =      2    0-nonsym 1-usesym 2-fastsym
   LCORR  =      T    Harris-Foulkes like correction to forces

   POTIM  = 0.0200    time-step for ionic-motion
   TEIN   =    0.0    initial temperature
   TEBEG  =    0.0;   TEEND  =   0.0 temperature during run
   SMASS  =  -3.00    Nose mass-parameter (am)
   estimated Nose-frequenzy (Omega)   =  0.10E-29 period in steps =****** mass=  -0.277E-27a.u.
   SCALEE = 1.0000    scale energy and forces
   NPACO  =    256;   APACO  = 16.0  distance and # of slots for P.C.
   PSTRESS=    0.0 pullay stress

  Mass of Ions in am
   POMASS =  12.01
  Ionic Valenz
   ZVAL   =   4.00
  Atomic Wigner-Seitz radii
   RWIGS  =  -1.00
  virtual crystal weights 
   VCA    =   1.00
   NELECT =      32.0000    total number of electrons
   NUPDOWN=      -1.0000    fix difference up-down

 DOS related values:
   EMIN   =  10.00;   EMAX   =-10.00  energy-range for DOS
   EFERMI =   0.00
   ISMEAR =    -5;   SIGMA  =   0.06  broadening in eV -4-tet -1-fermi 0-gaus

 Electronic relaxation 2 (details)
   IALGO  =     38    algorithm
   LDIAG  =      T    sub-space diagonalisation (order eigenvalues)
   LSUBROT=      F    optimize rotation matrix (better conditioning)
   TURBO    =      0    0=normal 1=particle mesh
   IRESTART =      0    0=no restart 2=restart with 2 vectors
   NREBOOT  =      0    no. of reboots
   NMIN     =      0    reboot dimension
   EREF     =   0.00    reference energy to select bands
   IMIX   =      4    mixing-type and parameters
     AMIX     =   0.40;   BMIX     =  1.00
     AMIX_MAG =   1.60;   BMIX_MAG =  1.00
     AMIN     =   0.10
     WC   =   100.;   INIMIX=   1;  MIXPRE=   1;  MAXMIX= -45

 Intra band minimization:
   WEIMIN = 0.0000     energy-eigenvalue tresh-hold
   EBREAK =  0.10E-07  absolut break condition
   DEPER  =   0.30     relativ break condition  

   TIME   =   0.40     timestep for ELM

  volume/ion in A,a.u.               =       5.44        36.69
  Fermi-wavevector in a.u.,A,eV,Ry     =   1.477932  2.792887 29.718986  2.184284
  Thomas-Fermi vector in A             =   2.592276
 
 Write flags
   LWAVE        =      F    write WAVECAR
   LDOWNSAMPLE  =      F    k-point downsampling of WAVECAR
   LCHARG       =      F    write CHGCAR
   LVTOT        =      F    write LOCPOT, total local potential
   LVHAR        =      F    write LOCPOT, Hartree potential only
   LELF         =      F    write electronic localiz. function (ELF)
   LORBIT       =      0    0 simple, 1 ext, 2 COOP (PROOUT), +10 PAW based schemes


 Dipole corrections
   LMONO  =      F    monopole corrections only (constant potential shift)
   LDIPOL =      F    correct potential (dipole corrections)
   IDIPOL =      0    1-x, 2-y, 3-z, 4-all directions 
   EPSILON=  1.0000000 bulk dielectric constant

 Exchange correlation treatment:
   GGA     =    --    GGA type
   LEXCH   =     8    internal setting for exchange type
   VOSKOWN=      0    Vosko Wilk Nusair interpolation
   LHFCALC =     F    Hartree Fock is set to
   LHFONE  =     F    Hartree Fock one center treatment
   AEXX    =    0.0000 exact exchange contribution

 Linear response parameters
   LEPSILON=     F    determine dielectric tensor
   LRPA    =     F    only Hartree local field effects (RPA)
   LNABLA  =     F    use nabla operator in PAW spheres
   LVEL    =     F    velocity operator in full k-point grid
   LINTERFAST=   F  fast interpolation
   KINTER  =     0    interpolate to denser k-point grid
   CSHIFT  =0.1000    complex shift for real part using Kramers Kronig
   OMEGAMAX=  -1.0    maximum frequency
   DEG_THRESHOLD= 0.2000000E-02 threshold for treating states as degnerate
   RTIME   =   -0.100 relaxation time in fs
  (WPLASMAI=    0.000 imaginary part of plasma frequency in eV, 0.658/RTIME)
   DFIELD  = 0.0000000 0.0000000 0.0000000 field for delta impulse in time
 
 Orbital magnetization related:
   ORBITALMAG=     F  switch on orbital magnetization
   LCHIMAG   =     F  perturbation theory with respect to B field
   DQ        =  0.001000  dq finite difference perturbation B field
   LLRAUG    =     F  two centre corrections for induced B field



--------------------------------------------------------------------------------------------------------


 Static calculation
 charge density and potential will be updated during run
 non-spin polarized calculation
 Variant of blocked Davidson
 Davidson routine will perform the subspace rotation
 perform sub-space diagonalisation
    after iterative eigenvector-optimisation
 modified Broyden-mixing scheme, WC =      100.0
 initial mixing is a Kerker type mixing with AMIX =  0.4000 and BMIX =      1.0000
 Hartree-type preconditioning will be used
 using additional bands            8
 reciprocal scheme for non local part
 calculate Harris-corrections to forces 
   (improved forces if not selfconsistent)
 use gradient corrections 
 use of overlap-Matrix (Vanderbilt PP)
 Fermi weights with tetrahedron method with Bloechl corrections


--------------------------------------------------------------------------------------------------------


  energy-cutoff  :      400.00
  volume of cell :       43.49
      direct lattice vectors                 reciprocal lattice vectors
     3.480633118  0.000000000  0.000000000     0.287304053  0.000000000  0.000000000
     0.000000000  3.480633118  0.000000000     0.000000000  0.287304053  0.000000000
     0.000000000  0.000000000  3.589999359     0.000000000  0.000000000  0.278551582

  length of vectors
     3.480633118  3.480633118  3.589999359     0.287304053  0.287304053  0.278551582


 
 k-points in units of 2pi/SCALE and weight: kpt_density=1000                        
   0.00000000  0.00000000  0.00000000       0.001
   0.02405113  0.00000000  0.00000000       0.002
   0.04810227  0.00000000  0.00000000       0.002
   0.07215340  0.00000000  0.00000000       0.002
   0.09620454  0.00000000  0.00000000       0.002
   0.12025567  0.00000000  0.00000000       0.002
   0.14430681  0.00000000  0.00000000       0.001
   0.02405113  0.02405113  0.00000000       0.002
   0.04810227  0.02405113  0.00000000       0.005
   0.07215340  0.02405113  0.00000000       0.005
   0.09620454  0.02405113  0.00000000       0.005
   0.12025567  0.02405113  0.00000000       0.005
   0.14430681  0.02405113  0.00000000       0.002
   0.04810227  0.04810227  0.00000000       0.002
   0.07215340  0.04810227  0.00000000       0.005
   0.09620454  0.04810227  0.00000000       0.005
   0.12025567  0.04810227  0.00000000       0.005
   0.14430681  0.04810227  0.00000000       0.002
   0.07215340  0.07215340  0.00000000       0.002
   0.09620454  0.07215340  0.00000000       0.005
   0.12025567  0.07215340  0.00000000       0.005
   0.14430681  0.07215340  0.00000000       0.002
   0.09620454  0.09620454  0.00000000       0.002
   0.12025567  0.09620454  0.00000000       0.005
   0.14430681  0.09620454  0.00000000       0.002
   0.12025567  0.12025567  0.00000000       0.002
   0.14430681  0.12025567  0.00000000       0.002
   0.14430681  0.14430681  0.00000000       0.001
   0.00000000  0.00000000  0.02331844       0.001
   0.02405113  0.00000000  0.02331844       0.005
   0.04810227  0.00000000  0.02331844       0.005
   0.07215340  0.00000000  0.02331844       0.005
   0.09620454  0.00000000  0.02331844       0.005
   0.12025567  0.00000000  0.02331844       0.005
   0.14430681  0.00000000  0.02331844       0.002
   0.02405113  0.02405113  0.02331844       0.005
   0.04810227  0.02405113  0.02331844       0.009
   0.07215340  0.02405113  0.02331844       0.009
   0.09620454  0.02405113  0.02331844       0.009
   0.12025567  0.02405113  0.02331844       0.009
   0.14430681  0.02405113  0.02331844       0.005
   0.04810227  0.04810227  0.02331844       0.005
   0.07215340  0.04810227  0.02331844       0.009
   0.09620454  0.04810227  0.02331844       0.009
   0.12025567  0.04810227  0.02331844       0.009
   0.14430681  0.04810227  0.02331844       0.005
   0.07215340  0.07215340  0.02331844       0.005
   0.09620454  0.07215340  0.02331844       0.009
   0.12025567  0.07215340  0.02331844       0.009
   0.14430681  0.07215340  0.02331844       0.005
   0.09620454  0.09620454  0.02331844       0.005
   0.12025567  0.09620454  0.02331844       0.009
   0.14430681  0.09620454  0.02331844       0.005
   0.12025567  0.12025567  0.02331844       0.005
   0.14430681  0.12025567  0.02331844       0.005
   0.14430681  0.14430681  0.02331844       0.001
   0.00000000  0.00000000  0.04663688       0.001
   0.02405113  0.00000000  0.04663688       0.005
   0.04810227  0.00000000  0.04663688       0.005
   0.07215340  0.00000000  0.04663688       0.005
   0.09620454  0.00000000  0.04663688       0.005
   0.12025567  0.00000000  0.04663688       0.005
   0.14430681  0.00000000  0.04663688       0.002
   0.02405113  0.02405113  0.04663688       0.005
   0.04810227  0.02405113  0.04663688       0.009
   0.07215340  0.02405113  0.04663688       0.009
   0.09620454  0.02405113  0.04663688       0.009
   0.12025567  0.02405113  0.04663688       0.009
   0.14430681  0.02405113  0.04663688       0.005
   0.04810227  0.04810227  0.04663688       0.005
   0.07215340  0.04810227  0.04663688       0.009
   0.09620454  0.04810227  0.04663688       0.009
   0.12025567  0.04810227  0.04663688       0.009
   0.14430681  0.04810227  0.04663688       0.005
   0.07215340  0.07215340  0.04663688       0.005
   0.09620454  0.07215340  0.04663688       0.009
   0.12025567  0.07215340  0.04663688       0.009
   0.14430681  0.07215340  0.04663688       0.005
   0.09620454  0.09620454  0.04663688       0.005
   0.12025567  0.09620454  0.04663688       0.009
   0.14430681  0.09620454  0.04663688       0.005
   0.12025567  0.12025567  0.04663688       0.005
   0.14430681  0.12025567  0.04663688       0.005
   0.14430681  0.14430681  0.04663688       0.001
   0.00000000  0.00000000  0.06995531       0.001
   0.02405113  0.00000000  0.06995531       0.005
   0.04810227  0.00000000  0.06995531       0.005
   0.07215340  0.00000000  0.06995531       0.005
   0.09620454  0.00000000  0.06995531       0.005
   0.12025567  0.00000000  0.06995531       0.005
   0.14430681  0.00000000  0.06995531       0.002
   0.02405113  0.02405113  0.06995531       0.005
   0.04810227  0.02405113  0.06995531       0.009
   0.07215340  0.02405113  0.06995531       0.009
   0.09620454  0.02405113  0.06995531       0.009
   0.12025567  0.02405113  0.06995531       0.009
   0.14430681  0.02405113  0.06995531       0.005
   0.04810227  0.04810227  0.06995531       0.005
   0.07215340  0.04810227  0.06995531       0.009
   0.09620454  0.04810227  0.06995531       0.009
   0.12025567  0.04810227  0.06995531       0.009
   0.14430681  0.04810227  0.06995531       0.005
   0.07215340  0.07215340  0.06995531       0.005
   0.09620454  0.07215340  0.06995531       0.009
   0.12025567  0.07215340  0.06995531       0.009
   0.14430681  0.07215340  0.06995531       0.005
   0.09620454  0.09620454  0.06995531       0.005
   0.12025567  0.09620454  0.06995531       0.009
   0.14430681  0.09620454  0.06995531       0.005
   0.12025567  0.12025567  0.06995531       0.005
   0.14430681  0.12025567  0.06995531       0.005
   0.14430681  0.14430681  0.06995531       0.001
   0.00000000  0.00000000  0.09327375       0.001
   0.02405113  0.00000000  0.09327375       0.005
   0.04810227  0.00000000  0.09327375       0.005
   0.07215340  0.00000000  0.09327375       0.005
   0.09620454  0.00000000  0.09327375       0.005
   0.12025567  0.00000000  0.09327375       0.005
   0.14430681  0.00000000  0.09327375       0.002
   0.02405113  0.02405113  0.09327375       0.005
   0.04810227  0.02405113  0.09327375       0.009
   0.07215340  0.02405113  0.09327375       0.009
   0.09620454  0.02405113  0.09327375       0.009
   0.12025567  0.02405113  0.09327375       0.009
   0.14430681  0.02405113  0.09327375       0.005
   0.04810227  0.04810227  0.09327375       0.005
   0.07215340  0.04810227  0.09327375       0.009
   0.09620454  0.04810227  0.09327375       0.009
   0.12025567  0.04810227  0.09327375       0.009
   0.14430681  0.04810227  0.09327375       0.005
   0.07215340  0.07215340  0.09327375       0.005
   0.09620454  0.07215340  0.09327375       0.009
   0.12025567  0.07215340  0.09327375       0.009
   0.14430681  0.07215340  0.09327375       0.005
   0.09620454  0.09620454  0.09327375       0.005
   0.12025567  0.09620454  0.09327375       0.009
   0.14430681  0.09620454  0.09327375       0.005
   0.12025567  0.12025567  0.09327375       0.005
   0.14430681  0.12025567  0.09327375       0.005
   0.14430681  0.14430681  0.09327375       0.001
   0.00000000  0.00000000  0.11659219       0.001
   0.02405113  0.00000000  0.11659219       0.005
   0.04810227  0.00000000  0.11659219       0.005
   0.07215340  0.00000000  0.11659219       0.005
   0.09620454  0.00000000  0.11659219       0.005
   0.12025567  0.00000000  0.11659219       0.005
   0.14430681  0.00000000  0.11659219       0.002
   0.02405113  0.02405113  0.11659219       0.005
   0.04810227  0.02405113  0.11659219       0.009
   0.07215340  0.02405113  0.11659219       0.009
   0.09620454  0.02405113  0.11659219       0.009
   0.12025567  0.02405113  0.11659219       0.009
   0.14430681  0.02405113  0.11659219       0.005
   0.04810227  0.04810227  0.11659219       0.005
   0.07215340  0.04810227  0.11659219       0.009
   0.09620454  0.04810227  0.11659219       0.009
   0.12025567  0.04810227  0.11659219       0.009
   0.14430681  0.04810227  0.11659219       0.005
   0.07215340  0.07215340  0.11659219       0.005
   0.09620454  0.07215340  0.11659219       0.009
   0.12025567  0.07215340  0.11659219       0.009
   0.14430681  0.07215340  0.11659219       0.005
   0.09620454  0.09620454  0.11659219       0.005
   0.12025567  0.09620454  0.11659219       0.009
   0.14430681  0.09620454  0.11659219       0.005
   0.12025567  0.12025567  0.11659219       0.005
   0.14430681  0.12025567  0.11659219       0.005
   0.14430681  0.14430681  0.11659219       0.001
   0.00000000  0.00000000  0.13991063       0.001
   0.02405113  0.00000000  0.13991063       0.002
   0.04810227  0.00000000  0.13991063       0.002
   0.07215340  0.00000000  0.13991063       0.002
   0.09620454  0.00000000  0.13991063       0.002
   0.12025567  0.00000000  0.13991063       0.002
   0.14430681  0.00000000  0.13991063       0.001
   0.02405113  0.02405113  0.13991063       0.002
   0.04810227  0.02405113  0.13991063       0.005
   0.07215340  0.02405113  0.13991063       0.005
   0.09620454  0.02405113  0.13991063       0.005
   0.12025567  0.02405113  0.13991063       0.005
   0.14430681  0.02405113  0.13991063       0.002
   0.04810227  0.04810227  0.13991063       0.002
   0.07215340  0.04810227  0.13991063       0.005
   0.09620454  0.04810227  0.13991063       0.005
   0.12025567  0.04810227  0.13991063       0.005
   0.14430681  0.04810227  0.13991063       0.002
   0.07215340  0.07215340  0.13991063       0.002
   0.09620454  0.07215340  0.13991063       0.005
   0.12025567  0.07215340  0.13991063       0.005
   0.14430681  0.07215340  0.13991063       0.002
   0.09620454  0.09620454  0.13991063       0.002
   0.12025567  0.09620454  0.13991063       0.005
   0.14430681  0.09620454  0.13991063       0.002
   0.12025567  0.12025567  0.13991063       0.002
   0.14430681  0.12025567  0.13991063       0.002
   0.14430681  0.14430681  0.13991063       0.001
 
 k-points in reciprocal lattice and weights: kpt_density=1000                        
   0.00000000  0.00000000  0.00000000       0.001
   0.08333333  0.00000000  0.00000000       0.002
   0.16666667  0.00000000  0.00000000       0.002
   0.25000000  0.00000000  0.00000000       0.002
   0.33333333  0.00000000  0.00000000       0.002
   0.41666667  0.00000000  0.00000000       0.002
   0.50000000  0.00000000  0.00000000       0.001
   0.08333333  0.08333333  0.00000000       0.002
   0.16666667  0.08333333  0.00000000       0.005
   0.25000000  0.08333333  0.00000000       0.005
   0.33333333  0.08333333  0.00000000       0.005
   0.41666667  0.08333333  0.00000000       0.005
   0.50000000  0.08333333  0.00000000       0.002
   0.16666667  0.16666667  0.00000000       0.002
   0.25000000  0.16666667  0.00000000       0.005
   0.33333333  0.16666667  0.00000000       0.005
   0.41666667  0.16666667  0.00000000       0.005
   0.50000000  0.16666667  0.00000000       0.002
   0.25000000  0.25000000  0.00000000       0.002
   0.33333333  0.25000000  0.00000000       0.005
   0.41666667  0.25000000  0.00000000       0.005
   0.50000000  0.25000000  0.00000000       0.002
   0.33333333  0.33333333  0.00000000       0.002
   0.41666667  0.33333333  0.00000000       0.005
   0.50000000  0.33333333  0.00000000       0.002
   0.41666667  0.41666667  0.00000000       0.002
   0.50000000  0.41666667  0.00000000       0.002
   0.50000000  0.50000000  0.00000000       0.001
   0.00000000  0.00000000  0.08333333       0.001
   0.08333333  0.00000000  0.08333333       0.005
   0.16666667  0.00000000  0.08333333       0.005
   0.25000000  0.00000000  0.08333333       0.005
   0.33333333  0.00000000  0.08333333       0.005
   0.41666667  0.00000000  0.08333333       0.005
   0.50000000  0.00000000  0.08333333       0.002
   0.08333333  0.08333333  0.08333333       0.005
   0.16666667  0.08333333  0.08333333       0.009
   0.25000000  0.08333333  0.08333333       0.009
   0.33333333  0.08333333  0.08333333       0.009
   0.41666667  0.08333333  0.08333333       0.009
   0.50000000  0.08333333  0.08333333       0.005
   0.16666667  0.16666667  0.08333333       0.005
   0.25000000  0.16666667  0.08333333       0.009
   0.33333333  0.16666667  0.08333333       0.009
   0.41666667  0.16666667  0.08333333       0.009
   0.50000000  0.16666667  0.08333333       0.005
   0.25000000  0.25000000  0.08333333       0.005
   0.33333333  0.25000000  0.08333333       0.009
   0.41666667  0.25000000  0.08333333       0.009
   0.50000000  0.25000000  0.08333333       0.005
   0.33333333  0.33333333  0.08333333       0.005
   0.41666667  0.33333333  0.08333333       0.009
   0.50000000  0.33333333  0.08333333       0.005
   0.41666667  0.41666667  0.08333333       0.005
   0.50000000  0.41666667  0.08333333       0.005
   0.50000000  0.50000000  0.08333333       0.001
   0.00000000  0.00000000  0.16666667       0.001
   0.08333333  0.00000000  0.16666667       0.005
   0.16666667  0.00000000  0.16666667       0.005
   0.25000000  0.00000000  0.16666667       0.005
   0.33333333  0.00000000  0.16666667       0.005
   0.41666667  0.00000000  0.16666667       0.005
   0.50000000  0.00000000  0.16666667       0.002
   0.08333333  0.08333333  0.16666667       0.005
   0.16666667  0.08333333  0.16666667       0.009
   0.25000000  0.08333333  0.16666667       0.009
   0.33333333  0.08333333  0.16666667       0.009
   0.41666667  0.08333333  0.16666667       0.009
   0.50000000  0.08333333  0.16666667       0.005
   0.16666667  0.16666667  0.16666667       0.005
   0.25000000  0.16666667  0.16666667       0.009
   0.33333333  0.16666667  0.16666667       0.009
   0.41666667  0.16666667  0.16666667       0.009
   0.50000000  0.16666667  0.16666667       0.005
   0.25000000  0.25000000  0.16666667       0.005
   0.33333333  0.25000000  0.16666667       0.009
   0.41666667  0.25000000  0.16666667       0.009
   0.50000000  0.25000000  0.16666667       0.005
   0.33333333  0.33333333  0.16666667       0.005
   0.41666667  0.33333333  0.16666667       0.009
   0.50000000  0.33333333  0.16666667       0.005
   0.41666667  0.41666667  0.16666667       0.005
   0.50000000  0.41666667  0.16666667       0.005
   0.50000000  0.50000000  0.16666667       0.001
   0.00000000  0.00000000  0.25000000       0.001
   0.08333333  0.00000000  0.25000000       0.005
   0.16666667  0.00000000  0.25000000       0.005
   0.25000000  0.00000000  0.25000000       0.005
   0.33333333  0.00000000  0.25000000       0.005
   0.41666667  0.00000000  0.25000000       0.005
   0.50000000  0.00000000  0.25000000       0.002
   0.08333333  0.08333333  0.25000000       0.005
   0.16666667  0.08333333  0.25000000       0.009
   0.25000000  0.08333333  0.25000000       0.009
   0.33333333  0.08333333  0.25000000       0.009
   0.41666667  0.08333333  0.25000000       0.009
   0.50000000  0.08333333  0.25000000       0.005
   0.16666667  0.16666667  0.25000000       0.005
   0.25000000  0.16666667  0.25000000       0.009
   0.33333333  0.16666667  0.25000000       0.009
   0.41666667  0.16666667  0.25000000       0.009
   0.50000000  0.16666667  0.25000000       0.005
   0.25000000  0.25000000  0.25000000       0.005
   0.33333333  0.25000000  0.25000000       0.009
   0.41666667  0.25000000  0.25000000       0.009
   0.50000000  0.25000000  0.25000000       0.005
   0.33333333  0.33333333  0.25000000       0.005
   0.41666667  0.33333333  0.25000000       0.009
   0.50000000  0.33333333  0.25000000       0.005
   0.41666667  0.41666667  0.25000000       0.005
   0.50000000  0.41666667  0.25000000       0.005
   0.50000000  0.50000000  0.25000000       0.001
   0.00000000  0.00000000  0.33333333       0.001
   0.08333333  0.00000000  0.33333333       0.005
   0.16666667  0.00000000  0.33333333       0.005
   0.25000000  0.00000000  0.33333333       0.005
   0.33333333  0.00000000  0.33333333       0.005
   0.41666667  0.00000000  0.33333333       0.005
   0.50000000  0.00000000  0.33333333       0.002
   0.08333333  0.08333333  0.33333333       0.005
   0.16666667  0.08333333  0.33333333       0.009
   0.25000000  0.08333333  0.33333333       0.009
   0.33333333  0.08333333  0.33333333       0.009
   0.41666667  0.08333333  0.33333333       0.009
   0.50000000  0.08333333  0.33333333       0.005
   0.16666667  0.16666667  0.33333333       0.005
   0.25000000  0.16666667  0.33333333       0.009
   0.33333333  0.16666667  0.33333333       0.009
   0.41666667  0.16666667  0.33333333       0.009
   0.50000000  0.16666667  0.33333333       0.005
   0.25000000  0.25000000  0.33333333       0.005
   0.33333333  0.25000000  0.33333333       0.009
   0.41666667  0.25000000  0.33333333       0.009
   0.50000000  0.25000000  0.33333333       0.005
   0.33333333  0.33333333  0.33333333       0.005
   0.41666667  0.33333333  0.33333333       0.009
   0.50000000  0.33333333  0.33333333       0.005
   0.41666667  0.41666667  0.33333333       0.005
   0.50000000  0.41666667  0.33333333       0.005
   0.50000000  0.50000000  0.33333333       0.001
   0.00000000  0.00000000  0.41666667       0.001
   0.08333333  0.00000000  0.41666667       0.005
   0.16666667  0.00000000  0.41666667       0.005
   0.25000000  0.00000000  0.41666667       0.005
   0.33333333  0.00000000  0.41666667       0.005
   0.41666667  0.00000000  0.41666667       0.005
   0.50000000  0.00000000  0.41666667       0.002
   0.08333333  0.08333333  0.41666667       0.005
   0.16666667  0.08333333  0.41666667       0.009
   0.25000000  0.08333333  0.41666667       0.009
   0.33333333  0.08333333  0.41666667       0.009
   0.41666667  0.08333333  0.41666667       0.009
   0.50000000  0.08333333  0.41666667       0.005
   0.16666667  0.16666667  0.41666667       0.005
   0.25000000  0.16666667  0.41666667       0.009
   0.33333333  0.16666667  0.41666667       0.009
   0.41666667  0.16666667  0.41666667       0.009
   0.50000000  0.16666667  0.41666667       0.005
   0.25000000  0.25000000  0.41666667       0.005
   0.33333333  0.25000000  0.41666667       0.009
   0.41666667  0.25000000  0.41666667       0.009
   0.50000000  0.25000000  0.41666667       0.005
   0.33333333  0.33333333  0.41666667       0.005
   0.41666667  0.33333333  0.41666667       0.009
   0.50000000  0.33333333  0.41666667       0.005
   0.41666667  0.41666667  0.41666667       0.005
   0.50000000  0.41666667  0.41666667       0.005
   0.50000000  0.50000000  0.41666667       0.001
   0.00000000  0.00000000  0.50000000       0.001
   0.08333333  0.00000000  0.50000000       0.002
   0.16666667  0.00000000  0.50000000       0.002
   0.25000000  0.00000000  0.50000000       0.002
   0.33333333  0.00000000  0.50000000       0.002
   0.41666667  0.00000000  0.50000000       0.002
   0.50000000  0.00000000  0.50000000       0.001
   0.08333333  0.08333333  0.50000000       0.002
   0.16666667  0.08333333  0.50000000       0.005
   0.25000000  0.08333333  0.50000000       0.005
   0.33333333  0.08333333  0.50000000       0.005
   0.41666667  0.08333333  0.50000000       0.005
   0.50000000  0.08333333  0.50000000       0.002
   0.16666667  0.16666667  0.50000000       0.002
   0.25000000  0.16666667  0.50000000       0.005
   0.33333333  0.16666667  0.50000000       0.005
   0.41666667  0.16666667  0.50000000       0.005
   0.50000000  0.16666667  0.50000000       0.002
   0.25000000  0.25000000  0.50000000       0.002
   0.33333333  0.25000000  0.50000000       0.005
   0.41666667  0.25000000  0.50000000       0.005
   0.50000000  0.25000000  0.50000000       0.002
   0.33333333  0.33333333  0.50000000       0.002
   0.41666667  0.33333333  0.50000000       0.005
   0.50000000  0.33333333  0.50000000       0.002
   0.41666667  0.41666667  0.50000000       0.002
   0.50000000  0.41666667  0.50000000       0.002
   0.50000000  0.50000000  0.50000000       0.001
 
 position of ions in fractional coordinates (direct lattice) 
   0.25000000  0.75000000  0.25000000
   0.00000000  0.00000000  0.50000000
   0.25000000  0.25000000  0.75000000
   0.00000000  0.50000000  0.00000000
   0.75000000  0.75000000  0.75000000
   0.50000000  0.00000000  0.00000000
   0.75000000  0.25000000  0.25000000
   0.50000000  0.50000000  0.50000000
 
 position of ions in cartesian coordinates  (Angst):
   0.87015828  2.61047484  0.89749984
   0.00000000  0.00000000  1.79499968
   0.87015828  0.87015828  2.69249952
   0.00000000  1.74031656  0.00000000
   2.61047484  2.61047484  2.69249952
   1.74031656  0.00000000  0.00000000
   2.61047484  0.87015828  0.89749984
   1.74031656  1.74031656  1.79499968
 


--------------------------------------------------------------------------------------------------------


 k-point  1 :   0.0000 0.0000 0.0000  plane waves:     775
 k-point  2 :   0.0833 0.0000 0.0000  plane waves:     775
 k-point  3 :   0.1667 0.0000 0.0000  plane waves:     787
 k-point  4 :   0.2500 0.0000 0.0000  plane waves:     789
 k-point  5 :   0.3333 0.0000 0.0000  plane waves:     794
 k-point  6 :   0.4167 0.0000 0.0000  plane waves:     796
 k-point  7 :   0.5000 0.0000 0.0000  plane waves:     804
 k-point  8 :   0.0833 0.0833 0.0000  plane waves:     778
 k-point  9 :   0.1667 0.0833 0.0000  plane waves:     783
 k-point 10 :   0.2500 0.0833 0.0000  plane waves:     792
 k-point 11 :   0.3333 0.0833 0.0000  plane waves:     792
 k-point 12 :   0.4167 0.0833 0.0000  plane waves:     796
 k-point 13 :   0.5000 0.0833 0.0000  plane waves:     792
 k-point 14 :   0.1667 0.1667 0.0000  plane waves:     782
 k-point 15 :   0.2500 0.1667 0.0000  plane waves:     788
 k-point 16 :   0.3333 0.1667 0.0000  plane waves:     788
 k-point 17 :   0.4167 0.1667 0.0000  plane waves:     791
 k-point 18 :   0.5000 0.1667 0.0000  plane waves:     802
 k-point 19 :   0.2500 0.2500 0.0000  plane waves:     790
 k-point 20 :   0.3333 0.2500 0.0000  plane waves:     786
 k-point 21 :   0.4167 0.2500 0.0000  plane waves:     789
 k-point 22 :   0.5000 0.2500 0.0000  plane waves:     794
 k-point 23 :   0.3333 0.3333 0.0000  plane waves:     780
 k-point 24 :   0.4167 0.3333 0.0000  plane waves:     786
 k-point 25 :   0.5000 0.3333 0.0000  plane waves:     786
 k-point 26 :   0.4167 0.4167 0.0000  plane waves:     784
 k-point 27 :   0.5000 0.4167 0.0000  plane waves:     778
 k-point 28 :   0.5000 0.5000 0.0000  plane waves:     784
 k-point 29 :   0.0000 0.0000 0.0833  plane waves:     767
 k-point 30 :   0.0833 0.0000 0.0833  plane waves:     776
 k-point 31 :   0.1667 0.0000 0.0833  plane waves:     784
 k-point 32 :   0.2500 0.0000 0.0833  plane waves:     787
 k-point 33 :   0.3333 0.0000 0.0833  plane waves:     801
 k-point 34 :   0.4167 0.0000 0.0833  plane waves:     797
 k-point 35 :   0.5000 0.0000 0.0833  plane waves:     796
 k-point 36 :   0.0833 0.0833 0.0833  plane waves:     780
 k-point 37 :   0.1667 0.0833 0.0833  plane waves:     787
 k-point 38 :   0.2500 0.0833 0.0833  plane waves:     789
 k-point 39 :   0.3333 0.0833 0.0833  plane waves:     790
 k-point 40 :   0.4167 0.0833 0.0833  plane waves:     792
 k-point 41 :   0.5000 0.0833 0.0833  plane waves:     798
 k-point 42 :   0.1667 0.1667 0.0833  plane waves:     789
 k-point 43 :   0.2500 0.1667 0.0833  plane waves:     790
 k-point 44 :   0.3333 0.1667 0.0833  plane waves:     786
 k-point 45 :   0.4167 0.1667 0.0833  plane waves:     791
 k-point 46 :   0.5000 0.1667 0.0833  plane waves:     790
 k-point 47 :   0.2500 0.2500 0.0833  plane waves:     790
 k-point 48 :   0.3333 0.2500 0.0833  plane waves:     785
 k-point 49 :   0.4167 0.2500 0.0833  plane waves:     788
 k-point 50 :   0.5000 0.2500 0.0833  plane waves:     794
 k-point 51 :   0.3333 0.3333 0.0833  plane waves:     776
 k-point 52 :   0.4167 0.3333 0.0833  plane waves:     787
 k-point 53 :   0.5000 0.3333 0.0833  plane waves:     796
 k-point 54 :   0.4167 0.4167 0.0833  plane waves:     783
 k-point 55 :   0.5000 0.4167 0.0833  plane waves:     782
 k-point 56 :   0.5000 0.5000 0.0833  plane waves:     776
 k-point 57 :   0.0000 0.0000 0.1667  plane waves:     784
 k-point 58 :   0.0833 0.0000 0.1667  plane waves:     782
 k-point 59 :   0.1667 0.0000 0.1667  plane waves:     788
 k-point 60 :   0.2500 0.0000 0.1667  plane waves:     790
 k-point 61 :   0.3333 0.0000 0.1667  plane waves:     794
 k-point 62 :   0.4167 0.0000 0.1667  plane waves:     798
 k-point 63 :   0.5000 0.0000 0.1667  plane waves:     796
 k-point 64 :   0.0833 0.0833 0.1667  plane waves:     782
 k-point 65 :   0.1667 0.0833 0.1667  plane waves:     790
 k-point 66 :   0.2500 0.0833 0.1667  plane waves:     794
 k-point 67 :   0.3333 0.0833 0.1667  plane waves:     795
 k-point 68 :   0.4167 0.0833 0.1667  plane waves:     793
 k-point 69 :   0.5000 0.0833 0.1667  plane waves:     798
 k-point 70 :   0.1667 0.1667 0.1667  plane waves:     791
 k-point 71 :   0.2500 0.1667 0.1667  plane waves:     791
 k-point 72 :   0.3333 0.1667 0.1667  plane waves:     789
 k-point 73 :   0.4167 0.1667 0.1667  plane waves:     789
 k-point 74 :   0.5000 0.1667 0.1667  plane waves:     788
 k-point 75 :   0.2500 0.2500 0.1667  plane waves:     789
 k-point 76 :   0.3333 0.2500 0.1667  plane waves:     782
 k-point 77 :   0.4167 0.2500 0.1667  plane waves:     786
 k-point 78 :   0.5000 0.2500 0.1667  plane waves:     786
 k-point 79 :   0.3333 0.3333 0.1667  plane waves:     783
 k-point 80 :   0.4167 0.3333 0.1667  plane waves:     785
 k-point 81 :   0.5000 0.3333 0.1667  plane waves:     786
 k-point 82 :   0.4167 0.4167 0.1667  plane waves:     785
 k-point 83 :   0.5000 0.4167 0.1667  plane waves:     784
 k-point 84 :   0.5000 0.5000 0.1667  plane waves:     780
 k-point 85 :   0.0000 0.0000 0.2500  plane waves:     800
 k-point 86 :   0.0833 0.0000 0.2500  plane waves:     790
 k-point 87 :   0.1667 0.0000 0.2500  plane waves:     793
 k-point 88 :   0.2500 0.0000 0.2500  plane waves:     794
 k-point 89 :   0.3333 0.0000 0.2500  plane waves:     785
 k-point 90 :   0.4167 0.0000 0.2500  plane waves:     790
 k-point 91 :   0.5000 0.0000 0.2500  plane waves:     798
 k-point 92 :   0.0833 0.0833 0.2500  plane waves:     790
 k-point 93 :   0.1667 0.0833 0.2500  plane waves:     793
 k-point 94 :   0.2500 0.0833 0.2500  plane waves:     792
 k-point 95 :   0.3333 0.0833 0.2500  plane waves:     789
 k-point 96 :   0.4167 0.0833 0.2500  plane waves:     788
 k-point 97 :   0.5000 0.0833 0.2500  plane waves:     798
 k-point 98 :   0.1667 0.1667 0.2500  plane waves:     796
 k-point 99 :   0.2500 0.1667 0.2500  plane waves:     790
 k-point ** :   0.3333 0.1667 0.2500  plane waves:     790
 k-point ** :   0.4167 0.1667 0.2500  plane waves:     790
 k-point ** :   0.5000 0.1667 0.2500  plane waves:     796
 k-point ** :   0.2500 0.2500 0.2500  plane waves:     788
 k-point ** :   0.3333 0.2500 0.2500  plane waves:     787
 k-point ** :   0.4167 0.2500 0.2500  plane waves:     788
 k-point ** :   0.5000 0.2500 0.2500  plane waves:     784
 k-point ** :   0.3333 0.3333 0.2500  plane waves:     791
 k-point ** :   0.4167 0.3333 0.2500  plane waves:     787
 k-point ** :   0.5000 0.3333 0.2500  plane waves:     786
 k-point ** :   0.4167 0.4167 0.2500  plane waves:     783
 k-point ** :   0.5000 0.4167 0.2500  plane waves:     786
 k-point ** :   0.5000 0.5000 0.2500  plane waves:     776
 k-point ** :   0.0000 0.0000 0.3333  plane waves:     804
 k-point ** :   0.0833 0.0000 0.3333  plane waves:     801
 k-point ** :   0.1667 0.0000 0.3333  plane waves:     793
 k-point ** :   0.2500 0.0000 0.3333  plane waves:     799
 k-point ** :   0.3333 0.0000 0.3333  plane waves:     792
 k-point ** :   0.4167 0.0000 0.3333  plane waves:     793
 k-point ** :   0.5000 0.0000 0.3333  plane waves:     796
 k-point ** :   0.0833 0.0833 0.3333  plane waves:     801
 k-point ** :   0.1667 0.0833 0.3333  plane waves:     797
 k-point ** :   0.2500 0.0833 0.3333  plane waves:     794
 k-point ** :   0.3333 0.0833 0.3333  plane waves:     788
 k-point ** :   0.4167 0.0833 0.3333  plane waves:     795
 k-point ** :   0.5000 0.0833 0.3333  plane waves:     794
 k-point ** :   0.1667 0.1667 0.3333  plane waves:     796
 k-point ** :   0.2500 0.1667 0.3333  plane waves:     790
 k-point ** :   0.3333 0.1667 0.3333  plane waves:     789
 k-point ** :   0.4167 0.1667 0.3333  plane waves:     792
 k-point ** :   0.5000 0.1667 0.3333  plane waves:     790
 k-point ** :   0.2500 0.2500 0.3333  plane waves:     784
 k-point ** :   0.3333 0.2500 0.3333  plane waves:     792
 k-point ** :   0.4167 0.2500 0.3333  plane waves:     793
 k-point ** :   0.5000 0.2500 0.3333  plane waves:     788
 k-point ** :   0.3333 0.3333 0.3333  plane waves:     785
 k-point ** :   0.4167 0.3333 0.3333  plane waves:     785
 k-point ** :   0.5000 0.3333 0.3333  plane waves:     782
 k-point ** :   0.4167 0.4167 0.3333  plane waves:     782
 k-point ** :   0.5000 0.4167 0.3333  plane waves:     780
 k-point ** :   0.5000 0.5000 0.3333  plane waves:     776
 k-point ** :   0.0000 0.0000 0.4167  plane waves:     804
 k-point ** :   0.0833 0.0000 0.4167  plane waves:     802
 k-point ** :   0.1667 0.0000 0.4167  plane waves:     794
 k-point ** :   0.2500 0.0000 0.4167  plane waves:     797
 k-point ** :   0.3333 0.0000 0.4167  plane waves:     791
 k-point ** :   0.4167 0.0000 0.4167  plane waves:     790
 k-point ** :   0.5000 0.0000 0.4167  plane waves:     792
 k-point ** :   0.0833 0.0833 0.4167  plane waves:     802
 k-point ** :   0.1667 0.0833 0.4167  plane waves:     796
 k-point ** :   0.2500 0.0833 0.4167  plane waves:     793
 k-point ** :   0.3333 0.0833 0.4167  plane waves:     792
 k-point ** :   0.4167 0.0833 0.4167  plane waves:     791
 k-point ** :   0.5000 0.0833 0.4167  plane waves:     792
 k-point ** :   0.1667 0.1667 0.4167  plane waves:     792
 k-point ** :   0.2500 0.1667 0.4167  plane waves:     788
 k-point ** :   0.3333 0.1667 0.4167  plane waves:     792
 k-point ** :   0.4167 0.1667 0.4167  plane waves:     793
 k-point ** :   0.5000 0.1667 0.4167  plane waves:     794
 k-point ** :   0.2500 0.2500 0.4167  plane waves:     788
 k-point ** :   0.3333 0.2500 0.4167  plane waves:     789
 k-point ** :   0.4167 0.2500 0.4167  plane waves:     792
 k-point ** :   0.5000 0.2500 0.4167  plane waves:     794
 k-point ** :   0.3333 0.3333 0.4167  plane waves:     783
 k-point ** :   0.4167 0.3333 0.4167  plane waves:     789
 k-point ** :   0.5000 0.3333 0.4167  plane waves:     788
 k-point ** :   0.4167 0.4167 0.4167  plane waves:     794
 k-point ** :   0.5000 0.4167 0.4167  plane waves:     784
 k-point ** :   0.5000 0.5000 0.4167  plane waves:     768
 k-point ** :   0.0000 0.0000 0.5000  plane waves:     812
 k-point ** :   0.0833 0.0000 0.5000  plane waves:     806
 k-point ** :   0.1667 0.0000 0.5000  plane waves:     788
 k-point ** :   0.2500 0.0000 0.5000  plane waves:     788
 k-point ** :   0.3333 0.0000 0.5000  plane waves:     788
 k-point ** :   0.4167 0.0000 0.5000  plane waves:     796
 k-point ** :   0.5000 0.0000 0.5000  plane waves:     788
 k-point ** :   0.0833 0.0833 0.5000  plane waves:     798
 k-point ** :   0.1667 0.0833 0.5000  plane waves:     790
 k-point ** :   0.2500 0.0833 0.5000  plane waves:     792
 k-point ** :   0.3333 0.0833 0.5000  plane waves:     790
 k-point ** :   0.4167 0.0833 0.5000  plane waves:     794
 k-point ** :   0.5000 0.0833 0.5000  plane waves:     788
 k-point ** :   0.1667 0.1667 0.5000  plane waves:     788
 k-point ** :   0.2500 0.1667 0.5000  plane waves:     794
 k-point ** :   0.3333 0.1667 0.5000  plane waves:     792
 k-point ** :   0.4167 0.1667 0.5000  plane waves:     796
 k-point ** :   0.5000 0.1667 0.5000  plane waves:     796
 k-point ** :   0.2500 0.2500 0.5000  plane waves:     786
 k-point ** :   0.3333 0.2500 0.5000  plane waves:     792
 k-point ** :   0.4167 0.2500 0.5000  plane waves:     798
 k-point ** :   0.5000 0.2500 0.5000  plane waves:     796
 k-point ** :   0.3333 0.3333 0.5000  plane waves:     790
 k-point ** :   0.4167 0.3333 0.5000  plane waves:     784
 k-point ** :   0.5000 0.3333 0.5000  plane waves:     784
 k-point ** :   0.4167 0.4167 0.5000  plane waves:     794
 k-point ** :   0.5000 0.4167 0.5000  plane waves:     796
 k-point ** :   0.5000 0.5000 0.5000  plane waves:     776

 maximum and minimum number of plane-waves per node :       212      186

 maximum number of plane-waves:       812
 maximum index in each direction: 
   IXMAX=    5   IYMAX=    5   IZMAX=    5
   IXMIN=   -6   IYMIN=   -6   IZMIN=   -6


 parallel 3D FFT for wavefunctions:
    minimum data exchange during FFTs selected (reduces bandwidth)
 parallel 3D FFT for charge:
    minimum data exchange during FFTs selected (reduces bandwidth)


 total amount of memory used by VASP MPI-rank0    37808. kBytes
=======================================================================

   base      :      30000. kBytes
   nonl-proj :       2686. kBytes
   fftplans  :        345. kBytes
   grid      :        481. kBytes
   one-center:          6. kBytes
   wavefun   :       4290. kBytes
 
     INWAV:  cpu time    0.0004: real time    0.0005
 Broyden mixing: mesh for mixing (old mesh)
   NGX = 11   NGY = 11   NGZ = 11
  (NGX  = 48   NGY  = 48   NGZ  = 48)
  gives a total of   1331 points

 initial charge density was supplied:
 charge density of overlapping atoms calculated
 number of electron      32.0000000 magnetization 
 keeping initial charge density in first step


--------------------------------------------------------------------------------------------------------


 Maximum index for augmentation-charges          285 (set IRDMAX)


--------------------------------------------------------------------------------------------------------


 First call to EWALD:  gamma=   0.504
 Maximum number of real-space cells 3x 3x 3
 Maximum number of reciprocal cells 3x 3x 3

    FEWALD:  cpu time    0.0052: real time    0.0052


--------------------------------------- Iteration      1(   1)  ---------------------------------------


    POTLOK:  cpu time    0.0255: real time    0.0305
    SETDIJ:  cpu time    0.0064: real time    0.0064
     EDDAV:  cpu time    8.9420: real time    8.9561
 BZINTS: Fermi energy: 19.320254; 32.000000 electrons
         Band energy: 133.354432;  BLOECHL correction: -0.173595
       DOS:  cpu time    0.4919: real time    0.4920
    --------------------------------------------
      LOOP:  cpu time    9.4658: real time    9.4850

 eigenvalue-minimisations  :  9416
 total energy-change (2. order) : 0.5797391E+02  (-0.1449441E+04)
 number of electron      32.0000000 magnetization 
 augmentation part       32.0000000 magnetization 

 Free energy of the ion-electron system (eV)
  ---------------------------------------------------
  alpha Z        PSCENC =       119.90050194
  Ewald energy   TEWEN  =     -1411.86527251
  -Hartree energ DENC   =       -66.70320474
  -exchange      EXHF   =         0.00000000
  -V(xc)+E(xc)   XCENC  =       115.47349463
  PAW double counting   =       302.65154477     -311.85538214
  entropy T*S    EENTRO =         0.00000000
  eigenvalues    EBANDS =       133.35443239
  atomic energy  EATOM  =      1177.01779097
  Solvation  Ediel_sol  =         0.00000000
  ---------------------------------------------------
  free energy    TOTEN  =        57.97390530 eV

  energy without entropy =       57.97390530  energy(sigma->0) =       57.97390530


--------------------------------------------------------------------------------------------------------




--------------------------------------- Iteration      1(   2)  ---------------------------------------


     EDDAV:  cpu time   10.9493: real time   10.9507
 BZINTS: Fermi energy:  9.849398; 32.000000 electrons
         Band energy:   4.188220;  BLOECHL correction:  0.000000
       DOS:  cpu time    0.1216: real time    0.1216
    --------------------------------------------
      LOOP:  cpu time   11.0709: real time   11.0723

 eigenvalue-minimisations  : 12880
 total energy-change (2. order) :-0.1291662E+03  (-0.1225165E+03)
 number of electron      32.0000000 magnetization 
 augmentation part       32.0000000 magnetization 

 Free energy of the ion-electron system (eV)
  ---------------------------------------------------
  alpha Z        PSCENC =       119.90050194
  Ewald energy   TEWEN  =     -1411.86527251
  -Hartree energ DENC   =       -66.70320474
  -exchange      EXHF   =         0.00000000
  -V(xc)+E(xc)   XCENC  =       115.47349463
  PAW double counting   =       302.65154477     -311.85538214
  entropy T*S    EENTRO =         0.00000000
  eigenvalues    EBANDS =         4.18821972
  atomic energy  EATOM  =      1177.01779097
  Solvation  Ediel_sol  =         0.00000000
  ---------------------------------------------------
  free energy    TOTEN  =       -71.19230737 eV

  energy without entropy =      -71.19230737  energy(sigma->0) =      -71.19230737


--------------------------------------------------------------------------------------------------------




--------------------------------------- Iteration      1(   3)  ---------------------------------------


     EDDAV:  cpu time   10.8090: real time   10.8128
 BZINTS: Fermi energy:  9.084632; 32.000000 electrons
         Band energy:   0.029348;  BLOECHL correction:  0.000000
       DOS:  cpu time    0.1076: real time    0.1076
    --------------------------------------------
      LOOP:  cpu time   10.9166: real time   10.9204

 eigenvalue-minimisations  : 12264
 total energy-change (2. order) :-0.4158872E+01  (-0.4138617E+01)
 number of electron      32.0000000 magnetization 
 augmentation part       32.0000000 magnetization 

 Free energy of the ion-electron system (eV)
  ---------------------------------------------------
  alpha Z        PSCENC =       119.90050194
  Ewald energy   TEWEN  =     -1411.86527251
  -Hartree energ DENC   =       -66.70320474
  -exchange      EXHF   =         0.00000000
  -V(xc)+E(xc)   XCENC  =       115.47349463
  PAW double counting   =       302.65154477     -311.85538214
  entropy T*S    EENTRO =         0.00000000
  eigenvalues    EBANDS =         0.02934797
  atomic energy  EATOM  =      1177.01779097
  Solvation  Ediel_sol  =         0.00000000
  ---------------------------------------------------
  free energy    TOTEN  =       -75.35117912 eV

  energy without entropy =      -75.35117912  energy(sigma->0) =      -75.35117912


--------------------------------------------------------------------------------------------------------




--------------------------------------- Iteration      1(   4)  ---------------------------------------


     EDDAV:  cpu time   10.3622: real time   10.3633
 BZINTS: Fermi energy:  9.138397; 32.000000 electrons
         Band energy:  -0.009903;  BLOECHL correction:  0.000000
       DOS:  cpu time    0.1214: real time    0.1214
    --------------------------------------------
      LOOP:  cpu time   10.4835: real time   10.4847

 eigenvalue-minimisations  : 11888
 total energy-change (2. order) :-0.3925070E-01  (-0.3921762E-01)
 number of electron      32.0000000 magnetization 
 augmentation part       32.0000000 magnetization 

 Free energy of the ion-electron system (eV)
  ---------------------------------------------------
  alpha Z        PSCENC =       119.90050194
  Ewald energy   TEWEN  =     -1411.86527251
  -Hartree energ DENC   =       -66.70320474
  -exchange      EXHF   =         0.00000000
  -V(xc)+E(xc)   XCENC  =       115.47349463
  PAW double counting   =       302.65154477     -311.85538214
  entropy T*S    EENTRO =         0.00000000
  eigenvalues    EBANDS =        -0.00990273
  atomic energy  EATOM  =      1177.01779097
  Solvation  Ediel_sol  =         0.00000000
  ---------------------------------------------------
  free energy    TOTEN  =       -75.39042982 eV

  energy without entropy =      -75.39042982  energy(sigma->0) =      -75.39042982


--------------------------------------------------------------------------------------------------------




--------------------------------------- Iteration      1(   5)  ---------------------------------------


     EDDAV:  cpu time   10.8204: real time   10.8217
 BZINTS: Fermi energy:  9.123264; 32.000000 electrons
         Band energy:  -0.010635;  BLOECHL correction:  0.000000
       DOS:  cpu time    0.1211: real time    0.1211
    CHARGE:  cpu time    0.2650: real time    0.2651
    MIXING:  cpu time    0.0016: real time    0.0016
    --------------------------------------------
      LOOP:  cpu time   11.2082: real time   11.2096

 eigenvalue-minimisations  : 12248
 total energy-change (2. order) :-0.7318299E-03  (-0.7313675E-03)
 number of electron      31.9999996 magnetization 
 augmentation part        0.8237046 magnetization 

 Broyden mixing:
  rms(total) = 0.99957E+00    rms(broyden)= 0.99939E+00
  rms(prec ) = 0.23465E+01
  weight for this iteration     100.00

 Free energy of the ion-electron system (eV)
  ---------------------------------------------------
  alpha Z        PSCENC =       119.90050194
  Ewald energy   TEWEN  =     -1411.86527251
  -Hartree energ DENC   =       -66.70320474
  -exchange      EXHF   =         0.00000000
  -V(xc)+E(xc)   XCENC  =       115.47349463
  PAW double counting   =       302.65154477     -311.85538214
  entropy T*S    EENTRO =         0.00000000
  eigenvalues    EBANDS =        -0.01063456
  atomic energy  EATOM  =      1177.01779097
  Solvation  Ediel_sol  =         0.00000000
  ---------------------------------------------------
  free energy    TOTEN  =       -75.39116165 eV

  energy without entropy =      -75.39116165  energy(sigma->0) =      -75.39116165


--------------------------------------------------------------------------------------------------------




--------------------------------------- Iteration      1(   6)  ---------------------------------------


    POTLOK:  cpu time    0.0200: real time    0.0207
    SETDIJ:  cpu time    0.0059: real time    0.0059
     EDDAV:  cpu time    9.5290: real time    9.5297
 BZINTS: Fermi energy:  9.850780; 32.000000 electrons
         Band energy:  16.980066;  BLOECHL correction:  0.000000
       DOS:  cpu time    0.1214: real time    0.1214
    CHARGE:  cpu time    0.2519: real time    0.2520
    MIXING:  cpu time    0.0015: real time    0.0015
    --------------------------------------------
      LOOP:  cpu time    9.9298: real time    9.9312

 eigenvalue-minimisations  : 10544
 total energy-change (2. order) : 0.2151954E+01  (-0.1411190E+00)
 number of electron      31.9999996 magnetization 
 augmentation part        0.8043824 magnetization 

 Broyden mixing:
  rms(total) = 0.54409E+00    rms(broyden)= 0.54408E+00
  rms(prec ) = 0.12619E+01
  weight for this iteration     100.00

 eigenvalues of (default mixing * dielectric matrix)
  average eigenvalue GAMMA=   2.1513
  2.1513

 Free energy of the ion-electron system (eV)
  ---------------------------------------------------
  alpha Z        PSCENC =       119.90050194
  Ewald energy   TEWEN  =     -1411.86527251
  -Hartree energ DENC   =       -82.41975612
  -exchange      EXHF   =         0.00000000
  -V(xc)+E(xc)   XCENC  =       116.95244890
  PAW double counting   =       402.27093018     -412.07591643
  entropy T*S    EENTRO =         0.00000000
  eigenvalues    EBANDS =        16.98006562
  atomic energy  EATOM  =      1177.01779097
  Solvation  Ediel_sol  =         0.00000000
  ---------------------------------------------------
  free energy    TOTEN  =       -73.23920744 eV

  energy without entropy =      -73.23920744  energy(sigma->0) =      -73.23920744


--------------------------------------------------------------------------------------------------------




--------------------------------------- Iteration      1(   7)  ---------------------------------------


    POTLOK:  cpu time    0.0212: real time    0.0215
    SETDIJ:  cpu time    0.0058: real time    0.0058
     EDDAV:  cpu time    9.7251: real time    9.7259
 BZINTS: Fermi energy: 10.627763; 32.000000 electrons
         Band energy:  36.431787;  BLOECHL correction:  0.000000
       DOS:  cpu time    0.1219: real time    0.1219
    CHARGE:  cpu time    0.2507: real time    0.2507
    MIXING:  cpu time    0.0019: real time    0.0019
    --------------------------------------------
      LOOP:  cpu time   10.1266: real time   10.1277

 eigenvalue-minimisations  : 10824
 total energy-change (2. order) : 0.7257514E+00  (-0.1575325E+00)
 number of electron      31.9999996 magnetization 
 augmentation part        0.7834716 magnetization 

 Broyden mixing:
  rms(total) = 0.70715E-01    rms(broyden)= 0.70380E-01
  rms(prec ) = 0.12165E+00
  weight for this iteration     100.00

 eigenvalues of (default mixing * dielectric matrix)
  average eigenvalue GAMMA=   2.2696
  2.0029  2.5362

 Free energy of the ion-electron system (eV)
  ---------------------------------------------------
  alpha Z        PSCENC =       119.90050194
  Ewald energy   TEWEN  =     -1411.86527251
[...]

 k-point   184 :       0.3333    0.1667    0.5000
  band No.  band energies     occupation 
      1      -8.1214      2.00000
      2      -8.1214      2.00000
      3      -5.2464      2.00000
      4      -5.2464      2.00000
      5      -1.5077      2.00000
      6      -1.5077      2.00000
      7       1.1805      2.00000
      8       1.1805      2.00000
      9       3.6002      2.00000
     10       3.6002      2.00000
     11       5.7526      2.00000
     12       5.7526      2.00000
     13       5.8732      2.00000
     14       5.8732      2.00000
     15       7.3255      2.00000
     16       7.3255      2.00000
     17      18.2464      0.00000
     18      18.2464      0.00000
     19      18.4690      0.00000
     20      18.4690      0.00000
     21      19.9843      0.00000
     22      19.9843      0.00000
     23      20.1094      0.00000
     24      20.1094      0.00000

 k-point   185 :       0.4167    0.1667    0.5000
  band No.  band energies     occupation 
      1      -7.5516      2.00000
      2      -7.5516      2.00000
      3      -6.0906      2.00000
      4      -6.0906      2.00000
      5      -1.0318      2.00000
      6      -1.0318      2.00000
      7       0.3396      2.00000
      8       0.3396      2.00000
      9       4.1167      2.00000
     10       4.1167      2.00000
     11       5.2146      2.00000
     12       5.2146      2.00000
     13       6.6434      2.00000
     14       6.6434      2.00000
     15       7.3702      2.00000
     16       7.3702      2.00000
     17      18.1760      0.00000
     18      18.1760      0.00000
     19      18.8442      0.00000
     20      18.8442      0.00000
     21      19.7645      0.00000
     22      19.7645      0.00000
     23      20.1947      0.00000
     24      20.1947      0.00000

 k-point   186 :       0.5000    0.1667    0.5000
  band No.  band energies     occupation 
      1      -6.8696      2.00000
      2      -6.8696      2.00000
      3      -6.8696      2.00000
      4      -6.8696      2.00000
      5      -0.4055      2.00000
      6      -0.4055      2.00000
      7      -0.4055      2.00000
      8      -0.4055      2.00000
      9       4.6579      2.00000
     10       4.6579      2.00000
     11       4.6579      2.00000
     12       4.6579      2.00000
     13       7.1543      2.00000
     14       7.1543      2.00000
     15       7.1543      2.00000
     16       7.1543      2.00000
     17      18.4206      0.00000
     18      18.4206      0.00000
     19      18.4206      0.00000
     20      18.4206      0.00000
     21      20.1483      0.00000
     22      20.1483      0.00000
     23      20.1483      0.00000
     24      20.1483      0.00000

 k-point   187 :       0.2500    0.2500    0.5000
  band No.  band energies     occupation 
      1      -8.2500      2.00000
      2      -8.2500      2.00000
      3      -4.5871      2.00000
      4      -4.5871      2.00000
      5      -2.3796      2.00000
      6      -2.3796      2.00000
      7       1.0803      2.00000
      8       1.0803      2.00000
      9       4.0702      2.00000
     10       4.0702      2.00000
     11       5.4109      2.00000
     12       5.4109      2.00000
     13       6.7563      2.00000
     14       6.7563      2.00000
     15       6.9827      2.00000
     16       6.9827      2.00000
     17      17.8753      0.00000
     18      17.8753      0.00000
     19      18.5702      0.00000
     20      18.5702      0.00000
     21      19.5914      0.00000
     22      19.5914      0.00000
     23      20.7325      0.00000
     24      20.7414      0.00000

 k-point   188 :       0.3333    0.2500    0.5000
  band No.  band energies     occupation 
      1      -7.8064      2.00000
      2      -7.8064      2.00000
      3      -5.1196      2.00000
      4      -5.1196      2.00000
      5      -2.4338      2.00000
      6      -2.4338      2.00000
      7       0.1268      2.00000
      8       0.1268      2.00000
      9       4.7832      2.00000
     10       4.7832      2.00000
     11       6.0758      2.00000
     12       6.0758      2.00000
     13       6.5578      2.00000
     14       6.5578      2.00000
     15       7.2965      2.00000
     16       7.2965      2.00000
     17      18.3568      0.00000
     18      18.3568      0.00000
     19      18.4439      0.00000
     20      18.4439      0.00000
     21      19.4974      0.00000
     22      19.4974      0.00000
     23      20.0814      0.00000
     24      20.0814      0.00000

 k-point   189 :       0.4167    0.2500    0.5000
  band No.  band energies     occupation 
      1      -7.2467      2.00000
      2      -7.2467      2.00000
      3      -5.8496      2.00000
      4      -5.8496      2.00000
      5      -2.0722      2.00000
      6      -2.0722      2.00000
      7      -0.7357      2.00000
      8      -0.7357      2.00000
      9       5.3089      2.00000
     10       5.3089      2.00000
     11       6.1978      2.00000
     12       6.1978      2.00000
     13       6.7569      2.00000
     14       6.7569      2.00000
     15       7.4107      2.00000
     16       7.4107      2.00000
     17      18.3926      0.00000
     18      18.3926      0.00000
     19      18.7428      0.00000
     20      18.7428      0.00000
     21      19.6127      0.00000
     22      19.6127      0.00000
     23      19.6587      0.00000
     24      19.6587      0.00000

 k-point   190 :       0.5000    0.2500    0.5000
  band No.  band energies     occupation 
      1      -6.5844      2.00000
      2      -6.5844      2.00000
      3      -6.5844      2.00000
      4      -6.5844      2.00000
      5      -1.4806      2.00000
      6      -1.4806      2.00000
      7      -1.4806      2.00000
      8      -1.4806      2.00000
      9       5.7746      2.00000
     10       5.7746      2.00000
     11       5.7746      2.00000
     12       5.7746      2.00000
     13       7.2301      2.00000
     14       7.2301      2.00000
     15       7.2301      2.00000
     16       7.2301      2.00000
     17      18.5616      0.00000
     18      18.5616      0.00000
     19      18.5616      0.00000
     20      18.5616      0.00000
     21      19.6971      0.00000
     22      19.6971      0.00000
     23      19.6971      0.00000
     24      19.6971      0.00000

 k-point   191 :       0.3333    0.3333    0.5000
  band No.  band energies     occupation 
      1      -7.3731      2.00000
      2      -7.3731      2.00000
      3      -5.1739      2.00000
      4      -5.1739      2.00000
      5      -2.9698      2.00000
      6      -2.9698      2.00000
      7      -0.8485      2.00000
      8      -0.8485      2.00000
      9       5.7714      2.00000
     10       5.7714      2.00000
     11       6.3838      2.00000
     12       6.3838      2.00000
     13       6.9632      2.00000
     14       6.9632      2.00000
     15       7.3574      2.00000
     16       7.3574      2.00000
     17      18.4584      0.00000
     18      18.4584      0.00000
     19      18.6394      0.00000
     20      18.6394      0.00000
     21      19.0979      0.00000
     22      19.0979      0.00000
     23      20.0534      0.00000
     24      20.0808      0.00000

 k-point   192 :       0.4167    0.3333    0.5000
  band No.  band energies     occupation 
      1      -6.8337      2.00000
      2      -6.8337      2.00000
      3      -5.5970      2.00000
      4      -5.5970      2.00000
      5      -2.9122      2.00000
      6      -2.9122      2.00000
      7      -1.7130      2.00000
      8      -1.7130      2.00000
      9       6.3533      2.00000
     10       6.3533      2.00000
     11       6.8884      2.00000
     12       6.8884      2.00000
     13       6.8969      2.00000
     14       6.8969      2.00000
     15       7.4958      2.00000
     16       7.4958      2.00000
     17      18.6499      0.00000
     18      18.6499      0.00000
     19      18.6517      0.00000
     20      18.6517      0.00000
     21      19.1311      0.00000
     22      19.1311      0.00000
     23      19.5942      0.00000
     24      19.5942      0.00000

 k-point   193 :       0.5000    0.3333    0.5000
  band No.  band energies     occupation 
      1      -6.2163      2.00000
      2      -6.2163      2.00000
      3      -6.2163      2.00000
      4      -6.2163      2.00000
      5      -2.4274      2.00000
      6      -2.4274      2.00000
      7      -2.4274      2.00000
      8      -2.4274      2.00000
      9       6.6680      2.00000
     10       6.6680      2.00000
     11       6.6680      2.00000
     12       6.6680      2.00000
     13       7.3510      2.00000
     14       7.3510      2.00000
     15       7.3510      2.00000
     16       7.3510      2.00000
     17      18.6687      0.00000
     18      18.6687      0.00000
     19      18.6687      0.00000
     20      18.6687      0.00000
     21      19.3335      0.00000
     22      19.3335      0.00000
     23      19.3335      0.00000
     24      19.3335      0.00000

 k-point   194 :       0.4167    0.4167    0.5000
  band No.  band energies     occupation 
      1      -6.3393      2.00000
      2      -6.3393      2.00000
      3      -5.5292      2.00000
      4      -5.5292      2.00000
      5      -3.3406      2.00000
      6      -3.3406      2.00000
      7      -2.5481      2.00000
      8      -2.5481      2.00000
      9       6.9846      2.00000
     10       6.9846      2.00000
     11       7.1234      2.00000
     12       7.1234      2.00000
     13       7.1855      2.00000
     14       7.1855      2.00000
     15       7.6561      2.00000
     16       7.6561      2.00000
     17      18.6189      0.00000
     18      18.6189      0.00000
     19      18.7503      0.00000
     20      18.7503      0.00000
     21      18.9786      0.00000
     22      18.9786      0.00000
     23      19.4226      0.00000
     24      19.4226      0.00000

 k-point   195 :       0.5000    0.4167    0.5000
  band No.  band energies     occupation 
      1      -5.8377      2.00000
      2      -5.8377      2.00000
      3      -5.8377      2.00000
      4      -5.8377      2.00000
      5      -3.1585      2.00000
      6      -3.1585      2.00000
      7      -3.1585      2.00000
      8      -3.1585      2.00000
      9       7.1037      2.00000
     10       7.1037      2.00000
     11       7.1037      2.00000
     12       7.1037      2.00000
     13       7.6045      2.00000
     14       7.6045      2.00000
     15       7.6045      2.00000
     16       7.6045      2.00000
     17      18.6414      0.00000
     18      18.6414      0.00000
     19      18.6414      0.00000
     20      18.6414      0.00000
     21      19.1924      0.00000
     22      19.1924      0.00000
     23      19.1924      0.00000
     24      19.1924      0.00000

 k-point   196 :       0.5000    0.5000    0.5000
  band No.  band energies     occupation 
      1      -5.6480      2.00000
      2      -5.6480      2.00000
      3      -5.6480      2.00000
      4      -5.6480      2.00000
      5      -3.4656      2.00000
      6      -3.4656      2.00000
      7      -3.4656      2.00000
      8      -3.4656      2.00000
      9       7.1834      2.00000
     10       7.1834      2.00000
     11       7.1834      2.00000
     12       7.1834      2.00000
     13       7.7732      2.00000
     14       7.7732      2.00000
     15       7.7732      2.00000
     16       7.7732      2.00000
     17      18.5942      0.00000
     18      18.5942      0.00000
     19      18.5942      0.00000
     20      18.5942      0.00000
     21      19.1910      0.00000
     22      19.1910      0.00000
     23      19.1910      0.00000
     24      19.1910      0.00000


--------------------------------------------------------------------------------------------------------


 soft charge-density along one line, spin component           1
         0         1         2         3         4         5         6         7         8         9
 total charge-density along one line
 
 pseudopotential strength for first ion, spin component:           1
  9.405  -0.006   0.000   0.000  -0.000  -0.000  -0.000   0.000
 -0.006  -0.002  -0.000  -0.000   0.000  -0.000  -0.000   0.000
  0.000  -0.000  -3.624   0.000  -0.000  -0.011   0.000  -0.000
  0.000  -0.000   0.000  -3.624   0.000   0.000  -0.010   0.000
 -0.000   0.000  -0.000   0.000  -3.624  -0.000   0.000  -0.011
 -0.000  -0.000  -0.011   0.000  -0.000  -0.756   0.000  -0.000
 -0.000  -0.000   0.000  -0.010   0.000   0.000  -0.756   0.000
  0.000   0.000  -0.000   0.000  -0.011  -0.000   0.000  -0.756
 total augmentation occupancy for first ion, spin component:           1
  1.429  -1.095  -0.000   0.000   0.000   0.000   0.000  -0.000
 -1.095   1.130  -0.000   0.000   0.000  -0.000   0.000   0.000
  0.000   0.000   1.129   0.000  -0.000   0.192   0.000   0.000
  0.000   0.000  -0.000   1.117   0.000   0.000   0.196   0.000
  0.000  -0.000  -0.000  -0.000   1.129  -0.000   0.000   0.192
  0.000   0.000   0.192   0.000   0.000   0.039   0.000  -0.000
  0.000   0.000  -0.000   0.196   0.000  -0.000   0.040   0.000
 -0.000   0.000   0.000   0.000   0.192  -0.000   0.000   0.039


------------------------ aborting loop because EDIFF is reached ----------------------------------------


    CHARGE:  cpu time    0.2897: real time    0.2897
    FORLOC:  cpu time    0.0017: real time    0.0017
    FORNL :  cpu time    0.4299: real time    0.4299
    STRESS:  cpu time    1.0036: real time    1.0039
    FORHAR:  cpu time    0.0054: real time    0.0054
    MIXING:  cpu time    0.0020: real time    0.0020
    OFIELD:  cpu time    0.0001: real time    0.0001

  FORCE on cell =-STRESS in cart. coord.  units (eV):
  Direction    XX          YY          ZZ          XY          YZ          ZX
  --------------------------------------------------------------------------------------
  Alpha Z   119.90050   119.90050   119.90050
  Ewald    -477.28247  -477.28247  -457.30274     0.00000     0.00000    -0.00000
  Hartree    32.97482    32.97482    37.02218    -0.00000    -0.00000    -0.00000
  E(xc)    -120.92869  -120.92869  -120.79012    -0.00000     0.00000     0.00000
  Local     -36.19070   -36.19070   -58.42902    -0.00000     0.00000     0.00000
  n-local   -30.28780   -30.74122   -29.53015     0.61422     0.62775     0.54093
  augment    -3.01161    -3.01161    -3.02853     0.00000     0.00000    -0.00000
  Kinetic   515.16425   530.65381   511.58105    -4.96997    -5.41610    -4.09617
  Fock        0.00000     0.00000     0.00000     0.00000     0.00000     0.00000
  -------------------------------------------------------------------------------------
  Total       7.85636     7.85636    -0.57682     0.00000     0.00000     0.00000
  in kB     289.41512   289.41512   -21.24910     0.00000     0.00000     0.00000
  external pressure =      185.86 kB  Pullay stress =        0.00 kB


 VOLUME and BASIS-vectors are now :
 -----------------------------------------------------------------------------
  energy-cutoff  :      400.00
  volume of cell :       43.49
      direct lattice vectors                 reciprocal lattice vectors
     3.480633118  0.000000000  0.000000000     0.287304053  0.000000000  0.000000000
     0.000000000  3.480633118  0.000000000     0.000000000  0.287304053  0.000000000
     0.000000000  0.000000000  3.589999359     0.000000000  0.000000000  0.278551582

  length of vectors
     3.480633118  3.480633118  3.589999359     0.287304053  0.287304053  0.278551582


 FORCES acting on ions
    electron-ion (+dipol)            ewald-force                    non-local-force                 convergence-correction
 -----------------------------------------------------------------------------------------------
   0.245E-13 -.158E-12 0.456E-14   0.000E+00 -.213E-13 0.711E-14   0.317E-17 -.365E-17 -.207E-16   0.108E-13 -.143E-14 0.301E-14
   0.000E+00 -.207E-14 0.239E-13   -.766E-14 -.150E-13 0.694E-17   -.391E-17 0.137E-16 -.189E-16   -.301E-14 -.220E-14 0.165E-14
   0.245E-13 -.176E-12 0.229E-13   0.000E+00 -.711E-14 -.213E-13   -.591E-18 0.400E-17 0.213E-16   0.117E-13 -.894E-16 0.231E-14
   0.817E-14 0.221E-13 -.953E-15   -.666E-14 -.188E-16 -.288E-13   -.669E-17 0.236E-16 0.158E-16   -.316E-14 -.145E-14 0.158E-14
   0.408E-13 0.198E-12 0.386E-12   0.000E+00 0.000E+00 0.284E-13   0.693E-17 -.127E-16 0.234E-16   -.777E-14 -.151E-14 0.274E-14
   0.817E-14 -.487E-14 -.401E-12   0.126E-15 0.607E-14 0.209E-13   -.330E-17 0.118E-17 0.197E-16   0.615E-14 -.167E-14 0.198E-14
   0.408E-13 -.192E-12 0.242E-14   0.000E+00 0.142E-13 0.000E+00   0.767E-17 -.257E-16 -.135E-16   -.881E-14 -.252E-15 0.329E-14
   0.817E-14 0.374E-12 0.190E-13   0.104E-15 0.212E-13 -.720E-14   -.610E-17 -.865E-17 -.218E-16   0.606E-14 -.308E-14 0.199E-14
 -----------------------------------------------------------------------------------------------
   0.155E-12 0.625E-13 0.568E-13   -.141E-13 -.201E-14 -.908E-15   -.281E-17 -.817E-17 0.531E-17   0.120E-13 -.117E-13 0.185E-13
 
 
 POSITION                                       TOTAL-FORCE (eV/Angst)
 -----------------------------------------------------------------------------------
      0.87016      2.61047      0.89750        -0.000000     -0.000000      0.000000
      0.00000      0.00000      1.79500        -0.000000      0.000000      0.000000
      0.87016      0.87016      2.69250        -0.000000      0.000000      0.000000
      0.00000      1.74032      0.00000        -0.000000      0.000000      0.000000
      2.61047      2.61047      2.69250        -0.000000     -0.000000     -0.000000
      1.74032      0.00000      0.00000         0.000000      0.000000      0.000000
      2.61047      0.87016      0.89750         0.000000     -0.000000     -0.000000
      1.74032      1.74032      1.79500        -0.000000     -0.000000     -0.000000
 -----------------------------------------------------------------------------------
    total drift:                                0.000000      0.000000      0.000000


--------------------------------------------------------------------------------------------------------



  FREE ENERGIE OF THE ION-ELECTRON SYSTEM (eV)
  ---------------------------------------------------
  free  energy   TOTEN  =       -72.52160744 eV

  energy  without entropy=      -72.52160744  energy(sigma->0) =      -72.52160744
 


--------------------------------------------------------------------------------------------------------


    POTLOK:  cpu time    0.0265: real time    0.0265


--------------------------------------------------------------------------------------------------------


     LOOP+:  cpu time  115.9195: real time  116.0210
    4ORBIT:  cpu time    0.0000: real time    0.0000
 BZINTS: Fermi energy: 10.578172; 32.000000 electrons
         Band energy:  36.723742;  BLOECHL correction:  0.000000

 total amount of memory used by VASP MPI-rank0    37808. kBytes
=======================================================================

   base      :      30000. kBytes
   nonl-proj :       2686. kBytes
   fftplans  :        345. kBytes
   grid      :        481. kBytes
   one-center:          6. kBytes
   wavefun   :       4290. kBytes
 
  
  
 General timing and accounting informations for this job:
 ========================================================
  
                  Total CPU time used (sec):      119.590
                            User time (sec):      115.918
                          System time (sec):        3.672
                         Elapsed time (sec):      119.782
  
                   Maximum memory used (kb):      193692.
                   Average memory used (kb):           0.
  
                          Minor page faults:        36891
                          Major page faults:           36
                 Voluntary context switches:          784
