<?xml version="1.0" encoding="ISO-8859-1"?>
<modeling>
 <generator>
  <i name="program" type="string">vasp </i>
  <i name="version" type="string">5.4.4.18Apr17-6-g9f103f2a35  </i>
  <i name="subversion" type="string">(build Mar 12 2022 03:36:41) complex            parallel </i>
  <i name="platform" type="string">IFC19.0.3.199_CrayMPICH7.7.19 </i>
  <i name="date" type="string">2022 12 01 </i>
  <i name="time" type="string">10:18:05 </i>
 </generator>
 <incar>
  <i type="int" name="ISTART">     0</i>
  <i type="string" name="PREC">accurate</i>
  <i name="EDIFF">      0.00000100</i>
  <i name="POTIM">      0.02000000</i>
  <i type="int" name="ISMEAR">    -5</i>
  <i name="SIGMA">      0.06000000</i>
  <i type="logical" name="LWAVE"> F  </i>
  <i type="logical" name="LCHARG"> F  </i>
  <v type="int" name="KPOINT_BSE">    -1     0     0     0</v>
 </incar>
 <structure name="primitive_cell" >
  <crystal>
   <varray name="basis" >
    <v>       0.00000000      -1.74031656       1.79499968 </v>
    <v>       0.00000000       1.74031656       1.79499968 </v>
    <v>      -1.74031656       0.00000000      -1.79499968 </v>
   </varray>
   <i name="volume">     10.87303725 </i>
   <varray name="rec_basis" >
    <v>      -0.28730405      -0.28730405       0.27855158 </v>
    <v>      -0.28730405       0.28730405       0.27855158 </v>
    <v>      -0.57460811       0.00000000       0.00000000 </v>
   </varray>
  </crystal>
  <varray name="positions" >
   <v>       0.25000000      -0.25000000      -0.50000000 </v>
   <v>      -0.50000000      -0.50000000       0.00000000 </v>
  </varray>
 </structure>
 <varray name="primitive_index" >
  <v type="int" >        1 </v>
  <v type="int" >        2 </v>
 </varray>
 <kpoints>
  <generation param="Gamma">
   <v type="int" name="divisions">      12       12       12 </v>
   <v name="usershift">      0.00000000       0.00000000       0.00000000 </v>
   <v name="genvec1">      0.08333333       0.00000000       0.00000000 </v>
   <v name="genvec2">      0.00000000       0.08333333       0.00000000 </v>
   <v name="genvec3">      0.00000000       0.00000000       0.08333333 </v>
   <v name="shift">      0.00000000       0.00000000       0.00000000 </v>
  </generation>
  <varray name="kpointlist" >
   <v>       0.00000000       0.00000000       0.00000000 </v>
   <v>       0.08333333       0.00000000       0.00000000 </v>
   <v>       0.16666667       0.00000000       0.00000000 </v>
   <v>       0.25000000       0.00000000       0.00000000 </v>
   <v>       0.33333333       0.00000000       0.00000000 </v>
   <v>       0.41666667       0.00000000       0.00000000 </v>
   <v>       0.50000000       0.00000000       0.00000000 </v>
   <v>       0.08333333       0.08333333       0.00000000 </v>
   <v>       0.16666667       0.08333333       0.00000000 </v>
   <v>       0.25000000       0.08333333       0.00000000 </v>
   <v>       0.33333333       0.08333333       0.00000000 </v>
   <v>       0.41666667       0.08333333       0.00000000 </v>
   <v>       0.50000000       0.08333333       0.00000000 </v>
   <v>       0.16666667       0.16666667       0.00000000 </v>
   <v>       0.25000000       0.16666667       0.00000000 </v>
   <v>       0.33333333       0.16666667       0.00000000 </v>
   <v>       0.41666667       0.16666667       0.00000000 </v>
   <v>       0.50000000       0.16666667       0.00000000 </v>
   <v>       0.25000000       0.25000000       0.00000000 </v>
   <v>       0.33333333       0.25000000       0.00000000 </v>
   <v>       0.41666667       0.25000000       0.00000000 </v>
   <v>       0.50000000       0.25000000       0.00000000 </v>
   <v>       0.33333333       0.33333333       0.00000000 </v>
   <v>       0.41666667       0.33333333       0.00000000 </v>
   <v>       0.50000000       0.33333333       0.00000000 </v>
   <v>       0.41666667       0.41666667       0.00000000 </v>
   <v>       0.50000000       0.41666667       0.00000000 </v>
   <v>       0.50000000       0.50000000       0.00000000 </v>
   <v>       0.00000000       0.00000000       0.08333333 </v>
   <v>       0.08333333       0.00000000       0.08333333 </v>
   <v>       0.16666667       0.00000000       0.08333333 </v>
   <v>       0.25000000       0.00000000       0.08333333 </v>
   <v>       0.33333333       0.00000000       0.08333333 </v>
   <v>       0.41666667       0.00000000       0.08333333 </v>
   <v>       0.50000000       0.00000000       0.08333333 </v>
   <v>       0.08333333       0.08333333       0.08333333 </v>
   <v>       0.16666667       0.08333333       0.08333333 </v>
   <v>       0.25000000       0.08333333       0.08333333 </v>
   <v>       0.33333333       0.08333333       0.08333333 </v>
   <v>       0.41666667       0.08333333       0.08333333 </v>
   <v>       0.50000000       0.08333333       0.08333333 </v>
   <v>       0.16666667       0.16666667       0.08333333 </v>
   <v>       0.25000000       0.16666667       0.08333333 </v>
   <v>       0.33333333       0.16666667       0.08333333 </v>
   <v>       0.41666667       0.16666667       0.08333333 </v>
   <v>       0.50000000       0.16666667       0.08333333 </v>
   <v>       0.25000000       0.25000000       0.08333333 </v>
   <v>       0.33333333       0.25000000       0.08333333 </v>
   <v>       0.41666667       0.25000000       0.08333333 </v>
   <v>       0.50000000       0.25000000       0.08333333 </v>
   <v>       0.33333333       0.33333333       0.08333333 </v>
   <v>       0.41666667       0.33333333       0.08333333 </v>
   <v>       0.50000000       0.33333333       0.08333333 </v>
   <v>       0.41666667       0.41666667       0.08333333 </v>
   <v>       0.50000000       0.41666667       0.08333333 </v>
   <v>       0.50000000       0.50000000       0.08333333 </v>
   <v>       0.00000000       0.00000000       0.16666667 </v>
   <v>       0.08333333       0.00000000       0.16666667 </v>
   <v>       0.16666667       0.00000000       0.16666667 </v>
   <v>       0.25000000       0.00000000       0.16666667 </v>
   <v>       0.33333333       0.00000000       0.16666667 </v>
   <v>       0.41666667       0.00000000       0.16666667 </v>
   <v>       0.50000000       0.00000000       0.16666667 </v>
   <v>       0.08333333       0.08333333       0.16666667 </v>
   <v>       0.16666667       0.08333333       0.16666667 </v>
   <v>       0.25000000       0.08333333       0.16666667 </v>
   <v>       0.33333333       0.08333333       0.16666667 </v>
   <v>       0.41666667       0.08333333       0.16666667 </v>
   <v>       0.50000000       0.08333333       0.16666667 </v>
   <v>       0.16666667       0.16666667       0.16666667 </v>
   <v>       0.25000000       0.16666667       0.16666667 </v>
   <v>       0.33333333       0.16666667       0.16666667 </v>
   <v>       0.41666667       0.16666667       0.16666667 </v>
   <v>       0.50000000       0.16666667       0.16666667 </v>
   <v>       0.25000000       0.25000000       0.16666667 </v>
   <v>       0.33333333       0.25000000       0.16666667 </v>
   <v>       0.41666667       0.25000000       0.16666667 </v>
   <v>       0.50000000       0.25000000       0.16666667 </v>
   <v>       0.33333333       0.33333333       0.16666667 </v>
   <v>       0.41666667       0.33333333       0.16666667 </v>
   <v>       0.50000000       0.33333333       0.16666667 </v>
   <v>       0.41666667       0.41666667       0.16666667 </v>
   <v>       0.50000000       0.41666667       0.16666667 </v>
   <v>       0.50000000       0.50000000       0.16666667 </v>
   <v>       0.00000000       0.00000000       0.25000000 </v>
   <v>       0.08333333       0.00000000       0.25000000 </v>
   <v>       0.16666667       0.00000000       0.25000000 </v>
   <v>       0.25000000       0.00000000       0.25000000 </v>
   <v>       0.33333333       0.00000000       0.25000000 </v>
   <v>       0.41666667       0.00000000       0.25000000 </v>
   <v>       0.50000000       0.00000000       0.25000000 </v>
   <v>       0.08333333       0.08333333       0.25000000 </v>
   <v>       0.16666667       0.08333333       0.25000000 </v>
   <v>       0.25000000       0.08333333       0.25000000 </v>
   <v>       0.33333333       0.08333333       0.25000000 </v>
   <v>       0.41666667       0.08333333       0.25000000 </v>
   <v>       0.50000000       0.08333333       0.25000000 </v>
   <v>       0.16666667       0.16666667       0.25000000 </v>
   <v>       0.25000000       0.16666667       0.25000000 </v>
   <v>       0.33333333       0.16666667       0.25000000 </v>
   <v>       0.41666667       0.16666667       0.25000000 </v>
   <v>       0.50000000       0.16666667       0.25000000 </v>
   <v>       0.25000000       0.25000000       0.25000000 </v>
   <v>       0.33333333       0.25000000       0.25000000 </v>
   <v>       0.41666667       0.25000000       0.25000000 </v>
   <v>       0.50000000       0.25000000       0.25000000 </v>
   <v>       0.33333333       0.33333333       0.25000000 </v>
   <v>       0.41666667       0.33333333       0.25000000 </v>
   <v>       0.50000000       0.33333333       0.25000000 </v>
   <v>       0.41666667       0.41666667       0.25000000 </v>
   <v>       0.50000000       0.41666667       0.25000000 </v>
   <v>       0.50000000       0.50000000       0.25000000 </v>
   <v>       0.00000000       0.00000000       0.33333333 </v>
   <v>       0.08333333       0.00000000       0.33333333 </v>
   <v>       0.16666667       0.00000000       0.33333333 </v>
   <v>       0.25000000       0.00000000       0.33333333 </v>
   <v>       0.33333333       0.00000000       0.33333333 </v>
   <v>       0.41666667       0.00000000       0.33333333 </v>
   <v>       0.50000000       0.00000000       0.33333333 </v>
   <v>       0.08333333       0.08333333       0.33333333 </v>
   <v>       0.16666667       0.08333333       0.33333333 </v>
   <v>       0.25000000       0.08333333       0.33333333 </v>
   <v>       0.33333333       0.08333333       0.33333333 </v>
   <v>       0.41666667       0.08333333       0.33333333 </v>
   <v>       0.50000000       0.08333333       0.33333333 </v>
   <v>       0.16666667       0.16666667       0.33333333 </v>
   <v>       0.25000000       0.16666667       0.33333333 </v>
   <v>       0.33333333       0.16666667       0.33333333 </v>
   <v>       0.41666667       0.16666667       0.33333333 </v>
   <v>       0.50000000       0.16666667       0.33333333 </v>
   <v>       0.25000000       0.25000000       0.33333333 </v>
   <v>       0.33333333       0.25000000       0.33333333 </v>
   <v>       0.41666667       0.25000000       0.33333333 </v>
   <v>       0.50000000       0.25000000       0.33333333 </v>
   <v>       0.33333333       0.33333333       0.33333333 </v>
   <v>       0.41666667       0.33333333       0.33333333 </v>
   <v>       0.50000000       0.33333333       0.33333333 </v>
   <v>       0.41666667       0.41666667       0.33333333 </v>
   <v>       0.50000000       0.41666667       0.33333333 </v>
   <v>       0.50000000       0.50000000       0.33333333 </v>
   <v>       0.00000000       0.00000000       0.41666667 </v>
   <v>       0.08333333       0.00000000       0.41666667 </v>
   <v>       0.16666667       0.00000000       0.41666667 </v>
   <v>       0.25000000       0.00000000       0.41666667 </v>
   <v>       0.33333333       0.00000000       0.41666667 </v>
   <v>       0.41666667       0.00000000       0.41666667 </v>
   <v>       0.50000000       0.00000000       0.41666667 </v>
   <v>       0.08333333       0.08333333       0.41666667 </v>
   <v>       0.16666667       0.08333333       0.41666667 </v>
   <v>       0.25000000       0.08333333       0.41666667 </v>
   <v>       0.33333333       0.08333333       0.41666667 </v>
   <v>       0.41666667       0.08333333       0.41666667 </v>
   <v>       0.50000000       0.08333333       0.41666667 </v>
   <v>       0.16666667       0.16666667       0.41666667 </v>
   <v>       0.25000000       0.16666667       0.41666667 </v>
   <v>       0.33333333       0.16666667       0.41666667 </v>
   <v>       0.41666667       0.16666667       0.41666667 </v>
   <v>       0.50000000       0.16666667       0.41666667 </v>
   <v>       0.25000000       0.25000000       0.41666667 </v>
   <v>       0.33333333       0.25000000       0.41666667 </v>
   <v>       0.41666667       0.25000000       0.41666667 </v>
   <v>       0.50000000       0.25000000       0.41666667 </v>
   <v>       0.33333333       0.33333333       0.41666667 </v>
   <v>       0.41666667       0.33333333       0.41666667 </v>
   <v>       0.50000000       0.33333333       0.41666667 </v>
   <v>       0.41666667       0.41666667       0.41666667 </v>
   <v>       0.50000000       0.41666667       0.41666667 </v>
   <v>       0.50000000       0.50000000       0.41666667 </v>
   <v>       0.00000000       0.00000000       0.50000000 </v>
   <v>       0.08333333       0.00000000       0.50000000 </v>
   <v>       0.16666667       0.00000000       0.50000000 </v>
   <v>       0.25000000       0.00000000       0.50000000 </v>
   <v>       0.33333333       0.00000000       0.50000000 </v>
   <v>       0.41666667       0.00000000       0.50000000 </v>
   <v>       0.50000000       0.00000000       0.50000000 </v>
   <v>       0.08333333       0.08333333       0.50000000 </v>
   <v>       0.16666667       0.08333333       0.50000000 </v>
   <v>       0.25000000       0.08333333       0.50000000 </v>
   <v>       0.33333333       0.08333333       0.50000000 </v>
   <v>       0.41666667       0.08333333       0.50000000 </v>
   <v>       0.50000000       0.08333333       0.50000000 </v>
   <v>       0.16666667       0.16666667       0.50000000 </v>
   <v>       0.25000000       0.16666667       0.50000000 </v>
   <v>       0.33333333       0.16666667       0.50000000 </v>
   <v>       0.41666667       0.16666667       0.50000000 </v>
   <v>       0.50000000       0.16666667       0.50000000 </v>
   <v>       0.25000000       0.25000000       0.50000000 </v>
   <v>       0.33333333       0.25000000       0.50000000 </v>
   <v>       0.41666667       0.25000000       0.50000000 </v>
   <v>       0.50000000       0.25000000       0.50000000 </v>
   <v>       0.33333333       0.33333333       0.50000000 </v>
   <v>       0.41666667       0.33333333       0.50000000 </v>
   <v>       0.50000000       0.33333333       0.50000000 </v>
   <v>       0.41666667       0.41666667       0.50000000 </v>
   <v>       0.50000000       0.41666667       0.50000000 </v>
   <v>       0.50000000       0.50000000       0.50000000 </v>
  </varray>
  <varray name="weights" >
   <v>       0.00057870 </v>
   <v>       0.00231481 </v>
   <v>       0.00231481 </v>
   <v>       0.00231481 </v>
   <v>       0.00231481 </v>
   <v>       0.00231481 </v>
   <v>       0.00115741 </v>
   <v>       0.00231481 </v>
   <v>       0.00462963 </v>
   <v>       0.00462963 </v>
   <v>       0.00462963 </v>
   <v>       0.00462963 </v>
   <v>       0.00231481 </v>
   <v>       0.00231481 </v>
   <v>       0.00462963 </v>
   <v>       0.00462963 </v>
   <v>       0.00462963 </v>
   <v>       0.00231481 </v>
   <v>       0.00231481 </v>
   <v>       0.00462963 </v>
   <v>       0.00462963 </v>
   <v>       0.00231481 </v>
   <v>       0.00231481 </v>
   <v>       0.00462963 </v>
   <v>       0.00231481 </v>
   <v>       0.00231481 </v>
   <v>       0.00231481 </v>
   <v>       0.00057870 </v>
   <v>       0.00115741 </v>
   <v>       0.00462963 </v>
   <v>       0.00462963 </v>
   <v>       0.00462963 </v>
   <v>       0.00462963 </v>
   <v>       0.00462963 </v>
   <v>       0.00231481 </v>
   <v>       0.00462963 </v>
   <v>       0.00925926 </v>
   <v>       0.00925926 </v>
   <v>       0.00925926 </v>
   <v>       0.00925926 </v>
   <v>       0.00462963 </v>
   <v>       0.00462963 </v>
   <v>       0.00925926 </v>
   <v>       0.00925926 </v>
   <v>       0.00925926 </v>
   <v>       0.00462963 </v>
   <v>       0.00462963 </v>
   <v>       0.00925926 </v>
   <v>       0.00925926 </v>
   <v>       0.00462963 </v>
   <v>       0.00462963 </v>
   <v>       0.00925926 </v>
   <v>       0.00462963 </v>
   <v>       0.00462963 </v>
   <v>       0.00462963 </v>
   <v>       0.00115741 </v>
   <v>       0.00115741 </v>
   <v>       0.00462963 </v>
   <v>       0.00462963 </v>
   <v>       0.00462963 </v>
   <v>       0.00462963 </v>
   <v>       0.00462963 </v>
   <v>       0.00231481 </v>
   <v>       0.00462963 </v>
   <v>       0.00925926 </v>
   <v>       0.00925926 </v>
   <v>       0.00925926 </v>
   <v>       0.00925926 </v>
   <v>       0.00462963 </v>
   <v>       0.00462963 </v>
   <v>       0.00925926 </v>
   <v>       0.00925926 </v>
   <v>       0.00925926 </v>
   <v>       0.00462963 </v>
   <v>       0.00462963 </v>
   <v>       0.00925926 </v>
   <v>       0.00925926 </v>
   <v>       0.00462963 </v>
   <v>       0.00462963 </v>
   <v>       0.00925926 </v>
   <v>       0.00462963 </v>
   <v>       0.00462963 </v>
   <v>       0.00462963 </v>
   <v>       0.00115741 </v>
   <v>       0.00115741 </v>
   <v>       0.00462963 </v>
   <v>       0.00462963 </v>
   <v>       0.00462963 </v>
   <v>       0.00462963 </v>
   <v>       0.00462963 </v>
   <v>       0.00231481 </v>
   <v>       0.00462963 </v>
   <v>       0.00925926 </v>
   <v>       0.00925926 </v>
   <v>       0.00925926 </v>
   <v>       0.00925926 </v>
   <v>       0.00462963 </v>
   <v>       0.00462963 </v>
   <v>       0.00925926 </v>
   <v>       0.00925926 </v>
   <v>       0.00925926 </v>
   <v>       0.00462963 </v>
   <v>       0.00462963 </v>
   <v>       0.00925926 </v>
   <v>       0.00925926 </v>
   <v>       0.00462963 </v>
   <v>       0.00462963 </v>
   <v>       0.00925926 </v>
   <v>       0.00462963 </v>
   <v>       0.00462963 </v>
   <v>       0.00462963 </v>
   <v>       0.00115741 </v>
   <v>       0.00115741 </v>
   <v>       0.00462963 </v>
   <v>       0.00462963 </v>
   <v>       0.00462963 </v>
   <v>       0.00462963 </v>
   <v>       0.00462963 </v>
   <v>       0.00231481 </v>
   <v>       0.00462963 </v>
   <v>       0.00925926 </v>
   <v>       0.00925926 </v>
   <v>       0.00925926 </v>
   <v>       0.00925926 </v>
   <v>       0.00462963 </v>
   <v>       0.00462963 </v>
   <v>       0.00925926 </v>
   <v>       0.00925926 </v>
   <v>       0.00925926 </v>
   <v>       0.00462963 </v>
   <v>       0.00462963 </v>
   <v>       0.00925926 </v>
   <v>       0.00925926 </v>
   <v>       0.00462963 </v>
   <v>       0.00462963 </v>
   <v>       0.00925926 </v>
   <v>       0.00462963 </v>
   <v>       0.00462963 </v>
   <v>       0.00462963 </v>
   <v>       0.00115741 </v>
   <v>       0.00115741 </v>
   <v>       0.00462963 </v>
   <v>       0.00462963 </v>
   <v>       0.00462963 </v>
   <v>       0.00462963 </v>
   <v>       0.00462963 </v>
   <v>       0.00231481 </v>
   <v>       0.00462963 </v>
   <v>       0.00925926 </v>
   <v>       0.00925926 </v>
   <v>       0.00925926 </v>
   <v>       0.00925926 </v>
   <v>       0.00462963 </v>
   <v>       0.00462963 </v>
   <v>       0.00925926 </v>
   <v>       0.00925926 </v>
   <v>       0.00925926 </v>
   <v>       0.00462963 </v>
   <v>       0.00462963 </v>
   <v>       0.00925926 </v>
   <v>       0.00925926 </v>
   <v>       0.00462963 </v>
   <v>       0.00462963 </v>
   <v>       0.00925926 </v>
   <v>       0.00462963 </v>
   <v>       0.00462963 </v>
   <v>       0.00462963 </v>
   <v>       0.00115741 </v>
   <v>       0.00057870 </v>
   <v>       0.00231481 </v>
   <v>       0.00231481 </v>
   <v>       0.00231481 </v>
   <v>       0.00231481 </v>
   <v>       0.00231481 </v>
   <v>       0.00115741 </v>
   <v>       0.00231481 </v>
   <v>       0.00462963 </v>
   <v>       0.00462963 </v>
   <v>       0.00462963 </v>
   <v>       0.00462963 </v>
   <v>       0.00231481 </v>
   <v>       0.00231481 </v>
   <v>       0.00462963 </v>
   <v>       0.00462963 </v>
   <v>       0.00462963 </v>
   <v>       0.00231481 </v>
   <v>       0.00231481 </v>
   <v>       0.00462963 </v>
   <v>       0.00462963 </v>
   <v>       0.00231481 </v>
   <v>       0.00231481 </v>
   <v>       0.00462963 </v>
   <v>       0.00231481 </v>
   <v>       0.00231481 </v>
   <v>       0.00231481 </v>
   <v>       0.00057870 </v>
  </varray>
  <varray name="tetrahedronlist"  type="int" >
   <v type="int" >        4        1        2        8       29 </v>
   <v type="int" >        4        2        8       29       30 </v>
   <v type="int" >        4        8       29       30       36 </v>
   <v type="int" >        4        2        3        9       30 </v>
   <v type="int" >        4        2        8        9       30 </v>
   <v type="int" >        4        8        9       30       36 </v>
   <v type="int" >        4        3        9       30       31 </v>
   <v type="int" >        4        9       30       31       37 </v>
   <v type="int" >        4        9       30       36       37 </v>
   <v type="int" >        4        3        4       10       31 </v>
   <v type="int" >        4        3        9       10       31 </v>
   <v type="int" >        4        9       10       31       37 </v>
   <v type="int" >        4        4       10       31       32 </v>
   <v type="int" >        4       10       31       32       38 </v>
   <v type="int" >        4       10       31       37       38 </v>
   <v type="int" >        4        4        5       11       32 </v>
   <v type="int" >        4        4       10       11       32 </v>
   <v type="int" >        4       10       11       32       38 </v>
   <v type="int" >        4        5       11       32       33 </v>
   <v type="int" >        4       11       32       33       39 </v>
   <v type="int" >        4       11       32       38       39 </v>
   <v type="int" >        4        5        6       12       33 </v>
   <v type="int" >        4        5       11       12       33 </v>
   <v type="int" >        4       11       12       33       39 </v>
   <v type="int" >        4        6       12       33       34 </v>
   <v type="int" >        4       12       33       34       40 </v>
   <v type="int" >        4       12       33       39       40 </v>
   <v type="int" >        4        6        7       13       34 </v>
   <v type="int" >        4        6       12       13       34 </v>
   <v type="int" >        4       12       13       34       40 </v>
   <v type="int" >        4        7       13       34       35 </v>
   <v type="int" >        4       13       34       35       41 </v>
   <v type="int" >        4       13       34       40       41 </v>
   <v type="int" >        4        6        7       12       35 </v>
   <v type="int" >        4        7       12       13       35 </v>
   <v type="int" >        4       12       13       35       41 </v>
   <v type="int" >        4        6       12       34       35 </v>
   <v type="int" >        4       12       34       35       40 </v>
   <v type="int" >        4       12       35       40       41 </v>
   <v type="int" >        4        5        6       11       34 </v>
   <v type="int" >        4        6       11       12       34 </v>
   <v type="int" >        4       11       12       34       40 </v>
   <v type="int" >        4        5       11       33       34 </v>
   <v type="int" >        4       11       33       34       39 </v>
   <v type="int" >        4       11       34       39       40 </v>
   <v type="int" >        4        4        5       10       33 </v>
   <v type="int" >        4        5       10       11       33 </v>
   <v type="int" >        4       10       11       33       39 </v>
   <v type="int" >        4        4       10       32       33 </v>
   <v type="int" >        4       10       32       33       38 </v>
   <v type="int" >        4       10       33       38       39 </v>
   <v type="int" >        4        3        4        9       32 </v>
   <v type="int" >        4        4        9       10       32 </v>
   <v type="int" >        4        9       10       32       38 </v>
   <v type="int" >        4        3        9       31       32 </v>
   <v type="int" >        4        9       31       32       37 </v>
   <v type="int" >        4        9       32       37       38 </v>
   <v type="int" >        4        2        3        8       31 </v>
   <v type="int" >        4        3        8        9       31 </v>
   <v type="int" >        4        8        9       31       37 </v>
   <v type="int" >        4        2        8       30       31 </v>
   <v type="int" >        4        8       30       31       36 </v>
   <v type="int" >        4        8       31       36       37 </v>
   <v type="int" >        4        1        2        2       30 </v>
   <v type="int" >        4        2        2        8       30 </v>
   <v type="int" >        4        2        8       30       36 </v>
   <v type="int" >        4        1        2       29       30 </v>
   <v type="int" >        4        2       29       30       30 </v>
   <v type="int" >        4        2       30       30       36 </v>
   <v type="int" >        4        8        9       14       36 </v>
   <v type="int" >        4        9       14       36       37 </v>
   <v type="int" >        4       14       36       37       42 </v>
   <v type="int" >        4        9       10       15       37 </v>
   <v type="int" >        4        9       14       15       37 </v>
   <v type="int" >        4       14       15       37       42 </v>
   <v type="int" >        4       10       15       37       38 </v>
   <v type="int" >        4       15       37       38       43 </v>
   <v type="int" >        4       15       37       42       43 </v>
   <v type="int" >        4       10       11       16       38 </v>
   <v type="int" >        4       10       15       16       38 </v>
   <v type="int" >        4       15       16       38       43 </v>
   <v type="int" >        4       11       16       38       39 </v>
   <v type="int" >        4       16       38       39       44 </v>
   <v type="int" >        4       16       38       43       44 </v>
   <v type="int" >        4       11       12       17       39 </v>
   <v type="int" >        4       11       16       17       39 </v>
   <v type="int" >        4       16       17       39       44 </v>
   <v type="int" >        4       12       17       39       40 </v>
   <v type="int" >        4       17       39       40       45 </v>
   <v type="int" >        4       17       39       44       45 </v>
   <v type="int" >        4       12       13       18       40 </v>
   <v type="int" >        4       12       17       18       40 </v>
   <v type="int" >        4       17       18       40       45 </v>
   <v type="int" >        4       13       18       40       41 </v>
   <v type="int" >        4       18       40       41       46 </v>
   <v type="int" >        4       18       40       45       46 </v>
   <v type="int" >        4       12       13       17       41 </v>
   <v type="int" >        4       13       17       18       41 </v>
   <v type="int" >        4       17       18       41       46 </v>
   <v type="int" >        4       12       17       40       41 </v>
   <v type="int" >        4       17       40       41       45 </v>
   <v type="int" >        4       17       41       45       46 </v>
   <v type="int" >        4       11       12       16       40 </v>
   <v type="int" >        4       12       16       17       40 </v>
   <v type="int" >        4       16       17       40       45 </v>
   <v type="int" >        4       11       16       39       40 </v>
   <v type="int" >        4       16       39       40       44 </v>
   <v type="int" >        4       16       40       44       45 </v>
   <v type="int" >        4       10       11       15       39 </v>
   <v type="int" >        4       11       15       16       39 </v>
   <v type="int" >        4       15       16       39       44 </v>
   <v type="int" >        4       10       15       38       39 </v>
   <v type="int" >        4       15       38       39       43 </v>
   <v type="int" >        4       15       39       43       44 </v>
   <v type="int" >        4        9       10       14       38 </v>
   <v type="int" >        4       10       14       15       38 </v>
   <v type="int" >        4       14       15       38       43 </v>
   <v type="int" >        4        9       14       37       38 </v>
   <v type="int" >        4       14       37       38       42 </v>
   <v type="int" >        4       14       38       42       43 </v>
   <v type="int" >        4        8        9        9       37 </v>
   <v type="int" >        4        9        9       14       37 </v>
   <v type="int" >        4        9       14       37       42 </v>
   <v type="int" >        4        8        9       36       37 </v>
   <v type="int" >        4        9       36       37       37 </v>
   <v type="int" >        4        9       37       37       42 </v>
   <v type="int" >        4        2        3        8       36 </v>
   <v type="int" >        4        3        8        9       36 </v>
   <v type="int" >        4        3        9       36       37 </v>
   <v type="int" >        4        2        3       30       36 </v>
   <v type="int" >        4        3       30       31       36 </v>
   <v type="int" >        4        3       31       36       37 </v>
   <v type="int" >        4       14       15       19       42 </v>
   <v type="int" >        4       15       19       42       43 </v>
   <v type="int" >        4       19       42       43       47 </v>
   <v type="int" >        4       15       16       20       43 </v>
   <v type="int" >        4       15       19       20       43 </v>
   <v type="int" >        4       19       20       43       47 </v>
   <v type="int" >        4       16       20       43       44 </v>
   <v type="int" >        4       20       43       44       48 </v>
   <v type="int" >        4       20       43       47       48 </v>
   <v type="int" >        4       16       17       21       44 </v>
   <v type="int" >        4       16       20       21       44 </v>
   <v type="int" >        4       20       21       44       48 </v>
   <v type="int" >        4       17       21       44       45 </v>
   <v type="int" >        4       21       44       45       49 </v>
   <v type="int" >        4       21       44       48       49 </v>
   <v type="int" >        4       17       18       22       45 </v>
   <v type="int" >        4       17       21       22       45 </v>
   <v type="int" >        4       21       22       45       49 </v>
   <v type="int" >        4       18       22       45       46 </v>
   <v type="int" >        4       22       45       46       50 </v>
   <v type="int" >        4       22       45       49       50 </v>
   <v type="int" >        4       17       18       21       46 </v>
   <v type="int" >        4       18       21       22       46 </v>
   <v type="int" >        4       21       22       46       50 </v>
   <v type="int" >        4       17       21       45       46 </v>
   <v type="int" >        4       21       45       46       49 </v>
   <v type="int" >        4       21       46       49       50 </v>
   <v type="int" >        4       16       17       20       45 </v>
   <v type="int" >        4       17       20       21       45 </v>
   <v type="int" >        4       20       21       45       49 </v>
   <v type="int" >        4       16       20       44       45 </v>
   <v type="int" >        4       20       44       45       48 </v>
   <v type="int" >        4       20       45       48       49 </v>
   <v type="int" >        4       15       16       19       44 </v>
   <v type="int" >        4       16       19       20       44 </v>
   <v type="int" >        4       19       20       44       48 </v>
   <v type="int" >        4       15       19       43       44 </v>
   <v type="int" >        4       19       43       44       47 </v>
   <v type="int" >        4       19       44       47       48 </v>
   <v type="int" >        4       14       15       15       43 </v>
   <v type="int" >        4       15       15       19       43 </v>
   <v type="int" >        4       15       19       43       47 </v>
   <v type="int" >        4       14       15       42       43 </v>
   <v type="int" >        4       15       42       43       43 </v>
   <v type="int" >        4       15       43       43       47 </v>
   <v type="int" >        4        9       10       14       42 </v>
   <v type="int" >        4       10       14       15       42 </v>
   <v type="int" >        4       10       15       42       43 </v>
   <v type="int" >        4        9       10       37       42 </v>
   <v type="int" >        4       10       37       38       42 </v>
   <v type="int" >        4       10       38       42       43 </v>
   <v type="int" >        4        3        4        9       37 </v>
   <v type="int" >        4        4        9       10       37 </v>
   <v type="int" >        4        4       10       37       38 </v>
   <v type="int" >        4        3        4       31       37 </v>
   <v type="int" >        4        4       31       32       37 </v>
   <v type="int" >        4        4       32       37       38 </v>
   <v type="int" >        4       19       20       23       47 </v>
   <v type="int" >        4       20       23       47       48 </v>
   <v type="int" >        4       23       47       48       51 </v>
   <v type="int" >        4       20       21       24       48 </v>
   <v type="int" >        4       20       23       24       48 </v>
   <v type="int" >        4       23       24       48       51 </v>
   <v type="int" >        4       21       24       48       49 </v>
   <v type="int" >        4       24       48       49       52 </v>
   <v type="int" >        4       24       48       51       52 </v>
   <v type="int" >        4       21       22       25       49 </v>
   <v type="int" >        4       21       24       25       49 </v>
   <v type="int" >        4       24       25       49       52 </v>
   <v type="int" >        4       22       25       49       50 </v>
   <v type="int" >        4       25       49       50       53 </v>
   <v type="int" >        4       25       49       52       53 </v>
   <v type="int" >        4       21       22       24       50 </v>
   <v type="int" >        4       22       24       25       50 </v>
   <v type="int" >        4       24       25       50       53 </v>
   <v type="int" >        4       21       24       49       50 </v>
   <v type="int" >        4       24       49       50       52 </v>
   <v type="int" >        4       24       50       52       53 </v>
   <v type="int" >        4       20       21       23       49 </v>
   <v type="int" >        4       21       23       24       49 </v>
   <v type="int" >        4       23       24       49       52 </v>
   <v type="int" >        4       20       23       48       49 </v>
   <v type="int" >        4       23       48       49       51 </v>
   <v type="int" >        4       23       49       51       52 </v>
   <v type="int" >        4       19       20       20       48 </v>
   <v type="int" >        4       20       20       23       48 </v>
   <v type="int" >        4       20       23       48       51 </v>
   <v type="int" >        4       19       20       47       48 </v>
   <v type="int" >        4       20       47       48       48 </v>
   <v type="int" >        4       20       48       48       51 </v>
   <v type="int" >        4       15       16       19       47 </v>
   <v type="int" >        4       16       19       20       47 </v>
   <v type="int" >        4       16       20       47       48 </v>
   <v type="int" >        4       15       16       43       47 </v>
   <v type="int" >        4       16       43       44       47 </v>
   <v type="int" >        4       16       44       47       48 </v>
   <v type="int" >        4       10       11       15       43 </v>
   <v type="int" >        4       11       15       16       43 </v>
   <v type="int" >        4       11       16       43       44 </v>
   <v type="int" >        4       10       11       38       43 </v>
   <v type="int" >        4       11       38       39       43 </v>
   <v type="int" >        4       11       39       43       44 </v>
   <v type="int" >        4        4        5       10       38 </v>
   <v type="int" >        4        5       10       11       38 </v>
   <v type="int" >        4        5       11       38       39 </v>
   <v type="int" >        4        4        5       32       38 </v>
   <v type="int" >        4        5       32       33       38 </v>
   <v type="int" >        4        5       33       38       39 </v>
   <v type="int" >        4       23       24       26       51 </v>
   <v type="int" >        4       24       26       51       52 </v>
   <v type="int" >        4       26       51       52       54 </v>
   <v type="int" >        4       24       25       27       52 </v>
   <v type="int" >        4       24       26       27       52 </v>
   <v type="int" >        4       26       27       52       54 </v>
   <v type="int" >        4       25       27       52       53 </v>
   <v type="int" >        4       27       52       53       55 </v>
   <v type="int" >        4       27       52       54       55 </v>
   <v type="int" >        4       24       25       26       53 </v>
   <v type="int" >        4       25       26       27       53 </v>
   <v type="int" >        4       26       27       53       55 </v>
   <v type="int" >        4       24       26       52       53 </v>
   <v type="int" >        4       26       52       53       54 </v>
   <v type="int" >        4       26       53       54       55 </v>
   <v type="int" >        4       23       24       24       52 </v>
   <v type="int" >        4       24       24       26       52 </v>
   <v type="int" >        4       24       26       52       54 </v>
   <v type="int" >        4       23       24       51       52 </v>
   <v type="int" >        4       24       51       52       52 </v>
   <v type="int" >        4       24       52       52       54 </v>
   <v type="int" >        4       20       21       23       51 </v>
   <v type="int" >        4       21       23       24       51 </v>
   <v type="int" >        4       21       24       51       52 </v>
   <v type="int" >        4       20       21       48       51 </v>
   <v type="int" >        4       21       48       49       51 </v>
   <v type="int" >        4       21       49       51       52 </v>
   <v type="int" >        4       16       17       20       48 </v>
   <v type="int" >        4       17       20       21       48 </v>
   <v type="int" >        4       17       21       48       49 </v>
   <v type="int" >        4       16       17       44       48 </v>
   <v type="int" >        4       17       44       45       48 </v>
   <v type="int" >        4       17       45       48       49 </v>
   <v type="int" >        4       11       12       16       44 </v>
   <v type="int" >        4       12       16       17       44 </v>
   <v type="int" >        4       12       17       44       45 </v>
   <v type="int" >        4       11       12       39       44 </v>
   <v type="int" >        4       12       39       40       44 </v>
   <v type="int" >        4       12       40       44       45 </v>
   <v type="int" >        4        5        6       11       39 </v>
   <v type="int" >        4        6       11       12       39 </v>
   <v type="int" >        4        6       12       39       40 </v>
   <v type="int" >        4        5        6       33       39 </v>
   <v type="int" >        4        6       33       34       39 </v>
   <v type="int" >        4        6       34       39       40 </v>
   <v type="int" >        4       26       27       28       54 </v>
   <v type="int" >        4       27       28       54       55 </v>
   <v type="int" >        4       28       54       55       56 </v>
   <v type="int" >        4       26       27       27       55 </v>
   <v type="int" >        4       27       27       28       55 </v>
   <v type="int" >        4       27       28       55       56 </v>
   <v type="int" >        4       26       27       54       55 </v>
   <v type="int" >        4       27       54       55       55 </v>
   <v type="int" >        4       27       55       55       56 </v>
   <v type="int" >        4       24       25       26       54 </v>
   <v type="int" >        4       25       26       27       54 </v>
   <v type="int" >        4       25       27       54       55 </v>
   <v type="int" >        4       24       25       52       54 </v>
   <v type="int" >        4       25       52       53       54 </v>
   <v type="int" >        4       25       53       54       55 </v>
   <v type="int" >        4       21       22       24       52 </v>
   <v type="int" >        4       22       24       25       52 </v>
   <v type="int" >        4       22       25       52       53 </v>
   <v type="int" >        4       21       22       49       52 </v>
   <v type="int" >        4       22       49       50       52 </v>
   <v type="int" >        4       22       50       52       53 </v>
   <v type="int" >        4       17       18       21       49 </v>
   <v type="int" >        4       18       21       22       49 </v>
   <v type="int" >        4       18       22       49       50 </v>
   <v type="int" >        4       17       18       45       49 </v>
   <v type="int" >        4       18       45       46       49 </v>
   <v type="int" >        4       18       46       49       50 </v>
   <v type="int" >        4       12       13       17       45 </v>
   <v type="int" >        4       13       17       18       45 </v>
   <v type="int" >        4       13       18       45       46 </v>
   <v type="int" >        4       12       13       40       45 </v>
   <v type="int" >        4       13       40       41       45 </v>
   <v type="int" >        4       13       41       45       46 </v>
   <v type="int" >        4        6        7       12       40 </v>
   <v type="int" >        4        7       12       13       40 </v>
   <v type="int" >        4        7       13       40       41 </v>
   <v type="int" >        4        6        7       34       40 </v>
   <v type="int" >        4        7       34       35       40 </v>
   <v type="int" >        4        7       35       40       41 </v>
   <v type="int" >        4       26       27       28       56 </v>
   <v type="int" >        4       26       27       55       56 </v>
   <v type="int" >        4       26       54       55       56 </v>
   <v type="int" >        4       24       25       27       55 </v>
   <v type="int" >        4       24       26       27       55 </v>
   <v type="int" >        4       24       26       54       55 </v>
   <v type="int" >        4       24       25       53       55 </v>
   <v type="int" >        4       24       52       53       55 </v>
   <v type="int" >        4       24       52       54       55 </v>
   <v type="int" >        4       21       22       25       53 </v>
   <v type="int" >        4       21       24       25       53 </v>
   <v type="int" >        4       21       24       52       53 </v>
   <v type="int" >        4       21       22       50       53 </v>
   <v type="int" >        4       21       49       50       53 </v>
   <v type="int" >        4       21       49       52       53 </v>
   <v type="int" >        4       17       18       22       50 </v>
   <v type="int" >        4       17       21       22       50 </v>
   <v type="int" >        4       17       21       49       50 </v>
   <v type="int" >        4       17       18       46       50 </v>
   <v type="int" >        4       17       45       46       50 </v>
   <v type="int" >        4       17       45       49       50 </v>
   <v type="int" >        4       12       13       18       46 </v>
   <v type="int" >        4       12       17       18       46 </v>
   <v type="int" >        4       12       17       45       46 </v>
   <v type="int" >        4       12       13       41       46 </v>
   <v type="int" >        4       12       40       41       46 </v>
   <v type="int" >        4       12       40       45       46 </v>
   <v type="int" >        4        6        7       13       41 </v>
   <v type="int" >        4        6       12       13       41 </v>
   <v type="int" >        4        6       12       40       41 </v>
   <v type="int" >        4        6        7       35       41 </v>
   <v type="int" >        4        6       34       35       41 </v>
   <v type="int" >        4        6       34       40       41 </v>
   <v type="int" >        4       23       24       26       54 </v>
   <v type="int" >        4       23       24       52       54 </v>
   <v type="int" >        4       23       51       52       54 </v>
   <v type="int" >        4       20       21       24       52 </v>
   <v type="int" >        4       20       23       24       52 </v>
   <v type="int" >        4       20       23       51       52 </v>
   <v type="int" >        4       20       21       49       52 </v>
   <v type="int" >        4       20       48       49       52 </v>
   <v type="int" >        4       20       48       51       52 </v>
   <v type="int" >        4       16       17       21       49 </v>
   <v type="int" >        4       16       20       21       49 </v>
   <v type="int" >        4       16       20       48       49 </v>
   <v type="int" >        4       16       17       45       49 </v>
   <v type="int" >        4       16       44       45       49 </v>
   <v type="int" >        4       16       44       48       49 </v>
   <v type="int" >        4       11       12       17       45 </v>
   <v type="int" >        4       11       16       17       45 </v>
   <v type="int" >        4       11       16       44       45 </v>
   <v type="int" >        4       11       12       40       45 </v>
   <v type="int" >        4       11       39       40       45 </v>
   <v type="int" >        4       11       39       44       45 </v>
   <v type="int" >        4        5        6       12       40 </v>
   <v type="int" >        4        5       11       12       40 </v>
   <v type="int" >        4        5       11       39       40 </v>
   <v type="int" >        4        5        6       34       40 </v>
   <v type="int" >        4        5       33       34       40 </v>
   <v type="int" >        4        5       33       39       40 </v>
   <v type="int" >        4       19       20       23       51 </v>
   <v type="int" >        4       19       20       48       51 </v>
   <v type="int" >        4       19       47       48       51 </v>
   <v type="int" >        4       15       16       20       48 </v>
   <v type="int" >        4       15       19       20       48 </v>
   <v type="int" >        4       15       19       47       48 </v>
   <v type="int" >        4       15       16       44       48 </v>
   <v type="int" >        4       15       43       44       48 </v>
   <v type="int" >        4       15       43       47       48 </v>
   <v type="int" >        4       10       11       16       44 </v>
   <v type="int" >        4       10       15       16       44 </v>
   <v type="int" >        4       10       15       43       44 </v>
   <v type="int" >        4       10       11       39       44 </v>
   <v type="int" >        4       10       38       39       44 </v>
   <v type="int" >        4       10       38       43       44 </v>
   <v type="int" >        4        4        5       11       39 </v>
   <v type="int" >        4        4       10       11       39 </v>
   <v type="int" >        4        4       10       38       39 </v>
   <v type="int" >        4        4        5       33       39 </v>
   <v type="int" >        4        4       32       33       39 </v>
   <v type="int" >        4        4       32       38       39 </v>
   <v type="int" >        4       14       15       19       47 </v>
   <v type="int" >        4       14       15       43       47 </v>
   <v type="int" >        4       14       42       43       47 </v>
   <v type="int" >        4        9       10       15       43 </v>
   <v type="int" >        4        9       14       15       43 </v>
   <v type="int" >        4        9       14       42       43 </v>
   <v type="int" >        4        9       10       38       43 </v>
   <v type="int" >        4        9       37       38       43 </v>
   <v type="int" >        4        9       37       42       43 </v>
   <v type="int" >        4        3        4       10       38 </v>
   <v type="int" >        4        3        9       10       38 </v>
   <v type="int" >        4        3        9       37       38 </v>
   <v type="int" >        4        3        4       32       38 </v>
   <v type="int" >        4        3       31       32       38 </v>
   <v type="int" >        4        3       31       37       38 </v>
   <v type="int" >        4        8        9       14       42 </v>
   <v type="int" >        4        8        9       37       42 </v>
   <v type="int" >        4        8       36       37       42 </v>
   <v type="int" >        4        2        3        9       37 </v>
   <v type="int" >        4        2        8        9       37 </v>
   <v type="int" >        4        2        8       36       37 </v>
   <v type="int" >        4        2        3       31       37 </v>
   <v type="int" >        4        2       30       31       37 </v>
   <v type="int" >        4        2       30       36       37 </v>
   <v type="int" >        4        1        2        8       36 </v>
   <v type="int" >        4        1        2       30       36 </v>
   <v type="int" >        4        1       29       30       36 </v>
   <v type="int" >        4       29       30       36       57 </v>
   <v type="int" >        4       30       36       57       58 </v>
   <v type="int" >        4       36       57       58       64 </v>
   <v type="int" >        4       30       31       37       58 </v>
   <v type="int" >        4       30       36       37       58 </v>
   <v type="int" >        4       36       37       58       64 </v>
   <v type="int" >        4       31       37       58       59 </v>
   <v type="int" >        4       37       58       59       65 </v>
   <v type="int" >        4       37       58       64       65 </v>
   <v type="int" >        4       31       32       38       59 </v>
   <v type="int" >        4       31       37       38       59 </v>
   <v type="int" >        4       37       38       59       65 </v>
   <v type="int" >        4       32       38       59       60 </v>
   <v type="int" >        4       38       59       60       66 </v>
   <v type="int" >        4       38       59       65       66 </v>
   <v type="int" >        4       32       33       39       60 </v>
   <v type="int" >        4       32       38       39       60 </v>
   <v type="int" >        4       38       39       60       66 </v>
   <v type="int" >        4       33       39       60       61 </v>
   <v type="int" >        4       39       60       61       67 </v>
   <v type="int" >        4       39       60       66       67 </v>
   <v type="int" >        4       33       34       40       61 </v>
   <v type="int" >        4       33       39       40       61 </v>
   <v type="int" >        4       39       40       61       67 </v>
   <v type="int" >        4       34       40       61       62 </v>
   <v type="int" >        4       40       61       62       68 </v>
   <v type="int" >        4       40       61       67       68 </v>
   <v type="int" >        4       34       35       41       62 </v>
   <v type="int" >        4       34       40       41       62 </v>
   <v type="int" >        4       40       41       62       68 </v>
   <v type="int" >        4       35       41       62       63 </v>
   <v type="int" >        4       41       62       63       69 </v>
   <v type="int" >        4       41       62       68       69 </v>
   <v type="int" >        4       34       35       40       63 </v>
   <v type="int" >        4       35       40       41       63 </v>
   <v type="int" >        4       40       41       63       69 </v>
   <v type="int" >        4       34       40       62       63 </v>
   <v type="int" >        4       40       62       63       68 </v>
   <v type="int" >        4       40       63       68       69 </v>
   <v type="int" >        4       33       34       39       62 </v>
   <v type="int" >        4       34       39       40       62 </v>
   <v type="int" >        4       39       40       62       68 </v>
   <v type="int" >        4       33       39       61       62 </v>
   <v type="int" >        4       39       61       62       67 </v>
   <v type="int" >        4       39       62       67       68 </v>
   <v type="int" >        4       32       33       38       61 </v>
   <v type="int" >        4       33       38       39       61 </v>
   <v type="int" >        4       38       39       61       67 </v>
   <v type="int" >        4       32       38       60       61 </v>
   <v type="int" >        4       38       60       61       66 </v>
   <v type="int" >        4       38       61       66       67 </v>
   <v type="int" >        4       31       32       37       60 </v>
   <v type="int" >        4       32       37       38       60 </v>
   <v type="int" >        4       37       38       60       66 </v>
   <v type="int" >        4       31       37       59       60 </v>
   <v type="int" >        4       37       59       60       65 </v>
   <v type="int" >        4       37       60       65       66 </v>
   <v type="int" >        4       30       31       36       59 </v>
   <v type="int" >        4       31       36       37       59 </v>
   <v type="int" >        4       36       37       59       65 </v>
   <v type="int" >        4       30       36       58       59 </v>
   <v type="int" >        4       36       58       59       64 </v>
   <v type="int" >        4       36       59       64       65 </v>
   <v type="int" >        4       29       30       30       58 </v>
   <v type="int" >        4       30       30       36       58 </v>
   <v type="int" >        4       30       36       58       64 </v>
   <v type="int" >        4       29       30       57       58 </v>
   <v type="int" >        4       30       57       58       58 </v>
   <v type="int" >        4       30       58       58       64 </v>
   <v type="int" >        4       36       37       42       64 </v>
   <v type="int" >        4       37       42       64       65 </v>
   <v type="int" >        4       42       64       65       70 </v>
   <v type="int" >        4       37       38       43       65 </v>
   <v type="int" >        4       37       42       43       65 </v>
   <v type="int" >        4       42       43       65       70 </v>
   <v type="int" >        4       38       43       65       66 </v>
   <v type="int" >        4       43       65       66       71 </v>
   <v type="int" >        4       43       65       70       71 </v>
   <v type="int" >        4       38       39       44       66 </v>
   <v type="int" >        4       38       43       44       66 </v>
   <v type="int" >        4       43       44       66       71 </v>
   <v type="int" >        4       39       44       66       67 </v>
   <v type="int" >        4       44       66       67       72 </v>
   <v type="int" >        4       44       66       71       72 </v>
   <v type="int" >        4       39       40       45       67 </v>
   <v type="int" >        4       39       44       45       67 </v>
   <v type="int" >        4       44       45       67       72 </v>
   <v type="int" >        4       40       45       67       68 </v>
   <v type="int" >        4       45       67       68       73 </v>
   <v type="int" >        4       45       67       72       73 </v>
   <v type="int" >        4       40       41       46       68 </v>
   <v type="int" >        4       40       45       46       68 </v>
   <v type="int" >        4       45       46       68       73 </v>
   <v type="int" >        4       41       46       68       69 </v>
   <v type="int" >        4       46       68       69       74 </v>
   <v type="int" >        4       46       68       73       74 </v>
   <v type="int" >        4       40       41       45       69 </v>
   <v type="int" >        4       41       45       46       69 </v>
   <v type="int" >        4       45       46       69       74 </v>
   <v type="int" >        4       40       45       68       69 </v>
   <v type="int" >        4       45       68       69       73 </v>
   <v type="int" >        4       45       69       73       74 </v>
   <v type="int" >        4       39       40       44       68 </v>
   <v type="int" >        4       40       44       45       68 </v>
   <v type="int" >        4       44       45       68       73 </v>
   <v type="int" >        4       39       44       67       68 </v>
   <v type="int" >        4       44       67       68       72 </v>
   <v type="int" >        4       44       68       72       73 </v>
   <v type="int" >        4       38       39       43       67 </v>
   <v type="int" >        4       39       43       44       67 </v>
   <v type="int" >        4       43       44       67       72 </v>
   <v type="int" >        4       38       43       66       67 </v>
   <v type="int" >        4       43       66       67       71 </v>
   <v type="int" >        4       43       67       71       72 </v>
   <v type="int" >        4       37       38       42       66 </v>
   <v type="int" >        4       38       42       43       66 </v>
   <v type="int" >        4       42       43       66       71 </v>
   <v type="int" >        4       37       42       65       66 </v>
   <v type="int" >        4       42       65       66       70 </v>
   <v type="int" >        4       42       66       70       71 </v>
   <v type="int" >        4       36       37       37       65 </v>
   <v type="int" >        4       37       37       42       65 </v>
   <v type="int" >        4       37       42       65       70 </v>
   <v type="int" >        4       36       37       64       65 </v>
   <v type="int" >        4       37       64       65       65 </v>
   <v type="int" >        4       37       65       65       70 </v>
   <v type="int" >        4       30       31       36       64 </v>
   <v type="int" >        4       31       36       37       64 </v>
   <v type="int" >        4       31       37       64       65 </v>
   <v type="int" >        4       30       31       58       64 </v>
   <v type="int" >        4       31       58       59       64 </v>
   <v type="int" >        4       31       59       64       65 </v>
   <v type="int" >        4       42       43       47       70 </v>
   <v type="int" >        4       43       47       70       71 </v>
   <v type="int" >        4       47       70       71       75 </v>
   <v type="int" >        4       43       44       48       71 </v>
   <v type="int" >        4       43       47       48       71 </v>
   <v type="int" >        4       47       48       71       75 </v>
   <v type="int" >        4       44       48       71       72 </v>
   <v type="int" >        4       48       71       72       76 </v>
   <v type="int" >        4       48       71       75       76 </v>
   <v type="int" >        4       44       45       49       72 </v>
   <v type="int" >        4       44       48       49       72 </v>
   <v type="int" >        4       48       49       72       76 </v>
   <v type="int" >        4       45       49       72       73 </v>
   <v type="int" >        4       49       72       73       77 </v>
   <v type="int" >        4       49       72       76       77 </v>
   <v type="int" >        4       45       46       50       73 </v>
   <v type="int" >        4       45       49       50       73 </v>
   <v type="int" >        4       49       50       73       77 </v>
   <v type="int" >        4       46       50       73       74 </v>
   <v type="int" >        4       50       73       74       78 </v>
   <v type="int" >        4       50       73       77       78 </v>
   <v type="int" >        4       45       46       49       74 </v>
   <v type="int" >        4       46       49       50       74 </v>
   <v type="int" >        4       49       50       74       78 </v>
   <v type="int" >        4       45       49       73       74 </v>
   <v type="int" >        4       49       73       74       77 </v>
   <v type="int" >        4       49       74       77       78 </v>
   <v type="int" >        4       44       45       48       73 </v>
   <v type="int" >        4       45       48       49       73 </v>
   <v type="int" >        4       48       49       73       77 </v>
   <v type="int" >        4       44       48       72       73 </v>
   <v type="int" >        4       48       72       73       76 </v>
   <v type="int" >        4       48       73       76       77 </v>
   <v type="int" >        4       43       44       47       72 </v>
   <v type="int" >        4       44       47       48       72 </v>
   <v type="int" >        4       47       48       72       76 </v>
   <v type="int" >        4       43       47       71       72 </v>
   <v type="int" >        4       47       71       72       75 </v>
   <v type="int" >        4       47       72       75       76 </v>
   <v type="int" >        4       42       43       43       71 </v>
   <v type="int" >        4       43       43       47       71 </v>
   <v type="int" >        4       43       47       71       75 </v>
   <v type="int" >        4       42       43       70       71 </v>
   <v type="int" >        4       43       70       71       71 </v>
   <v type="int" >        4       43       71       71       75 </v>
   <v type="int" >        4       37       38       42       70 </v>
   <v type="int" >        4       38       42       43       70 </v>
   <v type="int" >        4       38       43       70       71 </v>
   <v type="int" >        4       37       38       65       70 </v>
   <v type="int" >        4       38       65       66       70 </v>
   <v type="int" >        4       38       66       70       71 </v>
   <v type="int" >        4       31       32       37       65 </v>
   <v type="int" >        4       32       37       38       65 </v>
   <v type="int" >        4       32       38       65       66 </v>
   <v type="int" >        4       31       32       59       65 </v>
   <v type="int" >        4       32       59       60       65 </v>
   <v type="int" >        4       32       60       65       66 </v>
   <v type="int" >        4       47       48       51       75 </v>
   <v type="int" >        4       48       51       75       76 </v>
   <v type="int" >        4       51       75       76       79 </v>
   <v type="int" >        4       48       49       52       76 </v>
   <v type="int" >        4       48       51       52       76 </v>
   <v type="int" >        4       51       52       76       79 </v>
   <v type="int" >        4       49       52       76       77 </v>
   <v type="int" >        4       52       76       77       80 </v>
   <v type="int" >        4       52       76       79       80 </v>
   <v type="int" >        4       49       50       53       77 </v>
   <v type="int" >        4       49       52       53       77 </v>
   <v type="int" >        4       52       53       77       80 </v>
   <v type="int" >        4       50       53       77       78 </v>
   <v type="int" >        4       53       77       78       81 </v>
   <v type="int" >        4       53       77       80       81 </v>
   <v type="int" >        4       49       50       52       78 </v>
   <v type="int" >        4       50       52       53       78 </v>
   <v type="int" >        4       52       53       78       81 </v>
   <v type="int" >        4       49       52       77       78 </v>
   <v type="int" >        4       52       77       78       80 </v>
   <v type="int" >        4       52       78       80       81 </v>
   <v type="int" >        4       48       49       51       77 </v>
   <v type="int" >        4       49       51       52       77 </v>
   <v type="int" >        4       51       52       77       80 </v>
   <v type="int" >        4       48       51       76       77 </v>
   <v type="int" >        4       51       76       77       79 </v>
   <v type="int" >        4       51       77       79       80 </v>
   <v type="int" >        4       47       48       48       76 </v>
   <v type="int" >        4       48       48       51       76 </v>
   <v type="int" >        4       48       51       76       79 </v>
   <v type="int" >        4       47       48       75       76 </v>
   <v type="int" >        4       48       75       76       76 </v>
   <v type="int" >        4       48       76       76       79 </v>
   <v type="int" >        4       43       44       47       75 </v>
   <v type="int" >        4       44       47       48       75 </v>
   <v type="int" >        4       44       48       75       76 </v>
   <v type="int" >        4       43       44       71       75 </v>
   <v type="int" >        4       44       71       72       75 </v>
   <v type="int" >        4       44       72       75       76 </v>
   <v type="int" >        4       38       39       43       71 </v>
   <v type="int" >        4       39       43       44       71 </v>
   <v type="int" >        4       39       44       71       72 </v>
   <v type="int" >        4       38       39       66       71 </v>
   <v type="int" >        4       39       66       67       71 </v>
   <v type="int" >        4       39       67       71       72 </v>
   <v type="int" >        4       32       33       38       66 </v>
   <v type="int" >        4       33       38       39       66 </v>
   <v type="int" >        4       33       39       66       67 </v>
   <v type="int" >        4       32       33       60       66 </v>
   <v type="int" >        4       33       60       61       66 </v>
   <v type="int" >        4       33       61       66       67 </v>
   <v type="int" >        4       51       52       54       79 </v>
   <v type="int" >        4       52       54       79       80 </v>
   <v type="int" >        4       54       79       80       82 </v>
   <v type="int" >        4       52       53       55       80 </v>
   <v type="int" >        4       52       54       55       80 </v>
   <v type="int" >        4       54       55       80       82 </v>
   <v type="int" >        4       53       55       80       81 </v>
   <v type="int" >        4       55       80       81       83 </v>
   <v type="int" >        4       55       80       82       83 </v>
   <v type="int" >        4       52       53       54       81 </v>
   <v type="int" >        4       53       54       55       81 </v>
   <v type="int" >        4       54       55       81       83 </v>
   <v type="int" >        4       52       54       80       81 </v>
   <v type="int" >        4       54       80       81       82 </v>
   <v type="int" >        4       54       81       82       83 </v>
   <v type="int" >        4       51       52       52       80 </v>
   <v type="int" >        4       52       52       54       80 </v>
   <v type="int" >        4       52       54       80       82 </v>
   <v type="int" >        4       51       52       79       80 </v>
   <v type="int" >        4       52       79       80       80 </v>
   <v type="int" >        4       52       80       80       82 </v>
   <v type="int" >        4       48       49       51       79 </v>
   <v type="int" >        4       49       51       52       79 </v>
   <v type="int" >        4       49       52       79       80 </v>
   <v type="int" >        4       48       49       76       79 </v>
   <v type="int" >        4       49       76       77       79 </v>
   <v type="int" >        4       49       77       79       80 </v>
   <v type="int" >        4       44       45       48       76 </v>
   <v type="int" >        4       45       48       49       76 </v>
   <v type="int" >        4       45       49       76       77 </v>
   <v type="int" >        4       44       45       72       76 </v>
   <v type="int" >        4       45       72       73       76 </v>
   <v type="int" >        4       45       73       76       77 </v>
   <v type="int" >        4       39       40       44       72 </v>
   <v type="int" >        4       40       44       45       72 </v>
   <v type="int" >        4       40       45       72       73 </v>
   <v type="int" >        4       39       40       67       72 </v>
   <v type="int" >        4       40       67       68       72 </v>
   <v type="int" >        4       40       68       72       73 </v>
   <v type="int" >        4       33       34       39       67 </v>
   <v type="int" >        4       34       39       40       67 </v>
   <v type="int" >        4       34       40       67       68 </v>
   <v type="int" >        4       33       34       61       67 </v>
   <v type="int" >        4       34       61       62       67 </v>
   <v type="int" >        4       34       62       67       68 </v>
   <v type="int" >        4       54       55       56       82 </v>
   <v type="int" >        4       55       56       82       83 </v>
   <v type="int" >        4       56       82       83       84 </v>
   <v type="int" >        4       54       55       55       83 </v>
   <v type="int" >        4       55       55       56       83 </v>
   <v type="int" >        4       55       56       83       84 </v>
   <v type="int" >        4       54       55       82       83 </v>
   <v type="int" >        4       55       82       83       83 </v>
   <v type="int" >        4       55       83       83       84 </v>
   <v type="int" >        4       52       53       54       82 </v>
   <v type="int" >        4       53       54       55       82 </v>
   <v type="int" >        4       53       55       82       83 </v>
   <v type="int" >        4       52       53       80       82 </v>
   <v type="int" >        4       53       80       81       82 </v>
   <v type="int" >        4       53       81       82       83 </v>
   <v type="int" >        4       49       50       52       80 </v>
   <v type="int" >        4       50       52       53       80 </v>
   <v type="int" >        4       50       53       80       81 </v>
   <v type="int" >        4       49       50       77       80 </v>
   <v type="int" >        4       50       77       78       80 </v>
   <v type="int" >        4       50       78       80       81 </v>
   <v type="int" >        4       45       46       49       77 </v>
   <v type="int" >        4       46       49       50       77 </v>
   <v type="int" >        4       46       50       77       78 </v>
   <v type="int" >        4       45       46       73       77 </v>
   <v type="int" >        4       46       73       74       77 </v>
   <v type="int" >        4       46       74       77       78 </v>
   <v type="int" >        4       40       41       45       73 </v>
   <v type="int" >        4       41       45       46       73 </v>
   <v type="int" >        4       41       46       73       74 </v>
   <v type="int" >        4       40       41       68       73 </v>
   <v type="int" >        4       41       68       69       73 </v>
   <v type="int" >        4       41       69       73       74 </v>
   <v type="int" >        4       34       35       40       68 </v>
   <v type="int" >        4       35       40       41       68 </v>
   <v type="int" >        4       35       41       68       69 </v>
   <v type="int" >        4       34       35       62       68 </v>
   <v type="int" >        4       35       62       63       68 </v>
   <v type="int" >        4       35       63       68       69 </v>
   <v type="int" >        4       54       55       56       84 </v>
   <v type="int" >        4       54       55       83       84 </v>
   <v type="int" >        4       54       82       83       84 </v>
   <v type="int" >        4       52       53       55       83 </v>
   <v type="int" >        4       52       54       55       83 </v>
   <v type="int" >        4       52       54       82       83 </v>
   <v type="int" >        4       52       53       81       83 </v>
   <v type="int" >        4       52       80       81       83 </v>
   <v type="int" >        4       52       80       82       83 </v>
   <v type="int" >        4       49       50       53       81 </v>
   <v type="int" >        4       49       52       53       81 </v>
   <v type="int" >        4       49       52       80       81 </v>
   <v type="int" >        4       49       50       78       81 </v>
   <v type="int" >        4       49       77       78       81 </v>
   <v type="int" >        4       49       77       80       81 </v>
   <v type="int" >        4       45       46       50       78 </v>
   <v type="int" >        4       45       49       50       78 </v>
   <v type="int" >        4       45       49       77       78 </v>
   <v type="int" >        4       45       46       74       78 </v>
   <v type="int" >        4       45       73       74       78 </v>
   <v type="int" >        4       45       73       77       78 </v>
   <v type="int" >        4       40       41       46       74 </v>
   <v type="int" >        4       40       45       46       74 </v>
   <v type="int" >        4       40       45       73       74 </v>
   <v type="int" >        4       40       41       69       74 </v>
   <v type="int" >        4       40       68       69       74 </v>
   <v type="int" >        4       40       68       73       74 </v>
   <v type="int" >        4       34       35       41       69 </v>
   <v type="int" >        4       34       40       41       69 </v>
   <v type="int" >        4       34       40       68       69 </v>
   <v type="int" >        4       34       35       63       69 </v>
   <v type="int" >        4       34       62       63       69 </v>
   <v type="int" >        4       34       62       68       69 </v>
   <v type="int" >        4       51       52       54       82 </v>
   <v type="int" >        4       51       52       80       82 </v>
   <v type="int" >        4       51       79       80       82 </v>
   <v type="int" >        4       48       49       52       80 </v>
   <v type="int" >        4       48       51       52       80 </v>
   <v type="int" >        4       48       51       79       80 </v>
   <v type="int" >        4       48       49       77       80 </v>
   <v type="int" >        4       48       76       77       80 </v>
   <v type="int" >        4       48       76       79       80 </v>
   <v type="int" >        4       44       45       49       77 </v>
   <v type="int" >        4       44       48       49       77 </v>
   <v type="int" >        4       44       48       76       77 </v>
   <v type="int" >        4       44       45       73       77 </v>
   <v type="int" >        4       44       72       73       77 </v>
   <v type="int" >        4       44       72       76       77 </v>
   <v type="int" >        4       39       40       45       73 </v>
   <v type="int" >        4       39       44       45       73 </v>
   <v type="int" >        4       39       44       72       73 </v>
   <v type="int" >        4       39       40       68       73 </v>
   <v type="int" >        4       39       67       68       73 </v>
   <v type="int" >        4       39       67       72       73 </v>
   <v type="int" >        4       33       34       40       68 </v>
   <v type="int" >        4       33       39       40       68 </v>
   <v type="int" >        4       33       39       67       68 </v>
   <v type="int" >        4       33       34       62       68 </v>
   <v type="int" >        4       33       61       62       68 </v>
   <v type="int" >        4       33       61       67       68 </v>
   <v type="int" >        4       47       48       51       79 </v>
   <v type="int" >        4       47       48       76       79 </v>
   <v type="int" >        4       47       75       76       79 </v>
   <v type="int" >        4       43       44       48       76 </v>
   <v type="int" >        4       43       47       48       76 </v>
   <v type="int" >        4       43       47       75       76 </v>
   <v type="int" >        4       43       44       72       76 </v>
   <v type="int" >        4       43       71       72       76 </v>
   <v type="int" >        4       43       71       75       76 </v>
   <v type="int" >        4       38       39       44       72 </v>
   <v type="int" >        4       38       43       44       72 </v>
   <v type="int" >        4       38       43       71       72 </v>
   <v type="int" >        4       38       39       67       72 </v>
   <v type="int" >        4       38       66       67       72 </v>
   <v type="int" >        4       38       66       71       72 </v>
   <v type="int" >        4       32       33       39       67 </v>
   <v type="int" >        4       32       38       39       67 </v>
   <v type="int" >        4       32       38       66       67 </v>
   <v type="int" >        4       32       33       61       67 </v>
   <v type="int" >        4       32       60       61       67 </v>
   <v type="int" >        4       32       60       66       67 </v>
   <v type="int" >        4       42       43       47       75 </v>
   <v type="int" >        4       42       43       71       75 </v>
   <v type="int" >        4       42       70       71       75 </v>
   <v type="int" >        4       37       38       43       71 </v>
   <v type="int" >        4       37       42       43       71 </v>
   <v type="int" >        4       37       42       70       71 </v>
   <v type="int" >        4       37       38       66       71 </v>
   <v type="int" >        4       37       65       66       71 </v>
   <v type="int" >        4       37       65       70       71 </v>
   <v type="int" >        4       31       32       38       66 </v>
   <v type="int" >        4       31       37       38       66 </v>
   <v type="int" >        4       31       37       65       66 </v>
   <v type="int" >        4       31       32       60       66 </v>
   <v type="int" >        4       31       59       60       66 </v>
   <v type="int" >        4       31       59       65       66 </v>
   <v type="int" >        4       36       37       42       70 </v>
   <v type="int" >        4       36       37       65       70 </v>
   <v type="int" >        4       36       64       65       70 </v>
   <v type="int" >        4       30       31       37       65 </v>
   <v type="int" >        4       30       36       37       65 </v>
   <v type="int" >        4       30       36       64       65 </v>
   <v type="int" >        4       30       31       59       65 </v>
   <v type="int" >        4       30       58       59       65 </v>
   <v type="int" >        4       30       58       64       65 </v>
   <v type="int" >        4       29       30       36       64 </v>
   <v type="int" >        4       29       30       58       64 </v>
[...]
       <r>   -6.2163    1.0000 </r>
       <r>   -6.2163    1.0000 </r>
       <r>   -2.4274    1.0000 </r>
       <r>   -2.4274    1.0000 </r>
       <r>   -2.4274    1.0000 </r>
       <r>   -2.4274    1.0000 </r>
       <r>    6.6680    1.0000 </r>
       <r>    6.6680    1.0000 </r>
       <r>    6.6680    1.0000 </r>
       <r>    6.6680    1.0000 </r>
       <r>    7.3510    1.0000 </r>
       <r>    7.3510    1.0000 </r>
       <r>    7.3510    1.0000 </r>
       <r>    7.3510    1.0000 </r>
       <r>   18.6687    0.0000 </r>
       <r>   18.6687    0.0000 </r>
       <r>   18.6687    0.0000 </r>
       <r>   18.6687    0.0000 </r>
       <r>   19.3335    0.0000 </r>
       <r>   19.3335    0.0000 </r>
       <r>   19.3335    0.0000 </r>
       <r>   19.3335    0.0000 </r>
      </set>
      <set comment="kpoint 194">
       <r>   -6.3393    1.0000 </r>
       <r>   -6.3393    1.0000 </r>
       <r>   -5.5292    1.0000 </r>
       <r>   -5.5292    1.0000 </r>
       <r>   -3.3406    1.0000 </r>
       <r>   -3.3406    1.0000 </r>
       <r>   -2.5481    1.0000 </r>
       <r>   -2.5481    1.0000 </r>
       <r>    6.9846    1.0000 </r>
       <r>    6.9846    1.0000 </r>
       <r>    7.1234    1.0000 </r>
       <r>    7.1234    1.0000 </r>
       <r>    7.1855    1.0000 </r>
       <r>    7.1855    1.0000 </r>
       <r>    7.6561    1.0000 </r>
       <r>    7.6561    1.0000 </r>
       <r>   18.6189    0.0000 </r>
       <r>   18.6189    0.0000 </r>
       <r>   18.7503    0.0000 </r>
       <r>   18.7503    0.0000 </r>
       <r>   18.9786    0.0000 </r>
       <r>   18.9786    0.0000 </r>
       <r>   19.4226    0.0000 </r>
       <r>   19.4226    0.0000 </r>
      </set>
      <set comment="kpoint 195">
       <r>   -5.8377    1.0000 </r>
       <r>   -5.8377    1.0000 </r>
       <r>   -5.8377    1.0000 </r>
       <r>   -5.8377    1.0000 </r>
       <r>   -3.1585    1.0000 </r>
       <r>   -3.1585    1.0000 </r>
       <r>   -3.1585    1.0000 </r>
       <r>   -3.1585    1.0000 </r>
       <r>    7.1037    1.0000 </r>
       <r>    7.1037    1.0000 </r>
       <r>    7.1037    1.0000 </r>
       <r>    7.1037    1.0000 </r>
       <r>    7.6045    1.0000 </r>
       <r>    7.6045    1.0000 </r>
       <r>    7.6045    1.0000 </r>
       <r>    7.6045    1.0000 </r>
       <r>   18.6414    0.0000 </r>
       <r>   18.6414    0.0000 </r>
       <r>   18.6414    0.0000 </r>
       <r>   18.6414    0.0000 </r>
       <r>   19.1924    0.0000 </r>
       <r>   19.1924    0.0000 </r>
       <r>   19.1924    0.0000 </r>
       <r>   19.1924    0.0000 </r>
      </set>
      <set comment="kpoint 196">
       <r>   -5.6480    1.0000 </r>
       <r>   -5.6480    1.0000 </r>
       <r>   -5.6480    1.0000 </r>
       <r>   -5.6480    1.0000 </r>
       <r>   -3.4656    1.0000 </r>
       <r>   -3.4656    1.0000 </r>
       <r>   -3.4656    1.0000 </r>
       <r>   -3.4656    1.0000 </r>
       <r>    7.1834    1.0000 </r>
       <r>    7.1834    1.0000 </r>
       <r>    7.1834    1.0000 </r>
       <r>    7.1834    1.0000 </r>
       <r>    7.7732    1.0000 </r>
       <r>    7.7732    1.0000 </r>
       <r>    7.7732    1.0000 </r>
       <r>    7.7732    1.0000 </r>
       <r>   18.5942    0.0000 </r>
       <r>   18.5942    0.0000 </r>
       <r>   18.5942    0.0000 </r>
       <r>   18.5942    0.0000 </r>
       <r>   19.1910    0.0000 </r>
       <r>   19.1910    0.0000 </r>
       <r>   19.1910    0.0000 </r>
       <r>   19.1910    0.0000 </r>
      </set>
     </set>
    </set>
   </array>
  </eigenvalues>
  <separator name="orbital magnetization" >
   <v name="MAGDIPOLOUT">      0.00000000      0.00000000      0.00000000</v>
  </separator>
  <dos>
   <i name="efermi">     10.57817210 </i>
   <total>
    <array>
     <dimension dim="1">gridpoints</dimension>
     <dimension dim="2">spin</dimension>
     <field>energy</field>
     <field>total</field>
     <field>integrated</field>
     <set>
      <set comment="spin 1">
       <r>   -13.3837     0.0000     0.0000 </r>
       <r>   -13.2583     0.0000     0.0000 </r>
       <r>   -13.1329     0.0000     0.0000 </r>
       <r>   -13.0075     0.0000     0.0000 </r>
       <r>   -12.8822     0.0000     0.0000 </r>
       <r>   -12.7568     0.0000     0.0000 </r>
       <r>   -12.6314     0.0000     0.0000 </r>
       <r>   -12.5061     0.0000     0.0000 </r>
       <r>   -12.3807     0.0000     0.0000 </r>
       <r>   -12.2553     0.0000     0.0000 </r>
       <r>   -12.1299     0.0000     0.0000 </r>
       <r>   -12.0046     0.0000     0.0000 </r>
       <r>   -11.8792     0.0000     0.0000 </r>
       <r>   -11.7538     0.0000     0.0000 </r>
       <r>   -11.6284     0.0335     0.0005 </r>
       <r>   -11.5031     0.1487     0.0148 </r>
       <r>   -11.3777     0.2327     0.0387 </r>
       <r>   -11.2523     0.2634     0.0695 </r>
       <r>   -11.1270     0.3091     0.1054 </r>
       <r>   -11.0016     0.3485     0.1471 </r>
       <r>   -10.8762     0.3760     0.1924 </r>
       <r>   -10.7508     0.4058     0.2413 </r>
       <r>   -10.6255     0.4418     0.2944 </r>
       <r>   -10.5001     0.4653     0.3515 </r>
       <r>   -10.3747     0.4876     0.4112 </r>
       <r>   -10.2493     0.5122     0.4738 </r>
       <r>   -10.1240     0.5394     0.5397 </r>
       <r>    -9.9986     0.5644     0.6090 </r>
       <r>    -9.8732     0.5838     0.6810 </r>
       <r>    -9.7479     0.6033     0.7554 </r>
       <r>    -9.6225     0.6239     0.8323 </r>
       <r>    -9.4971     0.6456     0.9119 </r>
       <r>    -9.3717     0.6682     0.9943 </r>
       <r>    -9.2464     0.6896     1.0794 </r>
       <r>    -9.1210     0.7061     1.1669 </r>
       <r>    -8.9956     0.7232     1.2565 </r>
       <r>    -8.8703     0.7420     1.3483 </r>
       <r>    -8.7449     0.7615     1.4425 </r>
       <r>    -8.6195     0.7818     1.5393 </r>
       <r>    -8.4941     0.8010     1.6385 </r>
       <r>    -8.3688     0.8197     1.7401 </r>
       <r>    -8.2434     0.8360     1.8439 </r>
       <r>    -8.1180     0.8534     1.9498 </r>
       <r>    -7.9926     0.8719     2.0580 </r>
       <r>    -7.8673     0.8908     2.1684 </r>
       <r>    -7.7419     0.9252     2.2817 </r>
       <r>    -7.6165     0.9704     2.4005 </r>
       <r>    -7.4912     1.0107     2.5246 </r>
       <r>    -7.3658     1.0462     2.6538 </r>
       <r>    -7.2404     1.0516     2.7857 </r>
       <r>    -7.1150     1.0302     2.9164 </r>
       <r>    -6.9897     1.0046     3.0438 </r>
       <r>    -6.8643     1.0166     3.1703 </r>
       <r>    -6.7389     1.0197     3.2982 </r>
       <r>    -6.6135     1.0204     3.4258 </r>
       <r>    -6.4882     1.0442     3.5550 </r>
       <r>    -6.3628     1.1010     3.6890 </r>
       <r>    -6.2374     1.1576     3.8307 </r>
       <r>    -6.1121     1.2095     3.9800 </r>
       <r>    -5.9867     1.2301     4.1321 </r>
       <r>    -5.8613     1.2938     4.2906 </r>
       <r>    -5.7359     1.4368     4.4601 </r>
       <r>    -5.6106     1.5739     4.6504 </r>
       <r>    -5.4852     1.4941     4.8442 </r>
       <r>    -5.3598     1.4641     5.0295 </r>
       <r>    -5.2344     1.3734     5.2125 </r>
       <r>    -5.1091     1.3136     5.3794 </r>
       <r>    -4.9837     1.3182     5.5447 </r>
       <r>    -4.8583     1.3696     5.7127 </r>
       <r>    -4.7330     1.2874     5.8819 </r>
       <r>    -4.6076     1.1774     6.0360 </r>
       <r>    -4.4822     1.1746     6.1832 </r>
       <r>    -4.3568     1.1341     6.3281 </r>
       <r>    -4.2315     1.1309     6.4690 </r>
       <r>    -4.1061     1.0946     6.6111 </r>
       <r>    -3.9807     1.0410     6.7439 </r>
       <r>    -3.8553     1.0072     6.8726 </r>
       <r>    -3.7300     0.9827     6.9988 </r>
       <r>    -3.6046     0.9505     7.1196 </r>
       <r>    -3.4792     0.9144     7.2366 </r>
       <r>    -3.3539     0.9469     7.3520 </r>
       <r>    -3.2285     1.0919     7.4817 </r>
       <r>    -3.1031     1.0392     7.6156 </r>
       <r>    -2.9777     1.1023     7.7537 </r>
       <r>    -2.8524     1.0476     7.8876 </r>
       <r>    -2.7270     1.0106     8.0164 </r>
       <r>    -2.6016     1.0811     8.1474 </r>
       <r>    -2.4762     1.1112     8.2825 </r>
       <r>    -2.3509     0.9917     8.4149 </r>
       <r>    -2.2255     0.9917     8.5381 </r>
       <r>    -2.1001     1.0779     8.6666 </r>
       <r>    -1.9748     1.1992     8.8095 </r>
       <r>    -1.8494     1.3539     8.9681 </r>
       <r>    -1.7240     1.5582     9.1507 </r>
       <r>    -1.5986     1.8689     9.3640 </r>
       <r>    -1.4733     2.1686     9.6183 </r>
       <r>    -1.3479     2.6633     9.9211 </r>
       <r>    -1.2225     2.4170    10.2475 </r>
       <r>    -1.0972     2.0870    10.5319 </r>
       <r>    -0.9718     1.8303    10.7820 </r>
       <r>    -0.8464     1.6309    11.0008 </r>
       <r>    -0.7210     1.5202    11.1980 </r>
       <r>    -0.5957     1.4376    11.3832 </r>
       <r>    -0.4703     1.3698    11.5591 </r>
       <r>    -0.3449     1.3305    11.7280 </r>
       <r>    -0.2195     1.3107    11.8935 </r>
       <r>    -0.0942     1.2782    12.0564 </r>
       <r>     0.0312     1.1973    12.2118 </r>
       <r>     0.1566     1.1528    12.3581 </r>
       <r>     0.2819     1.1519    12.5026 </r>
       <r>     0.4073     1.1137    12.6471 </r>
       <r>     0.5327     1.0839    12.7849 </r>
       <r>     0.6581     1.0788    12.9205 </r>
       <r>     0.7834     1.1054    13.0575 </r>
       <r>     0.9088     1.3797    13.2116 </r>
       <r>     1.0342     1.6838    13.4050 </r>
       <r>     1.1596     1.8958    13.6280 </r>
       <r>     1.2849     2.1834    13.8843 </r>
       <r>     1.4103     2.1706    14.1637 </r>
       <r>     1.5357     2.0535    14.4281 </r>
       <r>     1.6610     2.1135    14.6880 </r>
       <r>     1.7864     2.1247    14.9553 </r>
       <r>     1.9118     2.1140    15.2200 </r>
       <r>     2.0372     1.8474    15.4771 </r>
       <r>     2.1625     1.3832    15.6792 </r>
       <r>     2.2879     1.4607    15.8490 </r>
       <r>     2.4133     1.7497    16.0475 </r>
       <r>     2.5387     2.1340    16.2922 </r>
       <r>     2.6640     2.2506    16.5695 </r>
       <r>     2.7894     2.2601    16.8513 </r>
       <r>     2.9148     2.2788    17.1370 </r>
       <r>     3.0401     2.3002    17.4237 </r>
       <r>     3.1655     2.2783    17.7099 </r>
       <r>     3.2909     2.5579    18.0076 </r>
       <r>     3.4163     2.8829    18.3524 </r>
       <r>     3.5416     2.8832    18.7092 </r>
       <r>     3.6670     2.7639    19.0644 </r>
       <r>     3.7924     2.6963    19.4081 </r>
       <r>     3.9178     2.4361    19.7160 </r>
       <r>     4.0431     2.5858    20.0268 </r>
       <r>     4.1685     2.9367    20.3703 </r>
       <r>     4.2939     3.2878    20.7649 </r>
       <r>     4.4192     3.4113    21.1872 </r>
       <r>     4.5446     3.2272    21.6094 </r>
       <r>     4.6700     3.0319    21.9995 </r>
       <r>     4.7954     2.8065    22.3617 </r>
       <r>     4.9207     2.7458    22.7135 </r>
       <r>     5.0461     2.6476    23.0511 </r>
       <r>     5.1715     2.6179    23.3814 </r>
       <r>     5.2969     2.6400    23.7108 </r>
       <r>     5.4222     2.9420    24.0541 </r>
       <r>     5.5476     2.9389    24.4268 </r>
       <r>     5.6730     2.8814    24.7906 </r>
       <r>     5.7983     2.9152    25.1537 </r>
       <r>     5.9237     2.9019    25.5198 </r>
       <r>     6.0491     2.6121    25.8673 </r>
       <r>     6.1745     2.3900    26.1788 </r>
       <r>     6.2998     2.3366    26.4736 </r>
       <r>     6.4252     2.3364    26.7632 </r>
       <r>     6.5506     2.5015    27.0713 </r>
       <r>     6.6760     2.5984    27.3909 </r>
       <r>     6.8013     2.6479    27.7185 </r>
       <r>     6.9267     2.5817    28.0475 </r>
       <r>     7.0521     2.5111    28.3684 </r>
       <r>     7.1774     2.2232    28.6701 </r>
       <r>     7.3028     2.3697    28.9534 </r>
       <r>     7.4282     2.3837    29.2612 </r>
       <r>     7.5536     2.0165    29.5321 </r>
       <r>     7.6789     1.9037    29.7771 </r>
       <r>     7.8043     1.7452    30.0120 </r>
       <r>     7.9297     1.5107    30.2139 </r>
       <r>     8.0550     1.3851    30.3954 </r>
       <r>     8.1804     1.3157    30.5646 </r>
       <r>     8.3058     1.1885    30.7216 </r>
       <r>     8.4312     1.0930    30.8651 </r>
       <r>     8.5565     1.0096    30.9968 </r>
       <r>     8.6819     0.9447    31.1192 </r>
       <r>     8.8073     0.8760    31.2330 </r>
       <r>     8.9327     0.8270    31.3399 </r>
       <r>     9.0580     0.7440    31.4382 </r>
       <r>     9.1834     0.6762    31.5275 </r>
       <r>     9.3088     0.6176    31.6084 </r>
       <r>     9.4341     0.5645    31.6818 </r>
       <r>     9.5595     0.5187    31.7502 </r>
       <r>     9.6849     0.4374    31.8101 </r>
       <r>     9.8103     0.3778    31.8607 </r>
       <r>     9.9356     0.3090    31.9041 </r>
       <r>    10.0610     0.2473    31.9391 </r>
       <r>    10.1864     0.1967    31.9674 </r>
       <r>    10.3118     0.1359    31.9865 </r>
       <r>    10.4371     0.0469    31.9982 </r>
       <r>    10.5625     0.0000    32.0000 </r>
       <r>    10.6879     0.0000    32.0000 </r>
       <r>    10.8132     0.0000    32.0000 </r>
       <r>    10.9386     0.0000    32.0000 </r>
       <r>    11.0640     0.0000    32.0000 </r>
       <r>    11.1894     0.0000    32.0000 </r>
       <r>    11.3147     0.0000    32.0000 </r>
       <r>    11.4401     0.0000    32.0000 </r>
       <r>    11.5655     0.0000    32.0000 </r>
       <r>    11.6909     0.0000    32.0000 </r>
       <r>    11.8162     0.0000    32.0000 </r>
       <r>    11.9416     0.0000    32.0000 </r>
       <r>    12.0670     0.0000    32.0000 </r>
       <r>    12.1923     0.0000    32.0000 </r>
       <r>    12.3177     0.0000    32.0000 </r>
       <r>    12.4431     0.0000    32.0000 </r>
       <r>    12.5685     0.0000    32.0000 </r>
       <r>    12.6938     0.0000    32.0000 </r>
       <r>    12.8192     0.0000    32.0000 </r>
       <r>    12.9446     0.0000    32.0000 </r>
       <r>    13.0700     0.0000    32.0000 </r>
       <r>    13.1953     0.0000    32.0000 </r>
       <r>    13.3207     0.0000    32.0000 </r>
       <r>    13.4461     0.0000    32.0000 </r>
       <r>    13.5714     0.0000    32.0000 </r>
       <r>    13.6968     0.0000    32.0000 </r>
       <r>    13.8222     0.0000    32.0000 </r>
       <r>    13.9476     0.0000    32.0000 </r>
       <r>    14.0729     0.0000    32.0000 </r>
       <r>    14.1983     0.0000    32.0000 </r>
       <r>    14.3237     0.0000    32.0000 </r>
       <r>    14.4491     0.0302    32.0009 </r>
       <r>    14.5744     0.1304    32.0105 </r>
       <r>    14.6998     0.2804    32.0358 </r>
       <r>    14.8252     0.3577    32.0765 </r>
       <r>    14.9505     0.3742    32.1233 </r>
       <r>    15.0759     0.4740    32.1748 </r>
       <r>    15.2013     0.5902    32.2418 </r>
       <r>    15.3267     0.7138    32.3228 </r>
       <r>    15.4520     1.0844    32.4291 </r>
       <r>    15.5774     1.0225    32.5626 </r>
       <r>    15.7028     1.1471    32.6977 </r>
       <r>    15.8281     1.1736    32.8429 </r>
       <r>    15.9535     1.2597    32.9960 </r>
       <r>    16.0789     1.4053    33.1620 </r>
       <r>    16.2043     1.7151    33.3546 </r>
       <r>    16.3296     1.7227    33.5724 </r>
       <r>    16.4550     1.8005    33.7934 </r>
       <r>    16.5804     1.8461    34.0235 </r>
       <r>    16.7058     1.8685    34.2586 </r>
       <r>    16.8311     1.9119    34.4960 </r>
       <r>    16.9565     2.0008    34.7409 </r>
       <r>    17.0819     2.0821    34.9968 </r>
       <r>    17.2072     2.1725    35.2639 </r>
       <r>    17.3326     2.2766    35.5424 </r>
       <r>    17.4580     2.3427    35.8329 </r>
       <r>    17.5834     2.3768    36.1278 </r>
       <r>    17.7087     2.5631    36.4343 </r>
       <r>    17.8341     2.6102    36.7586 </r>
       <r>    17.9595     2.7226    37.0925 </r>
       <r>    18.0849     2.9737    37.4477 </r>
       <r>    18.2102     3.1886    37.8370 </r>
       <r>    18.3356     3.3270    38.2435 </r>
       <r>    18.4610     3.8522    38.6862 </r>
       <r>    18.5863     4.3001    39.1987 </r>
       <r>    18.7117     4.2963    39.8209 </r>
       <r>    18.8371     3.4086    40.2782 </r>
       <r>    18.9625     2.7844    40.6719 </r>
       <r>    19.0878     3.0036    41.0191 </r>
       <r>    19.2132     3.2450    41.4357 </r>
       <r>    19.3386     3.1909    41.8354 </r>
       <r>    19.4640     3.1747    42.2352 </r>
       <r>    19.5893     3.0185    42.6267 </r>
       <r>    19.7147     3.2369    43.0175 </r>
       <r>    19.8401     3.1760    43.4280 </r>
       <r>    19.9654     3.0160    43.8149 </r>
       <r>    20.0908     2.9909    44.1983 </r>
       <r>    20.2162     2.8641    44.5658 </r>
       <r>    20.3416     2.9783    44.9319 </r>
       <r>    20.4669     2.8736    45.3026 </r>
       <r>    20.5923     2.7213    45.6507 </r>
       <r>    20.7177     2.6450    45.9889 </r>
       <r>    20.8431     2.5815    46.3148 </r>
       <r>    20.9684     2.6249    46.6411 </r>
       <r>    21.0938     2.3985    46.9613 </r>
       <r>    21.2192     1.9954    47.2383 </r>
       <r>    21.3445     1.5743    47.4611 </r>
       <r>    21.4699     1.3260    47.6428 </r>
       <r>    21.5953     1.0549    47.7955 </r>
       <r>    21.7207     0.5269    47.8972 </r>
       <r>    21.8460     0.2798    47.9446 </r>
       <r>    21.9714     0.1606    47.9711 </r>
       <r>    22.0968     0.0933    47.9867 </r>
       <r>    22.2222     0.0458    47.9953 </r>
       <r>    22.3475     0.0155    47.9989 </r>
       <r>    22.4729     0.0024    47.9999 </r>
       <r>    22.5983     0.0000    48.0000 </r>
       <r>    22.7236     0.0000    48.0000 </r>
       <r>    22.8490     0.0000    48.0000 </r>
       <r>    22.9744     0.0000    48.0000 </r>
       <r>    23.0998     0.0000    48.0000 </r>
       <r>    23.2251     0.0000    48.0000 </r>
       <r>    23.3505     0.0000    48.0000 </r>
       <r>    23.4759     0.0000    48.0000 </r>
       <r>    23.6013     0.0000    48.0000 </r>
       <r>    23.7266     0.0000    48.0000 </r>
       <r>    23.8520     0.0000    48.0000 </r>
       <r>    23.9774     0.0000    48.0000 </r>
       <r>    24.1027     0.0000    48.0000 </r>
       <r>    24.2281     0.0000    48.0000 </r>
      </set>
     </set>
    </array>
   </total>
  </dos>
 </calculation>
 <structure name="finalpos" >
  <crystal>
   <varray name="basis" >
    <v>       3.48063312       0.00000000       0.00000000 </v>
    <v>       0.00000000       3.48063312       0.00000000 </v>
    <v>       0.00000000       0.00000000       3.58999936 </v>
   </varray>
   <i name="volume">     43.49214900 </i>
   <varray name="rec_basis" >
    <v>       0.28730405       0.00000000       0.00000000 </v>
    <v>       0.00000000       0.28730405       0.00000000 </v>
    <v>       0.00000000       0.00000000       0.27855158 </v>
   </varray>
  </crystal>
  <varray name="positions" >
   <v>       0.25000000       0.75000000       0.25000000 </v>
   <v>       0.00000000       0.00000000       0.50000000 </v>
   <v>       0.25000000       0.25000000       0.75000000 </v>
   <v>       0.00000000       0.50000000       0.00000000 </v>
   <v>       0.75000000       0.75000000       0.75000000 </v>
   <v>       0.50000000       0.00000000       0.00000000 </v>
   <v>       0.75000000       0.25000000       0.25000000 </v>
   <v>       0.50000000       0.50000000       0.50000000 </v>
  </varray>
 </structure>
</modeling>
