   8   8   0   0
  0.5683011E+01  0.3573710E-09  0.3573710E-09  0.3573710E-09  0.2000000E-16
  1.000000000000000E-004
  CAR 
 unknown system                          
     24.19298678    -13.46158246  301      9.89209517      1.00000000
    -13.462  0.0000E+00  0.0000E+00
    -13.336  0.0000E+00  0.0000E+00
    -13.211  0.0000E+00  0.0000E+00
    -13.085  0.0000E+00  0.0000E+00
    -12.960  0.0000E+00  0.0000E+00
    -12.834  0.0000E+00  0.0000E+00
    -12.708  0.0000E+00  0.0000E+00
    -12.583  0.0000E+00  0.0000E+00
    -12.457  0.0000E+00  0.0000E+00
    -12.332  0.0000E+00  0.0000E+00
    -12.206  0.0000E+00  0.0000E+00
    -12.081  0.0000E+00  0.0000E+00
    -11.955  0.0000E+00  0.0000E+00
    -11.830  0.0000E+00  0.0000E+00
    -11.704  0.3788E-01  0.5763E-03
    -11.579  0.1574E+00  0.1580E-01
    -11.453  0.2436E+00  0.4129E-01
    -11.328  0.2782E+00  0.7364E-01
    -11.202  0.3283E+00  0.1116E+00
    -11.077  0.3646E+00  0.1556E+00
    -10.951  0.3953E+00  0.2033E+00
    -10.826  0.4302E+00  0.2550E+00
    -10.700  0.4676E+00  0.3115E+00
    -10.575  0.4896E+00  0.3715E+00
    -10.449  0.5145E+00  0.4345E+00
    -10.324  0.5421E+00  0.5007E+00
    -10.198  0.5717E+00  0.5706E+00
    -10.073  0.5959E+00  0.6441E+00
     -9.947  0.6192E+00  0.7203E+00
     -9.822  0.6462E+00  0.7996E+00
     -9.696  0.6790E+00  0.8827E+00
     -9.571  0.7161E+00  0.9703E+00
     -9.445  0.7360E+00  0.1062E+01
     -9.320  0.7320E+00  0.1154E+01
     -9.194  0.7386E+00  0.1246E+01
     -9.069  0.7539E+00  0.1340E+01
     -8.943  0.7765E+00  0.1436E+01
     -8.818  0.8019E+00  0.1535E+01
     -8.692  0.8257E+00  0.1637E+01
     -8.566  0.8455E+00  0.1742E+01
     -8.441  0.8709E+00  0.1849E+01
     -8.315  0.8957E+00  0.1960E+01
     -8.190  0.9237E+00  0.2075E+01
     -8.064  0.9259E+00  0.2191E+01
     -7.939  0.9371E+00  0.2308E+01
     -7.813  0.9861E+00  0.2428E+01
     -7.688  0.1088E+01  0.2557E+01
     -7.562  0.1118E+01  0.2697E+01
     -7.437  0.1074E+01  0.2835E+01
     -7.311  0.1071E+01  0.2968E+01
     -7.186  0.1069E+01  0.3103E+01
     -7.060  0.1061E+01  0.3236E+01
     -6.935  0.1171E+01  0.3376E+01
     -6.809  0.1215E+01  0.3529E+01
     -6.684  0.1196E+01  0.3679E+01
     -6.558  0.1264E+01  0.3833E+01
     -6.433  0.1334E+01  0.3996E+01
     -6.307  0.1397E+01  0.4169E+01
     -6.182  0.1379E+01  0.4342E+01
     -6.056  0.1538E+01  0.4528E+01
     -5.931  0.1428E+01  0.4715E+01
     -5.805  0.1339E+01  0.4886E+01
     -5.680  0.1361E+01  0.5056E+01
     -5.554  0.1441E+01  0.5232E+01
     -5.429  0.1362E+01  0.5405E+01
     -5.303  0.1329E+01  0.5576E+01
     -5.178  0.1242E+01  0.5736E+01
     -5.052  0.1260E+01  0.5893E+01
     -4.927  0.1305E+01  0.6054E+01
     -4.801  0.1254E+01  0.6213E+01
     -4.676  0.1177E+01  0.6365E+01
     -4.550  0.1132E+01  0.6510E+01
     -4.424  0.1122E+01  0.6649E+01
     -4.299  0.1147E+01  0.6796E+01
     -4.173  0.1091E+01  0.6935E+01
     -4.048  0.1063E+01  0.7071E+01
     -3.922  0.1029E+01  0.7203E+01
     -3.797  0.9614E+00  0.7327E+01
     -3.671  0.9131E+00  0.7445E+01
     -3.546  0.9087E+00  0.7559E+01
     -3.420  0.1039E+01  0.7680E+01
     -3.295  0.1025E+01  0.7813E+01
     -3.169  0.9800E+00  0.7938E+01
     -3.044  0.9400E+00  0.8058E+01
     -2.918  0.8732E+00  0.8170E+01
     -2.793  0.7536E+00  0.8271E+01
     -2.667  0.7985E+00  0.8364E+01
     -2.542  0.8596E+00  0.8469E+01
     -2.416  0.9829E+00  0.8584E+01
     -2.291  0.1194E+01  0.8718E+01
     -2.165  0.1509E+01  0.8889E+01
     -2.040  0.1769E+01  0.9095E+01
     -1.914  0.1901E+01  0.9323E+01
     -1.789  0.2087E+01  0.9569E+01
     -1.663  0.2543E+01  0.9858E+01
     -1.538  0.2281E+01  0.1016E+02
     -1.412  0.2345E+01  0.1046E+02
     -1.287  0.2121E+01  0.1074E+02
     -1.161  0.1858E+01  0.1099E+02
     -1.036  0.1729E+01  0.1121E+02
     -0.910  0.1578E+01  0.1142E+02
     -0.785  0.1468E+01  0.1161E+02
     -0.659  0.1403E+01  0.1179E+02
     -0.534  0.1288E+01  0.1196E+02
     -0.408  0.1255E+01  0.1212E+02
     -0.282  0.1204E+01  0.1227E+02
     -0.157  0.1177E+01  0.1242E+02
     -0.031  0.1196E+01  0.1257E+02
      0.094  0.1150E+01  0.1272E+02
      0.220  0.1015E+01  0.1285E+02
      0.345  0.1046E+01  0.1298E+02
      0.471  0.1179E+01  0.1312E+02
      0.596  0.1443E+01  0.1328E+02
      0.722  0.1634E+01  0.1348E+02
      0.847  0.2100E+01  0.1370E+02
      0.973  0.2165E+01  0.1398E+02
      1.098  0.2273E+01  0.1425E+02
      1.224  0.2181E+01  0.1453E+02
      1.349  0.2118E+01  0.1480E+02
      1.475  0.2179E+01  0.1508E+02
      1.600  0.1934E+01  0.1533E+02
      1.726  0.1577E+01  0.1556E+02
      1.851  0.1539E+01  0.1575E+02
      1.977  0.1581E+01  0.1594E+02
      2.102  0.2103E+01  0.1617E+02
      2.228  0.2582E+01  0.1646E+02
      2.353  0.2372E+01  0.1677E+02
      2.479  0.2268E+01  0.1706E+02
      2.604  0.2276E+01  0.1735E+02
      2.730  0.2258E+01  0.1763E+02
      2.855  0.2569E+01  0.1794E+02
      2.981  0.3120E+01  0.1830E+02
      3.106  0.2759E+01  0.1868E+02
      3.232  0.2560E+01  0.1900E+02
      3.357  0.2632E+01  0.1932E+02
      3.483  0.2617E+01  0.1965E+02
      3.608  0.2705E+01  0.1998E+02
      3.734  0.2796E+01  0.2033E+02
      3.860  0.3203E+01  0.2070E+02
      3.985  0.3234E+01  0.2111E+02
      4.111  0.3102E+01  0.2150E+02
      4.236  0.3073E+01  0.2189E+02
      4.362  0.3082E+01  0.2227E+02
      4.487  0.2905E+01  0.2265E+02
      4.613  0.2855E+01  0.2301E+02
      4.738  0.2772E+01  0.2337E+02
      4.864  0.2956E+01  0.2373E+02
      4.989  0.3020E+01  0.2410E+02
      5.115  0.2824E+01  0.2446E+02
      5.240  0.2901E+01  0.2483E+02
      5.366  0.2963E+01  0.2519E+02
      5.491  0.2777E+01  0.2555E+02
      5.617  0.2739E+01  0.2589E+02
      5.742  0.2564E+01  0.2623E+02
      5.868  0.2735E+01  0.2656E+02
      5.993  0.2688E+01  0.2690E+02
      6.119  0.2723E+01  0.2723E+02
      6.244  0.2608E+01  0.2757E+02
      6.370  0.2543E+01  0.2790E+02
      6.495  0.2648E+01  0.2823E+02
      6.621  0.2350E+01  0.2854E+02
      6.746  0.2216E+01  0.2882E+02
      6.872  0.2146E+01  0.2910E+02
      6.997  0.2013E+01  0.2937E+02
      7.123  0.2244E+01  0.2963E+02
      7.248  0.2080E+01  0.2991E+02
      7.374  0.1817E+01  0.3016E+02
      7.499  0.1555E+01  0.3037E+02
      7.625  0.1386E+01  0.3055E+02
      7.750  0.1292E+01  0.3072E+02
      7.876  0.1201E+01  0.3088E+02
      8.002  0.1080E+01  0.3102E+02
      8.127  0.9821E+00  0.3115E+02
      8.253  0.9077E+00  0.3127E+02
      8.378  0.8321E+00  0.3138E+02
      8.504  0.7967E+00  0.3148E+02
      8.629  0.6905E+00  0.3158E+02
      8.755  0.6128E+00  0.3166E+02
      8.880  0.5804E+00  0.3173E+02
      9.006  0.4999E+00  0.3180E+02
      9.131  0.4035E+00  0.3186E+02
      9.257  0.3659E+00  0.3191E+02
      9.382  0.3057E+00  0.3195E+02
      9.508  0.1518E+00  0.3198E+02
      9.633  0.1120E+00  0.3199E+02
      9.759  0.2804E-02  0.3200E+02
      9.884  0.0000E+00  0.3200E+02
     10.010  0.0000E+00  0.3200E+02
     10.135  0.0000E+00  0.3200E+02
     10.261  0.0000E+00  0.3200E+02
     10.386  0.0000E+00  0.3200E+02
     10.512  0.0000E+00  0.3200E+02
     10.637  0.0000E+00  0.3200E+02
     10.763  0.0000E+00  0.3200E+02
     10.888  0.0000E+00  0.3200E+02
     11.014  0.0000E+00  0.3200E+02
     11.139  0.0000E+00  0.3200E+02
     11.265  0.0000E+00  0.3200E+02
     11.390  0.0000E+00  0.3200E+02
     11.516  0.0000E+00  0.3200E+02
     11.641  0.0000E+00  0.3200E+02
     11.767  0.0000E+00  0.3200E+02
     11.892  0.0000E+00  0.3200E+02
     12.018  0.0000E+00  0.3200E+02
     12.144  0.0000E+00  0.3200E+02
     12.269  0.0000E+00  0.3200E+02
     12.395  0.0000E+00  0.3200E+02
     12.520  0.0000E+00  0.3200E+02
     12.646  0.0000E+00  0.3200E+02
     12.771  0.0000E+00  0.3200E+02
     12.897  0.0000E+00  0.3200E+02
     13.022  0.0000E+00  0.3200E+02
     13.148  0.0000E+00  0.3200E+02
     13.273  0.0000E+00  0.3200E+02
     13.399  0.0000E+00  0.3200E+02
     13.524  0.6531E-01  0.3200E+02
     13.650  0.2300E+00  0.3202E+02
     13.775  0.4241E+00  0.3207E+02
     13.901  0.5305E+00  0.3213E+02
     14.026  0.5818E+00  0.3220E+02
     14.152  0.6713E+00  0.3228E+02
     14.277  0.7437E+00  0.3237E+02
     14.403  0.7983E+00  0.3246E+02
     14.528  0.9473E+00  0.3258E+02
     14.654  0.1107E+01  0.3270E+02
     14.779  0.1325E+01  0.3286E+02
     14.905  0.1300E+01  0.3302E+02
     15.030  0.1358E+01  0.3319E+02
     15.156  0.1407E+01  0.3336E+02
     15.281  0.1444E+01  0.3354E+02
     15.407  0.1548E+01  0.3373E+02
     15.532  0.1588E+01  0.3392E+02
     15.658  0.1660E+01  0.3413E+02
     15.783  0.1730E+01  0.3434E+02
     15.909  0.1933E+01  0.3457E+02
     16.034  0.2013E+01  0.3482E+02
     16.160  0.2062E+01  0.3507E+02
     16.286  0.2191E+01  0.3534E+02
     16.411  0.2271E+01  0.3562E+02
     16.537  0.2387E+01  0.3591E+02
     16.662  0.2569E+01  0.3622E+02
     16.788  0.2729E+01  0.3655E+02
     16.913  0.3148E+01  0.3692E+02
     17.039  0.3307E+01  0.3734E+02
     17.164  0.3170E+01  0.3775E+02
     17.290  0.3314E+01  0.3816E+02
     17.415  0.3606E+01  0.3859E+02
     17.541  0.4166E+01  0.3908E+02
     17.666  0.4133E+01  0.3963E+02
     17.792  0.3453E+01  0.4010E+02
     17.917  0.3721E+01  0.4056E+02
     18.043  0.3635E+01  0.4103E+02
     18.168  0.3548E+01  0.4148E+02
     18.294  0.3280E+01  0.4191E+02
     18.419  0.3040E+01  0.4231E+02
     18.545  0.2887E+01  0.4268E+02
     18.670  0.2666E+01  0.4303E+02
     18.796  0.2584E+01  0.4336E+02
     18.921  0.2632E+01  0.4369E+02
     19.047  0.2760E+01  0.4402E+02
     19.172  0.2968E+01  0.4438E+02
     19.298  0.3113E+01  0.4477E+02
     19.423  0.2979E+01  0.4516E+02
     19.549  0.2753E+01  0.4551E+02
     19.674  0.2684E+01  0.4585E+02
     19.800  0.2775E+01  0.4619E+02
     19.925  0.2848E+01  0.4655E+02
     20.051  0.2823E+01  0.4690E+02
     20.176  0.2289E+01  0.4722E+02
     20.302  0.1746E+01  0.4748E+02
     20.428  0.1176E+01  0.4766E+02
     20.553  0.7407E+00  0.4778E+02
     20.679  0.3576E+00  0.4785E+02
     20.804  0.2465E+00  0.4788E+02
     20.930  0.2105E+00  0.4791E+02
     21.055  0.1634E+00  0.4794E+02
     21.181  0.1265E+00  0.4795E+02
     21.306  0.1022E+00  0.4797E+02
     21.432  0.9973E-01  0.4798E+02
     21.557  0.4263E-01  0.4799E+02
     21.683  0.2752E-01  0.4799E+02
     21.808  0.1693E-01  0.4800E+02
     21.934  0.1064E-01  0.4800E+02
     22.059  0.6249E-02  0.4800E+02
     22.185  0.3018E-02  0.4800E+02
     22.310  0.9521E-03  0.4800E+02
     22.436  0.5017E-04  0.4800E+02
     22.561  0.0000E+00  0.4800E+02
     22.687  0.0000E+00  0.4800E+02
     22.812  0.0000E+00  0.4800E+02
     22.938  0.0000E+00  0.4800E+02
     23.063  0.0000E+00  0.4800E+02
     23.189  0.0000E+00  0.4800E+02
     23.314  0.0000E+00  0.4800E+02
     23.440  0.0000E+00  0.4800E+02
     23.565  0.0000E+00  0.4800E+02
     23.691  0.0000E+00  0.4800E+02
     23.816  0.0000E+00  0.4800E+02
     23.942  0.0000E+00  0.4800E+02
     24.067  0.0000E+00  0.4800E+02
     24.193  0.0000E+00  0.4800E+02
