       N       E                     dE             d eps       ncg     rms          rms(c)
DAV:   1     0.589878574103E+02    0.58988E+02   -0.14410E+04  9072   0.106E+03
DAV:   2    -0.703687079134E+02   -0.12936E+03   -0.12256E+03 12464   0.222E+02
DAV:   3    -0.746742338269E+02   -0.43055E+01   -0.42820E+01 11928   0.380E+01
DAV:   4    -0.747166603312E+02   -0.42427E-01   -0.42393E-01 11184   0.418E+00
DAV:   5    -0.747175593644E+02   -0.89903E-03   -0.89813E-03 11936   0.536E-01    0.962E+00
DAV:   6    -0.727433656154E+02    0.19742E+01   -0.13278E+00 10256   0.671E+00    0.526E+00
DAV:   7    -0.720821371624E+02    0.66123E+00   -0.15269E+00 10872   0.738E+00    0.716E-01
DAV:   8    -0.720903657809E+02   -0.82286E-02   -0.40494E-02 11384   0.120E+00    0.768E-02
DAV:   9    -0.720906231364E+02   -0.25736E-03   -0.51312E-04 11232   0.153E-01    0.349E-02
DAV:  10    -0.720906856537E+02   -0.62517E-04   -0.42949E-05 11312   0.485E-02    0.436E-03
DAV:  11    -0.720906880544E+02   -0.24006E-05   -0.15475E-06  8840   0.955E-03    0.109E-03
DAV:  12    -0.720906880005E+02    0.53900E-07   -0.15293E-07  8208   0.281E-03
   1 F= -.72090688E+02 E0= -.72090688E+02  d E =0.000000E+00
