 vasp.5.4.4.18Apr17-6-g9f103f2a35 (build Mar 12 2022 03:36:41) complex          
  
 executed on IFC19.0.3.199_CrayMP date 2022.11.30  12:34:15
 running on   16 total cores
 distrk:  each k-point on   16 cores,    1 groups
 distr:  one band on NCORES_PER_BAND=   4 cores,    4 groups


--------------------------------------------------------------------------------------------------------


 INCAR:
 POTCAR:   PAW_PBE C 08Apr2002                    
 POTCAR:   PAW_PBE C 08Apr2002                    
   VRHFIN =C: s2p2                                                              
   LEXCH  = PE                                                                  
   EATOM  =   147.1560 eV,   10.8157 Ry                                         
                                                                                
   TITEL  = PAW_PBE C 08Apr2002                                                 
   LULTRA =        F    use ultrasoft PP ?                                      
   IUNSCR =        0    unscreen: 0-lin 1-nonlin 2-no                           
   RPACOR =     .000    partial core radius                                     
   POMASS =   12.011; ZVAL   =    4.000    mass and valenz                      
   RCORE  =    1.500    outmost cutoff radius                                   
   RWIGS  =    1.630; RWIGS  =     .863    wigner-seitz radius (au A)           
   ENMAX  =  400.000; ENMIN  =  300.000 eV                                      
   ICORE  =        2    local potential                                         
   LCOR   =        T    correct aug charges                                     
   LPAW   =        T    paw PP                                                  
   EAUG   =  644.873                                                            
   DEXC   =     .000                                                            
   RMAX   =    2.266    core radius for proj-oper                               
   RAUG   =    1.300    factor for augmentation sphere                          
   RDEP   =    1.501    radius for radial grids                                 
   RDEPT  =    1.300    core radius for aug-charge                              
   QCUT   =   -5.516; QGAM   =   11.032    optimization parameters              
                                                                                
   Description                                                                  
     l     E      TYP  RCUT    TYP  RCUT                                        
     0   .000     23  1.200                                                     
     0   .000     23  1.200                                                     
     1   .000     23  1.500                                                     
     1  2.500     23  1.500                                                     
     2   .000      7  1.500                                                     
  local pseudopotential read in
  atomic valenz-charges read in
  non local Contribution for L=           0  read in
    real space projection operators read in
  non local Contribution for L=           0  read in
    real space projection operators read in
  non local Contribution for L=           1  read in
    real space projection operators read in
  non local Contribution for L=           1  read in
    real space projection operators read in
    PAW grid and wavefunctions read in
 
   number of l-projection  operators is LMAX  =           4
   number of lm-projection operators is LMMAX =           8
 
 PAW_PBE C 08Apr2002                    :
 energy of atom  1       EATOM= -147.1560
 kinetic energy error for atom=    0.0288 (will be added to EATOM!!)
 
 
 POSCAR: C8                                      
  positions in direct lattice
  No initial velocities read in
 exchange correlation table for  LEXCH =        8
   RHO(1)=    0.500       N(1)  =     2000
   RHO(2)=  100.500       N(2)  =     4000
 


--------------------------------------------------------------------------------------------------------


 ion  position               nearest neighbor table
   1  0.250  0.750  0.250-   4 1.47   2 1.57   6 1.57   8 1.57
   2  0.000  0.000  0.500-   3 1.47   1 1.57   5 1.57   7 1.57
   3  0.250  0.250  0.750-   2 1.47   4 1.57   6 1.57   8 1.57
   4  0.000  0.500  0.000-   1 1.47   3 1.57   5 1.57   7 1.57
   5  0.750  0.750  0.750-   8 1.47   6 1.57   2 1.57   4 1.57
   6  0.500  0.000  0.000-   7 1.47   5 1.57   1 1.57   3 1.57
   7  0.750  0.250  0.250-   6 1.47   8 1.57   2 1.57   4 1.57
   8  0.500  0.500  0.500-   5 1.47   7 1.57   1 1.57   3 1.57
 
  LATTYP: Found a trigonal (rhomboedric) cell.
 ALAT       =     3.5737099080
 COS(alpha) =    -0.0499998614
  
  Lattice vectors:
  
 A1 = (   3.5737100000,   0.0000000000,   0.0000000000)
 A2 = (  -0.1786850000,   3.5692400000,   0.0000000000)
 A3 = (  -0.1786850000,  -0.1878550000,   3.5642930000)


Analysis of symmetry for initial positions (statically):
=====================================================================
 Subroutine PRICEL returns following result:
 
  LATTYP: Found a trigonal (rhomboedric) cell.
 ALAT       =     2.4630094613
 COS(alpha) =     0.4473684996
  
  Lattice vectors:
  
 A1 = (  -0.1786850000,   1.6906925000,   1.7821465000)
 A2 = (   1.6975125000,  -0.0939275000,   1.7821465000)
 A3 = (   1.6975125000,   1.7846200000,   0.0000000000)
 
   4 primitive cells build up your supercell.
 

 Routine SETGRP: Setting up the symmetry group for a 
 trigonal (rhombohedral) supercell.


 Subroutine GETGRP returns: Found 12 space group operations
 (whereof  6 operations were pure point group operations)
 out of a pool of 12 trial point group operations.


The static configuration has the point symmetry C_3v.
 The point group associated with its full space group is D_3d.


Analysis of symmetry for dynamics (positions and initial velocities):
=====================================================================
 Subroutine PRICEL returns following result:
 
  LATTYP: Found a trigonal (rhomboedric) cell.
 ALAT       =     2.4630094613
 COS(alpha) =     0.4473684996
  
  Lattice vectors:
  
 A1 = (  -0.1786850000,   1.6906925000,   1.7821465000)
 A2 = (   1.6975125000,  -0.0939275000,   1.7821465000)
 A3 = (   1.6975125000,   1.7846200000,   0.0000000000)
 
   4 primitive cells build up your supercell.
 

 Routine SETGRP: Setting up the symmetry group for a 
 trigonal (rhombohedral) supercell.


 Subroutine GETGRP returns: Found 12 space group operations
 (whereof  6 operations were pure point group operations)
 out of a pool of 12 trial point group operations.


The dynamic configuration has the point symmetry C_3v.
 The point group associated with its full space group is D_3d.


 Subroutine INISYM returns: Found 12 space group operations
 (whereof  6 operations are pure point group operations),
 and found     4 'primitive' translations

 
 
 KPOINTS: kpt_density=1000                        

Automatic generation of k-mesh.
Space group operators:
 irot       det(A)        alpha          n_x          n_y          n_z        tau_x        tau_y        tau_z
    1     1.000000     0.000000     1.000000     0.000000     0.000000     0.000000     0.000000     0.000000
    2    -1.000000   180.000000     0.000000    -0.725476     0.688247     0.000000     0.000000     0.000000
    3     1.000000   120.000000    -0.547723    -0.575829    -0.606977     0.000000     0.000000     0.000000
    4    -1.000000   180.000000    -0.724569     0.689202     0.000000     0.000000     0.000000     0.000000
    5     1.000000   120.000000     0.547723     0.575829     0.606977     0.000000     0.000000     0.000000
    6    -1.000000   180.000000     0.724569     0.036274    -0.688247     0.000000     0.000000     0.000000
    7    -1.000000     0.000000     1.000000     0.000000     0.000000     0.250000     0.250000     0.250000
    8     1.000000   180.000000     0.000000    -0.725476     0.688247     0.250000     0.250000     0.250000
    9    -1.000000   120.000000    -0.547723    -0.575829    -0.606977     0.250000     0.250000     0.250000
   10     1.000000   180.000000    -0.724569     0.689202     0.000000     0.250000     0.250000     0.250000
   11    -1.000000   120.000000     0.547723     0.575829     0.606977     0.250000     0.250000     0.250000
   12     1.000000   180.000000     0.724569     0.036274    -0.688247     0.250000     0.250000     0.250000
 
 Subroutine IBZKPT returns following result:
 ===========================================
 
 Found    189 irreducible k-points:
 
 Following reciprocal coordinates:
            Coordinates               Weight
  0.000000  0.000000  0.000000      1.000000
  0.083333  0.000000  0.000000      6.000000
  0.166667  0.000000  0.000000      6.000000
  0.250000  0.000000  0.000000      6.000000
  0.333333 -0.000000  0.000000      6.000000
  0.416667 -0.000000 -0.000000      6.000000
  0.500000  0.000000  0.000000      3.000000
  0.083333  0.083333 -0.000000      6.000000
  0.166667  0.083333  0.000000     12.000000
  0.250000  0.083333  0.000000     12.000000
  0.333333  0.083333  0.000000     12.000000
  0.416667  0.083333 -0.000000     12.000000
  0.500000  0.083333 -0.000000     12.000000
 -0.416667  0.083333  0.000000     12.000000
 -0.333333  0.083333  0.000000     12.000000
 -0.250000  0.083333 -0.000000     12.000000
 -0.166667  0.083333  0.000000     12.000000
 -0.083333  0.083333  0.000000      6.000000
  0.166667  0.166667 -0.000000      6.000000
  0.250000  0.166667  0.000000     12.000000
  0.333333  0.166667  0.000000     12.000000
  0.416667  0.166667 -0.000000     12.000000
  0.500000  0.166667  0.000000     12.000000
 -0.416667  0.166667  0.000000     12.000000
 -0.333333  0.166667  0.000000     12.000000
 -0.250000  0.166667 -0.000000     12.000000
 -0.166667  0.166667 -0.000000      6.000000
  0.250000  0.250000  0.000000      6.000000
  0.333333  0.250000  0.000000     12.000000
  0.416667  0.250000 -0.000000     12.000000
  0.500000  0.250000 -0.000000     12.000000
 -0.416667  0.250000  0.000000     12.000000
 -0.333333  0.250000 -0.000000     12.000000
 -0.250000  0.250000  0.000000      6.000000
  0.333333  0.333333 -0.000000      6.000000
  0.416667  0.333333 -0.000000     12.000000
  0.500000  0.333333  0.000000     12.000000
 -0.416667  0.333333  0.000000     12.000000
 -0.333333  0.333333 -0.000000      6.000000
  0.416667  0.416667 -0.000000      6.000000
  0.500000  0.416667  0.000000     12.000000
 -0.416667  0.416667  0.000000      6.000000
  0.500000  0.500000  0.000000      3.000000
  0.083333  0.083333  0.083333      2.000000
  0.166667  0.083333  0.083333      6.000000
  0.250000  0.083333  0.083333      6.000000
  0.333333  0.083333  0.083333      6.000000
  0.416667  0.083333  0.083333      6.000000
  0.500000  0.083333  0.083333      6.000000
 -0.416667  0.083333  0.083333      6.000000
 -0.333333  0.083333  0.083333      6.000000
 -0.250000  0.083333  0.083333      6.000000
 -0.166667  0.083333  0.083333      6.000000
 -0.083333  0.083333  0.083333      6.000000
  0.166667  0.166667  0.083333      6.000000
  0.250000  0.166667  0.083333     12.000000
  0.333333  0.166667  0.083333     12.000000
  0.416667  0.166667  0.083333     12.000000
  0.500000  0.166667  0.083333     12.000000
 -0.416667  0.166667  0.083333     12.000000
 -0.333333  0.166667  0.083333     12.000000
 -0.250000  0.166667  0.083333     12.000000
 -0.166667  0.166667  0.083333     12.000000
 -0.083333  0.166667  0.083333     12.000000
  0.250000  0.250000  0.083333      6.000000
  0.333333  0.250000  0.083333     12.000000
  0.416667  0.250000  0.083333     12.000000
  0.500000  0.250000  0.083333     12.000000
 -0.416667  0.250000  0.083333     12.000000
 -0.333333  0.250000  0.083333     12.000000
 -0.250000  0.250000  0.083333     12.000000
 -0.166667  0.250000  0.083333     12.000000
 -0.083333  0.250000  0.083333     12.000000
  0.333333  0.333333  0.083333      6.000000
  0.416667  0.333333  0.083333     12.000000
  0.500000  0.333333  0.083333     12.000000
 -0.416667  0.333333  0.083333     12.000000
 -0.333333  0.333333  0.083333     12.000000
 -0.250000  0.333333  0.083333     12.000000
 -0.166667  0.333333  0.083333     12.000000
 -0.083333  0.333333  0.083333     12.000000
  0.416667  0.416667  0.083333      6.000000
  0.500000  0.416667  0.083333     12.000000
 -0.416667  0.416667  0.083333     12.000000
 -0.333333  0.416667  0.083333     12.000000
 -0.250000  0.416667  0.083333     12.000000
 -0.166667  0.416667  0.083333     12.000000
 -0.083333  0.416667  0.083333     12.000000
  0.500000  0.500000  0.083333      6.000000
 -0.416667  0.500000  0.083333     12.000000
 -0.333333  0.500000  0.083333     12.000000
 -0.250000  0.500000  0.083333     12.000000
 -0.166667  0.500000  0.083333     12.000000
 -0.083333  0.500000  0.083333      6.000000
 -0.416667 -0.416667  0.083333      6.000000
 -0.333333 -0.416667  0.083333     12.000000
 -0.250000 -0.416667  0.083333     12.000000
 -0.166667 -0.416667  0.083333     12.000000
 -0.333333 -0.333333  0.083333      6.000000
 -0.250000 -0.333333  0.083333     12.000000
 -0.166667 -0.333333  0.083333     12.000000
 -0.250000 -0.250000  0.083333      6.000000
 -0.166667 -0.250000  0.083333     12.000000
 -0.166667 -0.166667  0.083333      6.000000
  0.166667  0.166667  0.166667      2.000000
  0.250000  0.166667  0.166667      6.000000
  0.333333  0.166667  0.166667      6.000000
  0.416667  0.166667  0.166667      6.000000
  0.500000  0.166667  0.166667      6.000000
 -0.416667  0.166667  0.166667      6.000000
 -0.333333  0.166667  0.166667      6.000000
 -0.250000  0.166667  0.166667      6.000000
 -0.166667  0.166667  0.166667      6.000000
  0.250000  0.250000  0.166667      6.000000
  0.333333  0.250000  0.166667     12.000000
  0.416667  0.250000  0.166667     12.000000
  0.500000  0.250000  0.166667     12.000000
 -0.416667  0.250000  0.166667     12.000000
 -0.333333  0.250000  0.166667     12.000000
 -0.250000  0.250000  0.166667     12.000000
 -0.166667  0.250000  0.166667     12.000000
  0.333333  0.333333  0.166667      6.000000
  0.416667  0.333333  0.166667     12.000000
  0.500000  0.333333  0.166667     12.000000
 -0.416667  0.333333  0.166667     12.000000
 -0.333333  0.333333  0.166667     12.000000
 -0.250000  0.333333  0.166667     12.000000
 -0.166667  0.333333  0.166667     12.000000
  0.416667  0.416667  0.166667      6.000000
  0.500000  0.416667  0.166667     12.000000
 -0.416667  0.416667  0.166667     12.000000
 -0.333333  0.416667  0.166667     12.000000
 -0.250000  0.416667  0.166667     12.000000
 -0.166667  0.416667  0.166667     12.000000
  0.500000  0.500000  0.166667      6.000000
 -0.416667  0.500000  0.166667     12.000000
 -0.333333  0.500000  0.166667     12.000000
 -0.250000  0.500000  0.166667     12.000000
 -0.166667  0.500000  0.166667      6.000000
 -0.416667 -0.416667  0.166667      6.000000
 -0.333333 -0.416667  0.166667     12.000000
 -0.250000 -0.416667  0.166667     12.000000
 -0.333333 -0.333333  0.166667      6.000000
 -0.250000 -0.333333  0.166667     12.000000
 -0.250000 -0.250000  0.166667      6.000000
  0.250000  0.250000  0.250000      2.000000
  0.333333  0.250000  0.250000      6.000000
  0.416667  0.250000  0.250000      6.000000
  0.500000  0.250000  0.250000      6.000000
 -0.416667  0.250000  0.250000      6.000000
 -0.333333  0.250000  0.250000      6.000000
 -0.250000  0.250000  0.250000      6.000000
  0.333333  0.333333  0.250000      6.000000
  0.416667  0.333333  0.250000     12.000000
  0.500000  0.333333  0.250000     12.000000
 -0.416667  0.333333  0.250000     12.000000
 -0.333333  0.333333  0.250000     12.000000
 -0.250000  0.333333  0.250000     12.000000
  0.416667  0.416667  0.250000      6.000000
  0.500000  0.416667  0.250000     12.000000
 -0.416667  0.416667  0.250000     12.000000
 -0.333333  0.416667  0.250000     12.000000
 -0.250000  0.416667  0.250000     12.000000
  0.500000  0.500000  0.250000      6.000000
 -0.416667  0.500000  0.250000     12.000000
 -0.333333  0.500000  0.250000     12.000000
 -0.250000  0.500000  0.250000      6.000000
 -0.416667 -0.416667  0.250000      6.000000
 -0.333333 -0.416667  0.250000     12.000000
 -0.333333 -0.333333  0.250000      6.000000
  0.333333  0.333333  0.333333      2.000000
  0.416667  0.333333  0.333333      6.000000
  0.500000  0.333333  0.333333      6.000000
 -0.416667  0.333333  0.333333      6.000000
 -0.333333  0.333333  0.333333      6.000000
  0.416667  0.416667  0.333333      6.000000
  0.500000  0.416667  0.333333     12.000000
 -0.416667  0.416667  0.333333     12.000000
 -0.333333  0.416667  0.333333     12.000000
  0.500000  0.500000  0.333333      6.000000
 -0.416667  0.500000  0.333333     12.000000
 -0.333333  0.500000  0.333333      6.000000
 -0.416667 -0.416667  0.333333      6.000000
  0.416667  0.416667  0.416667      2.000000
  0.500000  0.416667  0.416667      6.000000
 -0.416667  0.416667  0.416667      6.000000
  0.500000  0.500000  0.416667      6.000000
 -0.416667  0.500000  0.416667      6.000000
  0.500000  0.500000  0.500000      1.000000
 
 Following cartesian coordinates:
            Coordinates               Weight
  0.000000  0.000000  0.000000      1.000000
  0.023318  0.001167  0.001231      6.000000
  0.046637  0.002335  0.002461      6.000000
  0.069955  0.003502  0.003692      6.000000
  0.093274  0.004670  0.004922      6.000000
  0.116592  0.005837  0.006153      6.000000
  0.139911  0.007004  0.007383      3.000000
  0.023318  0.024515  0.002461      6.000000
  0.046637  0.025682  0.003692     12.000000
  0.069955  0.026850  0.004922     12.000000
  0.093274  0.028017  0.006153     12.000000
  0.116592  0.029185  0.007383     12.000000
  0.139911  0.030352  0.008614     12.000000
 -0.116592  0.017511 -0.004922     12.000000
 -0.093274  0.018678 -0.003692     12.000000
 -0.069955  0.019846 -0.002461     12.000000
 -0.046637  0.021013 -0.001231     12.000000
 -0.023318  0.022180  0.000000      6.000000
  0.046637  0.049030  0.004922      6.000000
  0.069955  0.050197  0.006153     12.000000
  0.093274  0.051365  0.007383     12.000000
  0.116592  0.052532  0.008614     12.000000
  0.139911  0.053700  0.009844     12.000000
 -0.116592  0.040858 -0.003692     12.000000
 -0.093274  0.042026 -0.002461     12.000000
 -0.069955  0.043193 -0.001231     12.000000
 -0.046637  0.044361  0.000000      6.000000
  0.069955  0.073545  0.007383      6.000000
  0.093274  0.074712  0.008614     12.000000
  0.116592  0.075880  0.009844     12.000000
  0.139911  0.077047  0.011075     12.000000
 -0.116592  0.064206 -0.002461     12.000000
 -0.093274  0.065373 -0.001231     12.000000
 -0.069955  0.066541  0.000000      6.000000
  0.093274  0.098060  0.009844      6.000000
  0.116592  0.099227  0.011075     12.000000
  0.139911  0.100395  0.012305     12.000000
 -0.116592  0.087554 -0.001231     12.000000
 -0.093274  0.088721  0.000000      6.000000
  0.116592  0.122575  0.012305      6.000000
  0.139911  0.123742  0.013536     12.000000
 -0.116592  0.110901  0.000000      6.000000
  0.139911  0.147090  0.014766      3.000000
  0.023318  0.024515  0.025841      2.000000
  0.046637  0.025682  0.027072      6.000000
  0.069955  0.026850  0.028302      6.000000
  0.093274  0.028017  0.029533      6.000000
  0.116592  0.029185  0.030763      6.000000
  0.139911  0.030352  0.031994      6.000000
 -0.116592  0.017511  0.018458      6.000000
 -0.093274  0.018678  0.019688      6.000000
 -0.069955  0.019846  0.020919      6.000000
 -0.046637  0.021013  0.022150      6.000000
 -0.023318  0.022180  0.023380      6.000000
  0.046637  0.049030  0.028302      6.000000
  0.069955  0.050197  0.029533     12.000000
  0.093274  0.051365  0.030763     12.000000
  0.116592  0.052532  0.031994     12.000000
  0.139911  0.053700  0.033224     12.000000
 -0.116592  0.040858  0.019688     12.000000
 -0.093274  0.042026  0.020919     12.000000
 -0.069955  0.043193  0.022150     12.000000
 -0.046637  0.044361  0.023380     12.000000
 -0.023318  0.045528  0.024611     12.000000
  0.069955  0.073545  0.030763      6.000000
  0.093274  0.074712  0.031994     12.000000
  0.116592  0.075880  0.033224     12.000000
  0.139911  0.077047  0.034455     12.000000
 -0.116592  0.064206  0.020919     12.000000
 -0.093274  0.065373  0.022150     12.000000
 -0.069955  0.066541  0.023380     12.000000
 -0.046637  0.067708  0.024611     12.000000
 -0.023318  0.068876  0.025841     12.000000
  0.093274  0.098060  0.033224      6.000000
  0.116592  0.099227  0.034455     12.000000
  0.139911  0.100395  0.035685     12.000000
 -0.116592  0.087554  0.022150     12.000000
 -0.093274  0.088721  0.023380     12.000000
 -0.069955  0.089888  0.024611     12.000000
 -0.046637  0.091056  0.025841     12.000000
 -0.023318  0.092223  0.027072     12.000000
  0.116592  0.122575  0.035685      6.000000
  0.139911  0.123742  0.036916     12.000000
 -0.116592  0.110901  0.023380     12.000000
 -0.093274  0.112069  0.024611     12.000000
 -0.069955  0.113236  0.025841     12.000000
 -0.046637  0.114403  0.027072     12.000000
 -0.023318  0.115571  0.028302     12.000000
  0.139911  0.147090  0.038146      6.000000
 -0.116592  0.134249  0.024611     12.000000
 -0.093274  0.135416  0.025841     12.000000
 -0.069955  0.136584  0.027072     12.000000
 -0.046637  0.137751  0.028302     12.000000
 -0.023318  0.138918  0.029533      6.000000
 -0.116592 -0.122575  0.011075      6.000000
 -0.093274 -0.121408  0.012305     12.000000
 -0.069955 -0.120240  0.013536     12.000000
 -0.046637 -0.119073  0.014766     12.000000
 -0.093274 -0.098060  0.013536      6.000000
 -0.069955 -0.096893  0.014766     12.000000
 -0.046637 -0.095725  0.015997     12.000000
 -0.069955 -0.073545  0.015997      6.000000
 -0.046637 -0.072378  0.017227     12.000000
 -0.046637 -0.049030  0.018458      6.000000
  0.046637  0.049030  0.051682      2.000000
  0.069955  0.050197  0.052913      6.000000
  0.093274  0.051365  0.054143      6.000000
  0.116592  0.052532  0.055374      6.000000
  0.139911  0.053700  0.056604      6.000000
 -0.116592  0.040858  0.043069      6.000000
 -0.093274  0.042026  0.044299      6.000000
 -0.069955  0.043193  0.045530      6.000000
 -0.046637  0.044361  0.046760      6.000000
  0.069955  0.073545  0.054143      6.000000
  0.093274  0.074712  0.055374     12.000000
  0.116592  0.075880  0.056604     12.000000
  0.139911  0.077047  0.057835     12.000000
 -0.116592  0.064206  0.044299     12.000000
 -0.093274  0.065373  0.045530     12.000000
 -0.069955  0.066541  0.046760     12.000000
 -0.046637  0.067708  0.047991     12.000000
  0.093274  0.098060  0.056604      6.000000
  0.116592  0.099227  0.057835     12.000000
  0.139911  0.100395  0.059065     12.000000
 -0.116592  0.087554  0.045530     12.000000
 -0.093274  0.088721  0.046760     12.000000
 -0.069955  0.089888  0.047991     12.000000
 -0.046637  0.091056  0.049221     12.000000
  0.116592  0.122575  0.059065      6.000000
  0.139911  0.123742  0.060296     12.000000
 -0.116592  0.110901  0.046760     12.000000
 -0.093274  0.112069  0.047991     12.000000
 -0.069955  0.113236  0.049221     12.000000
 -0.046637  0.114403  0.050452     12.000000
  0.139911  0.147090  0.061526      6.000000
 -0.116592  0.134249  0.047991     12.000000
 -0.093274  0.135416  0.049221     12.000000
 -0.069955  0.136584  0.050452     12.000000
 -0.046637  0.137751  0.051682      6.000000
 -0.116592 -0.122575  0.034455      6.000000
 -0.093274 -0.121408  0.035685     12.000000
 -0.069955 -0.120240  0.036916     12.000000
 -0.093274 -0.098060  0.036916      6.000000
 -0.069955 -0.096893  0.038146     12.000000
 -0.069955 -0.073545  0.039377      6.000000
  0.069955  0.073545  0.077523      2.000000
  0.093274  0.074712  0.078754      6.000000
  0.116592  0.075880  0.079984      6.000000
  0.139911  0.077047  0.081215      6.000000
 -0.116592  0.064206  0.067679      6.000000
 -0.093274  0.065373  0.068910      6.000000
 -0.069955  0.066541  0.070140      6.000000
  0.093274  0.098060  0.079984      6.000000
  0.116592  0.099227  0.081215     12.000000
  0.139911  0.100395  0.082445     12.000000
 -0.116592  0.087554  0.068910     12.000000
 -0.093274  0.088721  0.070140     12.000000
 -0.069955  0.089888  0.071371     12.000000
  0.116592  0.122575  0.082445      6.000000
  0.139911  0.123742  0.083676     12.000000
 -0.116592  0.110901  0.070140     12.000000
 -0.093274  0.112069  0.071371     12.000000
 -0.069955  0.113236  0.072601     12.000000
  0.139911  0.147090  0.084906      6.000000
 -0.116592  0.134249  0.071371     12.000000
 -0.093274  0.135416  0.072601     12.000000
 -0.069955  0.136584  0.073832      6.000000
 -0.116592 -0.122575  0.057835      6.000000
 -0.093274 -0.121408  0.059065     12.000000
 -0.093274 -0.098060  0.060296      6.000000
  0.093274  0.098060  0.103364      2.000000
  0.116592  0.099227  0.104595      6.000000
  0.139911  0.100395  0.105825      6.000000
 -0.116592  0.087554  0.092290      6.000000
 -0.093274  0.088721  0.093520      6.000000
  0.116592  0.122575  0.105825      6.000000
  0.139911  0.123742  0.107056     12.000000
 -0.116592  0.110901  0.093520     12.000000
 -0.093274  0.112069  0.094751     12.000000
  0.139911  0.147090  0.108287      6.000000
 -0.116592  0.134249  0.094751     12.000000
 -0.093274  0.135416  0.095981      6.000000
 -0.116592 -0.122575  0.081215      6.000000
  0.116592  0.122575  0.129206      2.000000
  0.139911  0.123742  0.130436      6.000000
 -0.116592  0.110901  0.116900      6.000000
  0.139911  0.147090  0.131667      6.000000
 -0.116592  0.134249  0.118131      6.000000
  0.139911  0.147090  0.155047      1.000000
 
 TETIRR: Found   2550 inequivalent tetrahedra from    10368


--------------------------------------------------------------------------------------------------------




 Dimension of arrays:
   k-points           NKPTS =    189   k-points in BZ     NKDIM =    189   number of bands    NBANDS=     24
   number of dos      NEDOS =    301   number of ions     NIONS =      8
   non local maximal  LDIM  =      4   non local SUM 2l+1 LMDIM =      8
   total plane-waves  NPLWV =  13824
   max r-space proj   IRMAX =      1   max aug-charges    IRDMAX=   3787
   dimension x,y,z NGX =    24 NGY =   24 NGZ =   24
   dimension x,y,z NGXF=    48 NGYF=   48 NGZF=   48
   support grid    NGXF=    48 NGYF=   48 NGZF=   48
   ions per type =               8
   NGX,Y,Z   is equivalent  to a cutoff of  11.16, 11.16, 11.16 a.u.
   NGXF,Y,Z  is equivalent  to a cutoff of  22.33, 22.33, 22.33 a.u.

 SYSTEM =  unknown system                          
 POSCAR =  C8                                      

 Startparameter for this run:
   NWRITE =      2    write-flag & timer
   PREC   = accura    normal or accurate (medium, high low for compatibility)
   ISTART =      0    job   : 0-new  1-cont  2-samecut
   ICHARG =      2    charge: 1-file 2-atom 10-const
   ISPIN  =      1    spin polarized calculation?
   LNONCOLLINEAR =      F non collinear calculations
   LSORBIT =      F    spin-orbit coupling
   INIWAV =      1    electr: 0-lowe 1-rand  2-diag
   LASPH  =      F    aspherical Exc in radial PAW
   METAGGA=      F    non-selfconsistent MetaGGA calc.

 Electronic Relaxation 1
   ENCUT  =  400.0 eV  29.40 Ry    5.42 a.u.   5.83  5.83  5.83*2*pi/ulx,y,z
   ENINI  =  400.0     initial cutoff
   ENAUG  =  644.9 eV  augmentation charge cutoff
   NELM   =     60;   NELMIN=  2; NELMDL= -5     # of ELM steps 
   EDIFF  = 0.1E-05   stopping-criterion for ELM
   LREAL  =      F    real-space projection
   NLSPLINE    = F    spline interpolate recip. space projectors
   LCOMPAT=      F    compatible to vasp.4.4
   GGA_COMPAT  = T    GGA compatible to vasp.4.4-vasp.4.6
   LMAXPAW     = -100 max onsite density
   LMAXMIX     =    2 max onsite mixed and CHGCAR
   VOSKOWN=      0    Vosko Wilk Nusair interpolation
   ROPT   =    0.00000
 Ionic relaxation
   EDIFFG = 0.1E-04   stopping-criterion for IOM
   NSW    =      0    number of steps for IOM
   NBLOCK =      1;   KBLOCK =      1    inner block; outer block 
   IBRION =     -1    ionic relax: 0-MD 1-quasi-New 2-CG
   NFREE  =      0    steps in history (QN), initial steepest desc. (CG)
   ISIF   =      2    stress and relaxation
   IWAVPR =     10    prediction:  0-non 1-charg 2-wave 3-comb
   ISYM   =      2    0-nonsym 1-usesym 2-fastsym
   LCORR  =      T    Harris-Foulkes like correction to forces

   POTIM  = 0.0200    time-step for ionic-motion
   TEIN   =    0.0    initial temperature
   TEBEG  =    0.0;   TEEND  =   0.0 temperature during run
   SMASS  =  -3.00    Nose mass-parameter (am)
   estimated Nose-frequenzy (Omega)   =  0.10E-29 period in steps =****** mass=  -0.292E-27a.u.
   SCALEE = 1.0000    scale energy and forces
   NPACO  =    256;   APACO  = 16.0  distance and # of slots for P.C.
   PSTRESS=    0.0 pullay stress

  Mass of Ions in am
   POMASS =  12.01
  Ionic Valenz
   ZVAL   =   4.00
  Atomic Wigner-Seitz radii
   RWIGS  =  -1.00
  virtual crystal weights 
   VCA    =   1.00
   NELECT =      32.0000    total number of electrons
   NUPDOWN=      -1.0000    fix difference up-down

 DOS related values:
   EMIN   =  10.00;   EMAX   =-10.00  energy-range for DOS
   EFERMI =   0.00
   ISMEAR =    -5;   SIGMA  =   0.06  broadening in eV -4-tet -1-fermi 0-gaus

 Electronic relaxation 2 (details)
   IALGO  =     38    algorithm
   LDIAG  =      T    sub-space diagonalisation (order eigenvalues)
   LSUBROT=      F    optimize rotation matrix (better conditioning)
   TURBO    =      0    0=normal 1=particle mesh
   IRESTART =      0    0=no restart 2=restart with 2 vectors
   NREBOOT  =      0    no. of reboots
   NMIN     =      0    reboot dimension
   EREF     =   0.00    reference energy to select bands
   IMIX   =      4    mixing-type and parameters
     AMIX     =   0.40;   BMIX     =  1.00
     AMIX_MAG =   1.60;   BMIX_MAG =  1.00
     AMIN     =   0.10
     WC   =   100.;   INIMIX=   1;  MIXPRE=   1;  MAXMIX= -45

 Intra band minimization:
   WEIMIN = 0.0000     energy-eigenvalue tresh-hold
   EBREAK =  0.10E-07  absolut break condition
   DEPER  =   0.30     relativ break condition  

   TIME   =   0.40     timestep for ELM

  volume/ion in A,a.u.               =       5.68        38.35
  Fermi-wavevector in a.u.,A,eV,Ry     =   1.456248  2.751910 28.853306  2.120658
  Thomas-Fermi vector in A             =   2.573188
 
 Write flags
   LWAVE        =      F    write WAVECAR
   LDOWNSAMPLE  =      F    k-point downsampling of WAVECAR
   LCHARG       =      F    write CHGCAR
   LVTOT        =      F    write LOCPOT, total local potential
   LVHAR        =      F    write LOCPOT, Hartree potential only
   LELF         =      F    write electronic localiz. function (ELF)
   LORBIT       =      0    0 simple, 1 ext, 2 COOP (PROOUT), +10 PAW based schemes


 Dipole corrections
   LMONO  =      F    monopole corrections only (constant potential shift)
   LDIPOL =      F    correct potential (dipole corrections)
   IDIPOL =      0    1-x, 2-y, 3-z, 4-all directions 
   EPSILON=  1.0000000 bulk dielectric constant

 Exchange correlation treatment:
   GGA     =    --    GGA type
   LEXCH   =     8    internal setting for exchange type
   VOSKOWN=      0    Vosko Wilk Nusair interpolation
   LHFCALC =     F    Hartree Fock is set to
   LHFONE  =     F    Hartree Fock one center treatment
   AEXX    =    0.0000 exact exchange contribution

 Linear response parameters
   LEPSILON=     F    determine dielectric tensor
   LRPA    =     F    only Hartree local field effects (RPA)
   LNABLA  =     F    use nabla operator in PAW spheres
   LVEL    =     F    velocity operator in full k-point grid
   LINTERFAST=   F  fast interpolation
   KINTER  =     0    interpolate to denser k-point grid
   CSHIFT  =0.1000    complex shift for real part using Kramers Kronig
   OMEGAMAX=  -1.0    maximum frequency
   DEG_THRESHOLD= 0.2000000E-02 threshold for treating states as degnerate
   RTIME   =   -0.100 relaxation time in fs
  (WPLASMAI=    0.000 imaginary part of plasma frequency in eV, 0.658/RTIME)
   DFIELD  = 0.0000000 0.0000000 0.0000000 field for delta impulse in time
 
 Orbital magnetization related:
   ORBITALMAG=     F  switch on orbital magnetization
   LCHIMAG   =     F  perturbation theory with respect to B field
   DQ        =  0.001000  dq finite difference perturbation B field
   LLRAUG    =     F  two centre corrections for induced B field



--------------------------------------------------------------------------------------------------------


 Static calculation
 charge density and potential will be updated during run
 non-spin polarized calculation
 Variant of blocked Davidson
 Davidson routine will perform the subspace rotation
 perform sub-space diagonalisation
    after iterative eigenvector-optimisation
 modified Broyden-mixing scheme, WC =      100.0
 initial mixing is a Kerker type mixing with AMIX =  0.4000 and BMIX =      1.0000
 Hartree-type preconditioning will be used
 using additional bands            8
 reciprocal scheme for non local part
 calculate Harris-corrections to forces 
   (improved forces if not selfconsistent)
 use gradient corrections 
 use of overlap-Matrix (Vanderbilt PP)
 Fermi weights with tetrahedron method with Bloechl corrections


--------------------------------------------------------------------------------------------------------


  energy-cutoff  :      400.00
  volume of cell :       45.46
      direct lattice vectors                 reciprocal lattice vectors
     3.573710000  0.000000000  0.000000000     0.279821250  0.014008545  0.014766304
    -0.178685000  3.569240000  0.000000000     0.000000000  0.280171689  0.014766365
    -0.178685000 -0.187855000  3.564293000     0.000000000  0.000000000  0.280560549

  length of vectors
     3.573710000  3.573709908  3.573709896     0.280560537  0.280560548  0.280560549


 
 k-points in units of 2pi/SCALE and weight: kpt_density=1000                        
   0.00000000  0.00000000  0.00000000       0.001
   0.02331844  0.00116738  0.00123053       0.003
   0.04663688  0.00233476  0.00246105       0.003
   0.06995531  0.00350214  0.00369158       0.003
   0.09327375  0.00466952  0.00492210       0.003
   0.11659219  0.00583689  0.00615263       0.003
   0.13991063  0.00700427  0.00738315       0.002
   0.02331844  0.02451502  0.00246106       0.003
   0.04663688  0.02568240  0.00369158       0.007
   0.06995531  0.02684978  0.00492211       0.007
   0.09327375  0.02801716  0.00615263       0.007
   0.11659219  0.02918453  0.00738316       0.007
   0.13991063  0.03035191  0.00861368       0.007
  -0.11659219  0.01751075 -0.00492210       0.007
  -0.09327375  0.01867813 -0.00369157       0.007
  -0.06995531  0.01984550 -0.00246105       0.007
  -0.04663688  0.02101288 -0.00123052       0.007
  -0.02331844  0.02218026  0.00000001       0.003
   0.04663688  0.04903004  0.00492211       0.003
   0.06995531  0.05019742  0.00615264       0.007
   0.09327375  0.05136480  0.00738316       0.007
   0.11659219  0.05253218  0.00861369       0.007
   0.13991063  0.05369955  0.00984421       0.007
  -0.11659219  0.04085839 -0.00369157       0.007
  -0.09327375  0.04202577 -0.00246104       0.007
  -0.06995531  0.04319315 -0.00123052       0.007
  -0.04663688  0.04436052  0.00000001       0.003
   0.06995531  0.07354506  0.00738317       0.003
   0.09327375  0.07471244  0.00861369       0.007
   0.11659219  0.07587982  0.00984422       0.007
   0.13991063  0.07704719  0.01107474       0.007
  -0.11659219  0.06420603 -0.00246104       0.007
  -0.09327375  0.06537341 -0.00123051       0.007
  -0.06995531  0.06654079  0.00000002       0.003
   0.09327375  0.09806008  0.00984422       0.003
   0.11659219  0.09922746  0.01107475       0.007
   0.13991063  0.10039484  0.01230527       0.007
  -0.11659219  0.08755367 -0.00123051       0.007
  -0.09327375  0.08872105  0.00000002       0.003
   0.11659219  0.12257510  0.01230528       0.003
   0.13991063  0.12374248  0.01353580       0.007
  -0.11659219  0.11090131  0.00000003       0.003
   0.13991063  0.14709012  0.01476633       0.002
   0.02331844  0.02451502  0.02584110       0.001
   0.04663688  0.02568240  0.02707163       0.003
   0.06995531  0.02684978  0.02830215       0.003
   0.09327375  0.02801716  0.02953268       0.003
   0.11659219  0.02918453  0.03076320       0.003
   0.13991063  0.03035191  0.03199373       0.003
  -0.11659219  0.01751075  0.01845795       0.003
  -0.09327375  0.01867813  0.01968847       0.003
  -0.06995531  0.01984550  0.02091900       0.003
  -0.04663688  0.02101288  0.02214953       0.003
  -0.02331844  0.02218026  0.02338005       0.003
   0.04663688  0.04903004  0.02830216       0.003
   0.06995531  0.05019742  0.02953268       0.007
   0.09327375  0.05136480  0.03076321       0.007
   0.11659219  0.05253218  0.03199373       0.007
   0.13991063  0.05369955  0.03322426       0.007
  -0.11659219  0.04085839  0.01968848       0.007
  -0.09327375  0.04202577  0.02091901       0.007
  -0.06995531  0.04319315  0.02214953       0.007
  -0.04663688  0.04436052  0.02338006       0.007
  -0.02331844  0.04552790  0.02461058       0.007
   0.06995531  0.07354506  0.03076321       0.003
   0.09327375  0.07471244  0.03199374       0.007
   0.11659219  0.07587982  0.03322426       0.007
   0.13991063  0.07704719  0.03445479       0.007
  -0.11659219  0.06420603  0.02091901       0.007
  -0.09327375  0.06537341  0.02214954       0.007
  -0.06995531  0.06654079  0.02338006       0.007
  -0.04663688  0.06770816  0.02461059       0.007
  -0.02331844  0.06887554  0.02584111       0.007
   0.09327375  0.09806008  0.03322427       0.003
   0.11659219  0.09922746  0.03445479       0.007
   0.13991063  0.10039484  0.03568532       0.007
  -0.11659219  0.08755367  0.02214954       0.007
  -0.09327375  0.08872105  0.02338007       0.007
  -0.06995531  0.08988843  0.02461059       0.007
  -0.04663688  0.09105581  0.02584112       0.007
  -0.02331844  0.09222318  0.02707164       0.007
   0.11659219  0.12257510  0.03568532       0.003
   0.13991063  0.12374248  0.03691585       0.007
  -0.11659219  0.11090131  0.02338007       0.007
  -0.09327375  0.11206869  0.02461060       0.007
  -0.06995531  0.11323607  0.02584112       0.007
  -0.04663688  0.11440345  0.02707165       0.007
  -0.02331844  0.11557083  0.02830217       0.007
   0.13991063  0.14709012  0.03814638       0.003
  -0.11659219  0.13424895  0.02461060       0.007
  -0.09327375  0.13541633  0.02584113       0.007
  -0.06995531  0.13658371  0.02707165       0.007
  -0.04663688  0.13775109  0.02830218       0.007
  -0.02331844  0.13891847  0.02953270       0.003
  -0.11659219 -0.12257510  0.01107477       0.003
  -0.09327375 -0.12140772  0.01230529       0.007
  -0.06995531 -0.12024034  0.01353582       0.007
  -0.04663688 -0.11907296  0.01476634       0.007
  -0.09327375 -0.09806008  0.01353582       0.003
  -0.06995531 -0.09689270  0.01476635       0.007
  -0.04663688 -0.09572532  0.01599687       0.007
  -0.06995531 -0.07354506  0.01599688       0.003
  -0.04663688 -0.07237768  0.01722740       0.007
  -0.04663688 -0.04903004  0.01845793       0.003
   0.04663688  0.04903004  0.05168220       0.001
   0.06995531  0.05019742  0.05291273       0.003
   0.09327375  0.05136480  0.05414325       0.003
   0.11659219  0.05253218  0.05537378       0.003
   0.13991063  0.05369955  0.05660430       0.003
  -0.11659219  0.04085839  0.04306853       0.003
  -0.09327375  0.04202577  0.04429905       0.003
  -0.06995531  0.04319315  0.04552958       0.003
  -0.04663688  0.04436052  0.04676010       0.003
   0.06995531  0.07354506  0.05414326       0.003
   0.09327375  0.07471244  0.05537378       0.007
   0.11659219  0.07587982  0.05660431       0.007
   0.13991063  0.07704719  0.05783483       0.007
  -0.11659219  0.06420603  0.04429906       0.007
  -0.09327375  0.06537341  0.04552958       0.007
  -0.06995531  0.06654079  0.04676011       0.007
  -0.04663688  0.06770816  0.04799063       0.007
   0.09327375  0.09806008  0.05660431       0.003
   0.11659219  0.09922746  0.05783484       0.007
   0.13991063  0.10039484  0.05906537       0.007
  -0.11659219  0.08755367  0.04552959       0.007
  -0.09327375  0.08872105  0.04676011       0.007
  -0.06995531  0.08988843  0.04799064       0.007
  -0.04663688  0.09105581  0.04922116       0.007
   0.11659219  0.12257510  0.05906537       0.003
   0.13991063  0.12374248  0.06029590       0.007
  -0.11659219  0.11090131  0.04676012       0.007
  -0.09327375  0.11206869  0.04799064       0.007
  -0.06995531  0.11323607  0.04922117       0.007
  -0.04663688  0.11440345  0.05045169       0.007
   0.13991063  0.14709012  0.06152643       0.003
  -0.11659219  0.13424895  0.04799065       0.007
  -0.09327375  0.13541633  0.04922117       0.007
  -0.06995531  0.13658371  0.05045170       0.007
  -0.04663688  0.13775109  0.05168222       0.003
  -0.11659219 -0.12257510  0.03445481       0.003
  -0.09327375 -0.12140772  0.03568534       0.007
  -0.06995531 -0.12024034  0.03691586       0.007
  -0.09327375 -0.09806008  0.03691587       0.003
  -0.06995531 -0.09689270  0.03814639       0.007
  -0.06995531 -0.07354506  0.03937692       0.003
   0.06995531  0.07354506  0.07752330       0.001
   0.09327375  0.07471244  0.07875383       0.003
   0.11659219  0.07587982  0.07998436       0.003
   0.13991063  0.07704719  0.08121488       0.003
  -0.11659219  0.06420603  0.06767910       0.003
  -0.09327375  0.06537341  0.06890963       0.003
  -0.06995531  0.06654079  0.07014015       0.003
   0.09327375  0.09806008  0.07998436       0.003
   0.11659219  0.09922746  0.08121489       0.007
   0.13991063  0.10039484  0.08244541       0.007
  -0.11659219  0.08755367  0.06890963       0.007
  -0.09327375  0.08872105  0.07014016       0.007
  -0.06995531  0.08988843  0.07137068       0.007
   0.11659219  0.12257510  0.08244542       0.003
   0.13991063  0.12374248  0.08367594       0.007
  -0.11659219  0.11090131  0.07014016       0.007
  -0.09327375  0.11206869  0.07137069       0.007
  -0.06995531  0.11323607  0.07260121       0.007
   0.13991063  0.14709012  0.08490647       0.003
  -0.11659219  0.13424895  0.07137069       0.007
  -0.09327375  0.13541633  0.07260122       0.007
  -0.06995531  0.13658371  0.07383174       0.003
  -0.11659219 -0.12257510  0.05783486       0.003
  -0.09327375 -0.12140772  0.05906538       0.007
  -0.09327375 -0.09806008  0.06029591       0.003
   0.09327375  0.09806008  0.10336441       0.001
   0.11659219  0.09922746  0.10459493       0.003
   0.13991063  0.10039484  0.10582546       0.003
  -0.11659219  0.08755367  0.09228968       0.003
  -0.09327375  0.08872105  0.09352020       0.003
   0.11659219  0.12257510  0.10582546       0.003
   0.13991063  0.12374248  0.10705599       0.007
  -0.11659219  0.11090131  0.09352021       0.007
  -0.09327375  0.11206869  0.09475073       0.007
   0.13991063  0.14709012  0.10828652       0.003
  -0.11659219  0.13424895  0.09475074       0.007
  -0.09327375  0.13541633  0.09598126       0.003
  -0.11659219 -0.12257510  0.08121490       0.003
   0.11659219  0.12257510  0.12920551       0.001
   0.13991063  0.12374248  0.13043603       0.003
  -0.11659219  0.11090131  0.11690025       0.003
   0.13991063  0.14709012  0.13166656       0.003
  -0.11659219  0.13424895  0.11813078       0.003
   0.13991063  0.14709012  0.15504661       0.001
 
 k-points in reciprocal lattice and weights: kpt_density=1000                        
   0.00000000  0.00000000  0.00000000       0.001
   0.08333333  0.00000000  0.00000000       0.003
   0.16666667  0.00000000  0.00000000       0.003
   0.25000000  0.00000000  0.00000000       0.003
   0.33333333 -0.00000000  0.00000000       0.003
   0.41666667 -0.00000000 -0.00000000       0.003
   0.50000000  0.00000000  0.00000000       0.002
   0.08333333  0.08333333 -0.00000000       0.003
   0.16666667  0.08333333  0.00000000       0.007
   0.25000000  0.08333333  0.00000000       0.007
   0.33333333  0.08333333  0.00000000       0.007
   0.41666667  0.08333333 -0.00000000       0.007
   0.50000000  0.08333333 -0.00000000       0.007
  -0.41666667  0.08333333  0.00000000       0.007
  -0.33333333  0.08333333  0.00000000       0.007
  -0.25000000  0.08333333 -0.00000000       0.007
  -0.16666667  0.08333333  0.00000000       0.007
  -0.08333333  0.08333333  0.00000000       0.003
   0.16666667  0.16666667 -0.00000000       0.003
   0.25000000  0.16666667  0.00000000       0.007
   0.33333333  0.16666667  0.00000000       0.007
   0.41666667  0.16666667 -0.00000000       0.007
   0.50000000  0.16666667  0.00000000       0.007
  -0.41666667  0.16666667  0.00000000       0.007
  -0.33333333  0.16666667  0.00000000       0.007
  -0.25000000  0.16666667 -0.00000000       0.007
  -0.16666667  0.16666667 -0.00000000       0.003
   0.25000000  0.25000000  0.00000000       0.003
   0.33333333  0.25000000  0.00000000       0.007
   0.41666667  0.25000000 -0.00000000       0.007
   0.50000000  0.25000000 -0.00000000       0.007
  -0.41666667  0.25000000  0.00000000       0.007
  -0.33333333  0.25000000 -0.00000000       0.007
  -0.25000000  0.25000000  0.00000000       0.003
   0.33333333  0.33333333 -0.00000000       0.003
   0.41666667  0.33333333 -0.00000000       0.007
   0.50000000  0.33333333  0.00000000       0.007
  -0.41666667  0.33333333  0.00000000       0.007
  -0.33333333  0.33333333 -0.00000000       0.003
   0.41666667  0.41666667 -0.00000000       0.003
   0.50000000  0.41666667  0.00000000       0.007
  -0.41666667  0.41666667  0.00000000       0.003
   0.50000000  0.50000000  0.00000000       0.002
   0.08333333  0.08333333  0.08333333       0.001
   0.16666667  0.08333333  0.08333333       0.003
   0.25000000  0.08333333  0.08333333       0.003
   0.33333333  0.08333333  0.08333333       0.003
   0.41666667  0.08333333  0.08333333       0.003
   0.50000000  0.08333333  0.08333333       0.003
  -0.41666667  0.08333333  0.08333333       0.003
  -0.33333333  0.08333333  0.08333333       0.003
  -0.25000000  0.08333333  0.08333333       0.003
  -0.16666667  0.08333333  0.08333333       0.003
  -0.08333333  0.08333333  0.08333333       0.003
   0.16666667  0.16666667  0.08333333       0.003
   0.25000000  0.16666667  0.08333333       0.007
   0.33333333  0.16666667  0.08333333       0.007
   0.41666667  0.16666667  0.08333333       0.007
   0.50000000  0.16666667  0.08333333       0.007
  -0.41666667  0.16666667  0.08333333       0.007
  -0.33333333  0.16666667  0.08333333       0.007
  -0.25000000  0.16666667  0.08333333       0.007
  -0.16666667  0.16666667  0.08333333       0.007
  -0.08333333  0.16666667  0.08333333       0.007
   0.25000000  0.25000000  0.08333333       0.003
   0.33333333  0.25000000  0.08333333       0.007
   0.41666667  0.25000000  0.08333333       0.007
   0.50000000  0.25000000  0.08333333       0.007
  -0.41666667  0.25000000  0.08333333       0.007
  -0.33333333  0.25000000  0.08333333       0.007
  -0.25000000  0.25000000  0.08333333       0.007
  -0.16666667  0.25000000  0.08333333       0.007
  -0.08333333  0.25000000  0.08333333       0.007
   0.33333333  0.33333333  0.08333333       0.003
   0.41666667  0.33333333  0.08333333       0.007
   0.50000000  0.33333333  0.08333333       0.007
  -0.41666667  0.33333333  0.08333333       0.007
  -0.33333333  0.33333333  0.08333333       0.007
  -0.25000000  0.33333333  0.08333333       0.007
  -0.16666667  0.33333333  0.08333333       0.007
  -0.08333333  0.33333333  0.08333333       0.007
   0.41666667  0.41666667  0.08333333       0.003
   0.50000000  0.41666667  0.08333333       0.007
  -0.41666667  0.41666667  0.08333333       0.007
  -0.33333333  0.41666667  0.08333333       0.007
  -0.25000000  0.41666667  0.08333333       0.007
  -0.16666667  0.41666667  0.08333333       0.007
  -0.08333333  0.41666667  0.08333333       0.007
   0.50000000  0.50000000  0.08333333       0.003
  -0.41666667  0.50000000  0.08333333       0.007
  -0.33333333  0.50000000  0.08333333       0.007
  -0.25000000  0.50000000  0.08333333       0.007
  -0.16666667  0.50000000  0.08333333       0.007
  -0.08333333  0.50000000  0.08333333       0.003
  -0.41666667 -0.41666667  0.08333333       0.003
  -0.33333333 -0.41666667  0.08333333       0.007
  -0.25000000 -0.41666667  0.08333333       0.007
  -0.16666667 -0.41666667  0.08333333       0.007
  -0.33333333 -0.33333333  0.08333333       0.003
  -0.25000000 -0.33333333  0.08333333       0.007
  -0.16666667 -0.33333333  0.08333333       0.007
  -0.25000000 -0.25000000  0.08333333       0.003
  -0.16666667 -0.25000000  0.08333333       0.007
  -0.16666667 -0.16666667  0.08333333       0.003
   0.16666667  0.16666667  0.16666667       0.001
   0.25000000  0.16666667  0.16666667       0.003
   0.33333333  0.16666667  0.16666667       0.003
   0.41666667  0.16666667  0.16666667       0.003
   0.50000000  0.16666667  0.16666667       0.003
  -0.41666667  0.16666667  0.16666667       0.003
  -0.33333333  0.16666667  0.16666667       0.003
  -0.25000000  0.16666667  0.16666667       0.003
  -0.16666667  0.16666667  0.16666667       0.003
   0.25000000  0.25000000  0.16666667       0.003
   0.33333333  0.25000000  0.16666667       0.007
   0.41666667  0.25000000  0.16666667       0.007
   0.50000000  0.25000000  0.16666667       0.007
  -0.41666667  0.25000000  0.16666667       0.007
  -0.33333333  0.25000000  0.16666667       0.007
  -0.25000000  0.25000000  0.16666667       0.007
  -0.16666667  0.25000000  0.16666667       0.007
   0.33333333  0.33333333  0.16666667       0.003
   0.41666667  0.33333333  0.16666667       0.007
   0.50000000  0.33333333  0.16666667       0.007
  -0.41666667  0.33333333  0.16666667       0.007
  -0.33333333  0.33333333  0.16666667       0.007
  -0.25000000  0.33333333  0.16666667       0.007
  -0.16666667  0.33333333  0.16666667       0.007
   0.41666667  0.41666667  0.16666667       0.003
   0.50000000  0.41666667  0.16666667       0.007
  -0.41666667  0.41666667  0.16666667       0.007
  -0.33333333  0.41666667  0.16666667       0.007
  -0.25000000  0.41666667  0.16666667       0.007
  -0.16666667  0.41666667  0.16666667       0.007
   0.50000000  0.50000000  0.16666667       0.003
  -0.41666667  0.50000000  0.16666667       0.007
  -0.33333333  0.50000000  0.16666667       0.007
  -0.25000000  0.50000000  0.16666667       0.007
  -0.16666667  0.50000000  0.16666667       0.003
  -0.41666667 -0.41666667  0.16666667       0.003
  -0.33333333 -0.41666667  0.16666667       0.007
  -0.25000000 -0.41666667  0.16666667       0.007
  -0.33333333 -0.33333333  0.16666667       0.003
  -0.25000000 -0.33333333  0.16666667       0.007
  -0.25000000 -0.25000000  0.16666667       0.003
   0.25000000  0.25000000  0.25000000       0.001
   0.33333333  0.25000000  0.25000000       0.003
   0.41666667  0.25000000  0.25000000       0.003
   0.50000000  0.25000000  0.25000000       0.003
  -0.41666667  0.25000000  0.25000000       0.003
  -0.33333333  0.25000000  0.25000000       0.003
  -0.25000000  0.25000000  0.25000000       0.003
   0.33333333  0.33333333  0.25000000       0.003
   0.41666667  0.33333333  0.25000000       0.007
   0.50000000  0.33333333  0.25000000       0.007
  -0.41666667  0.33333333  0.25000000       0.007
  -0.33333333  0.33333333  0.25000000       0.007
  -0.25000000  0.33333333  0.25000000       0.007
   0.41666667  0.41666667  0.25000000       0.003
   0.50000000  0.41666667  0.25000000       0.007
  -0.41666667  0.41666667  0.25000000       0.007
  -0.33333333  0.41666667  0.25000000       0.007
  -0.25000000  0.41666667  0.25000000       0.007
   0.50000000  0.50000000  0.25000000       0.003
  -0.41666667  0.50000000  0.25000000       0.007
  -0.33333333  0.50000000  0.25000000       0.007
  -0.25000000  0.50000000  0.25000000       0.003
  -0.41666667 -0.41666667  0.25000000       0.003
  -0.33333333 -0.41666667  0.25000000       0.007
  -0.33333333 -0.33333333  0.25000000       0.003
   0.33333333  0.33333333  0.33333333       0.001
   0.41666667  0.33333333  0.33333333       0.003
   0.50000000  0.33333333  0.33333333       0.003
  -0.41666667  0.33333333  0.33333333       0.003
  -0.33333333  0.33333333  0.33333333       0.003
   0.41666667  0.41666667  0.33333333       0.003
   0.50000000  0.41666667  0.33333333       0.007
  -0.41666667  0.41666667  0.33333333       0.007
  -0.33333333  0.41666667  0.33333333       0.007
   0.50000000  0.50000000  0.33333333       0.003
  -0.41666667  0.50000000  0.33333333       0.007
  -0.33333333  0.50000000  0.33333333       0.003
  -0.41666667 -0.41666667  0.33333333       0.003
   0.41666667  0.41666667  0.41666667       0.001
   0.50000000  0.41666667  0.41666667       0.003
  -0.41666667  0.41666667  0.41666667       0.003
   0.50000000  0.50000000  0.41666667       0.003
  -0.41666667  0.50000000  0.41666667       0.003
   0.50000000  0.50000000  0.50000000       0.001
 
 position of ions in fractional coordinates (direct lattice) 
   0.25000000  0.75000000  0.25000000
   0.00000000  0.00000000  0.50000000
   0.25000000  0.25000000  0.75000000
   0.00000000  0.50000000  0.00000000
   0.75000000  0.75000000  0.75000000
   0.50000000  0.00000000  0.00000000
   0.75000000  0.25000000  0.25000000
   0.50000000  0.50000000  0.50000000
 
 position of ions in cartesian coordinates  (Angst):
   0.71474250  2.62996625  0.89107325
  -0.08934250 -0.09392750  1.78214650
   0.71474250  0.75141875  2.67321975
  -0.08934250  1.78462000  0.00000000
   2.41225500  2.53603875  2.67321975
   1.78685500  0.00000000  0.00000000
   2.59094000  0.84534625  0.89107325
   1.60817000  1.69069250  1.78214650
 


--------------------------------------------------------------------------------------------------------


 k-point  1 :   0.0000 0.0000 0.0000  plane waves:     835
 k-point  2 :   0.0833 0.0000 0.0000  plane waves:     832
 k-point  3 :   0.1667 0.0000 0.0000  plane waves:     821
 k-point  4 :   0.2500 0.0000 0.0000  plane waves:     824
 k-point  5 :   0.3333-0.0000 0.0000  plane waves:     822
 k-point  6 :   0.4167-0.0000-0.0000  plane waves:     820
 k-point  7 :   0.5000 0.0000 0.0000  plane waves:     826
 k-point  8 :   0.0833 0.0833-0.0000  plane waves:     823
 k-point  9 :   0.1667 0.0833 0.0000  plane waves:     828
 k-point 10 :   0.2500 0.0833 0.0000  plane waves:     823
 k-point 11 :   0.3333 0.0833 0.0000  plane waves:     825
 k-point 12 :   0.4167 0.0833-0.0000  plane waves:     824
 k-point 13 :   0.5000 0.0833-0.0000  plane waves:     825
 k-point 14 :  -0.4167 0.0833 0.0000  plane waves:     821
 k-point 15 :  -0.3333 0.0833 0.0000  plane waves:     821
 k-point 16 :  -0.2500 0.0833-0.0000  plane waves:     818
 k-point 17 :  -0.1667 0.0833 0.0000  plane waves:     816
 k-point 18 :  -0.0833 0.0833 0.0000  plane waves:     825
 k-point 19 :   0.1667 0.1667-0.0000  plane waves:     822
 k-point 20 :   0.2500 0.1667 0.0000  plane waves:     824
 k-point 21 :   0.3333 0.1667 0.0000  plane waves:     830
 k-point 22 :   0.4167 0.1667-0.0000  plane waves:     825
 k-point 23 :   0.5000 0.1667 0.0000  plane waves:     823
 k-point 24 :  -0.4167 0.1667 0.0000  plane waves:     824
 k-point 25 :  -0.3333 0.1667 0.0000  plane waves:     822
 k-point 26 :  -0.2500 0.1667-0.0000  plane waves:     819
 k-point 27 :  -0.1667 0.1667-0.0000  plane waves:     815
 k-point 28 :   0.2500 0.2500 0.0000  plane waves:     825
 k-point 29 :   0.3333 0.2500 0.0000  plane waves:     830
 k-point 30 :   0.4167 0.2500-0.0000  plane waves:     828
 k-point 31 :   0.5000 0.2500-0.0000  plane waves:     828
 k-point 32 :  -0.4167 0.2500 0.0000  plane waves:     826
 k-point 33 :  -0.3333 0.2500-0.0000  plane waves:     824
 k-point 34 :  -0.2500 0.2500 0.0000  plane waves:     820
 k-point 35 :   0.3333 0.3333-0.0000  plane waves:     832
 k-point 36 :   0.4167 0.3333-0.0000  plane waves:     827
 k-point 37 :   0.5000 0.3333 0.0000  plane waves:     833
 k-point 38 :  -0.4167 0.3333 0.0000  plane waves:     834
 k-point 39 :  -0.3333 0.3333-0.0000  plane waves:     820
 k-point 40 :   0.4167 0.4167-0.0000  plane waves:     822
 k-point 41 :   0.5000 0.4167 0.0000  plane waves:     830
 k-point 42 :  -0.4167 0.4167 0.0000  plane waves:     826
 k-point 43 :   0.5000 0.5000 0.0000  plane waves:     834
 k-point 44 :   0.0833 0.0833 0.0833  plane waves:     823
 k-point 45 :   0.1667 0.0833 0.0833  plane waves:     829
 k-point 46 :   0.2500 0.0833 0.0833  plane waves:     826
 k-point 47 :   0.3333 0.0833 0.0833  plane waves:     830
 k-point 48 :   0.4167 0.0833 0.0833  plane waves:     827
 k-point 49 :   0.5000 0.0833 0.0833  plane waves:     827
 k-point 50 :  -0.4167 0.0833 0.0833  plane waves:     823
 k-point 51 :  -0.3333 0.0833 0.0833  plane waves:     823
 k-point 52 :  -0.2500 0.0833 0.0833  plane waves:     818
 k-point 53 :  -0.1667 0.0833 0.0833  plane waves:     818
 k-point 54 :  -0.0833 0.0833 0.0833  plane waves:     826
 k-point 55 :   0.1667 0.1667 0.0833  plane waves:     821
 k-point 56 :   0.2500 0.1667 0.0833  plane waves:     825
 k-point 57 :   0.3333 0.1667 0.0833  plane waves:     832
 k-point 58 :   0.4167 0.1667 0.0833  plane waves:     831
 k-point 59 :   0.5000 0.1667 0.0833  plane waves:     828
 k-point 60 :  -0.4167 0.1667 0.0833  plane waves:     823
 k-point 61 :  -0.3333 0.1667 0.0833  plane waves:     822
 k-point 62 :  -0.2500 0.1667 0.0833  plane waves:     824
 k-point 63 :  -0.1667 0.1667 0.0833  plane waves:     817
 k-point 64 :  -0.0833 0.1667 0.0833  plane waves:     826
 k-point 65 :   0.2500 0.2500 0.0833  plane waves:     823
 k-point 66 :   0.3333 0.2500 0.0833  plane waves:     832
 k-point 67 :   0.4167 0.2500 0.0833  plane waves:     836
 k-point 68 :   0.5000 0.2500 0.0833  plane waves:     829
 k-point 69 :  -0.4167 0.2500 0.0833  plane waves:     831
 k-point 70 :  -0.3333 0.2500 0.0833  plane waves:     822
 k-point 71 :  -0.2500 0.2500 0.0833  plane waves:     826
 k-point 72 :  -0.1667 0.2500 0.0833  plane waves:     823
 k-point 73 :  -0.0833 0.2500 0.0833  plane waves:     821
 k-point 74 :   0.3333 0.3333 0.0833  plane waves:     832
 k-point 75 :   0.4167 0.3333 0.0833  plane waves:     831
 k-point 76 :   0.5000 0.3333 0.0833  plane waves:     831
 k-point 77 :  -0.4167 0.3333 0.0833  plane waves:     824
 k-point 78 :  -0.3333 0.3333 0.0833  plane waves:     822
 k-point 79 :  -0.2500 0.3333 0.0833  plane waves:     826
 k-point 80 :  -0.1667 0.3333 0.0833  plane waves:     819
 k-point 81 :  -0.0833 0.3333 0.0833  plane waves:     824
 k-point 82 :   0.4167 0.4167 0.0833  plane waves:     829
 k-point 83 :   0.5000 0.4167 0.0833  plane waves:     832
 k-point 84 :  -0.4167 0.4167 0.0833  plane waves:     826
 k-point 85 :  -0.3333 0.4167 0.0833  plane waves:     829
 k-point 86 :  -0.2500 0.4167 0.0833  plane waves:     828
 k-point 87 :  -0.1667 0.4167 0.0833  plane waves:     820
 k-point 88 :  -0.0833 0.4167 0.0833  plane waves:     820
 k-point 89 :   0.5000 0.5000 0.0833  plane waves:     826
 k-point 90 :  -0.4167 0.5000 0.0833  plane waves:     827
 k-point 91 :  -0.3333 0.5000 0.0833  plane waves:     825
 k-point 92 :  -0.2500 0.5000 0.0833  plane waves:     830
 k-point 93 :  -0.1667 0.5000 0.0833  plane waves:     821
 k-point 94 :  -0.0833 0.5000 0.0833  plane waves:     820
 k-point 95 :  -0.4167-0.4167 0.0833  plane waves:     828
 k-point 96 :  -0.3333-0.4167 0.0833  plane waves:     828
 k-point 97 :  -0.2500-0.4167 0.0833  plane waves:     824
 k-point 98 :  -0.1667-0.4167 0.0833  plane waves:     819
 k-point 99 :  -0.3333-0.3333 0.0833  plane waves:     825
 k-point ** :  -0.2500-0.3333 0.0833  plane waves:     825
 k-point ** :  -0.1667-0.3333 0.0833  plane waves:     821
 k-point ** :  -0.2500-0.2500 0.0833  plane waves:     823
 k-point ** :  -0.1667-0.2500 0.0833  plane waves:     822
 k-point ** :  -0.1667-0.1667 0.0833  plane waves:     824
 k-point ** :   0.1667 0.1667 0.1667  plane waves:     829
 k-point ** :   0.2500 0.1667 0.1667  plane waves:     834
 k-point ** :   0.3333 0.1667 0.1667  plane waves:     829
 k-point ** :   0.4167 0.1667 0.1667  plane waves:     837
 k-point ** :   0.5000 0.1667 0.1667  plane waves:     833
 k-point ** :  -0.4167 0.1667 0.1667  plane waves:     829
 k-point ** :  -0.3333 0.1667 0.1667  plane waves:     822
 k-point ** :  -0.2500 0.1667 0.1667  plane waves:     823
 k-point ** :  -0.1667 0.1667 0.1667  plane waves:     819
 k-point ** :   0.2500 0.2500 0.1667  plane waves:     831
 k-point ** :   0.3333 0.2500 0.1667  plane waves:     833
 k-point ** :   0.4167 0.2500 0.1667  plane waves:     833
 k-point ** :   0.5000 0.2500 0.1667  plane waves:     831
 k-point ** :  -0.4167 0.2500 0.1667  plane waves:     835
 k-point ** :  -0.3333 0.2500 0.1667  plane waves:     821
 k-point ** :  -0.2500 0.2500 0.1667  plane waves:     818
 k-point ** :  -0.1667 0.2500 0.1667  plane waves:     815
 k-point ** :   0.3333 0.3333 0.1667  plane waves:     838
 k-point ** :   0.4167 0.3333 0.1667  plane waves:     828
 k-point ** :   0.5000 0.3333 0.1667  plane waves:     830
 k-point ** :  -0.4167 0.3333 0.1667  plane waves:     828
 k-point ** :  -0.3333 0.3333 0.1667  plane waves:     823
 k-point ** :  -0.2500 0.3333 0.1667  plane waves:     823
 k-point ** :  -0.1667 0.3333 0.1667  plane waves:     822
 k-point ** :   0.4167 0.4167 0.1667  plane waves:     830
 k-point ** :   0.5000 0.4167 0.1667  plane waves:     830
 k-point ** :  -0.4167 0.4167 0.1667  plane waves:     825
 k-point ** :  -0.3333 0.4167 0.1667  plane waves:     826
 k-point ** :  -0.2500 0.4167 0.1667  plane waves:     828
 k-point ** :  -0.1667 0.4167 0.1667  plane waves:     821
 k-point ** :   0.5000 0.5000 0.1667  plane waves:     822
 k-point ** :  -0.4167 0.5000 0.1667  plane waves:     823
 k-point ** :  -0.3333 0.5000 0.1667  plane waves:     824
 k-point ** :  -0.2500 0.5000 0.1667  plane waves:     824
 k-point ** :  -0.1667 0.5000 0.1667  plane waves:     822
 k-point ** :  -0.4167-0.4167 0.1667  plane waves:     824
 k-point ** :  -0.3333-0.4167 0.1667  plane waves:     822
 k-point ** :  -0.2500-0.4167 0.1667  plane waves:     820
 k-point ** :  -0.3333-0.3333 0.1667  plane waves:     819
 k-point ** :  -0.2500-0.3333 0.1667  plane waves:     816
 k-point ** :  -0.2500-0.2500 0.1667  plane waves:     819
 k-point ** :   0.2500 0.2500 0.2500  plane waves:     825
 k-point ** :   0.3333 0.2500 0.2500  plane waves:     826
 k-point ** :   0.4167 0.2500 0.2500  plane waves:     830
 k-point ** :   0.5000 0.2500 0.2500  plane waves:     829
 k-point ** :  -0.4167 0.2500 0.2500  plane waves:     831
 k-point ** :  -0.3333 0.2500 0.2500  plane waves:     825
 k-point ** :  -0.2500 0.2500 0.2500  plane waves:     819
 k-point ** :   0.3333 0.3333 0.2500  plane waves:     835
 k-point ** :   0.4167 0.3333 0.2500  plane waves:     831
 k-point ** :   0.5000 0.3333 0.2500  plane waves:     833
 k-point ** :  -0.4167 0.3333 0.2500  plane waves:     830
 k-point ** :  -0.3333 0.3333 0.2500  plane waves:     818
 k-point ** :  -0.2500 0.3333 0.2500  plane waves:     820
 k-point ** :   0.4167 0.4167 0.2500  plane waves:     833
 k-point ** :   0.5000 0.4167 0.2500  plane waves:     831
 k-point ** :  -0.4167 0.4167 0.2500  plane waves:     826
 k-point ** :  -0.3333 0.4167 0.2500  plane waves:     826
 k-point ** :  -0.2500 0.4167 0.2500  plane waves:     825
 k-point ** :   0.5000 0.5000 0.2500  plane waves:     830
 k-point ** :  -0.4167 0.5000 0.2500  plane waves:     827
 k-point ** :  -0.3333 0.5000 0.2500  plane waves:     823
 k-point ** :  -0.2500 0.5000 0.2500  plane waves:     830
 k-point ** :  -0.4167-0.4167 0.2500  plane waves:     822
 k-point ** :  -0.3333-0.4167 0.2500  plane waves:     825
 k-point ** :  -0.3333-0.3333 0.2500  plane waves:     820
 k-point ** :   0.3333 0.3333 0.3333  plane waves:     825
 k-point ** :   0.4167 0.3333 0.3333  plane waves:     839
 k-point ** :   0.5000 0.3333 0.3333  plane waves:     835
 k-point ** :  -0.4167 0.3333 0.3333  plane waves:     835
 k-point ** :  -0.3333 0.3333 0.3333  plane waves:     824
 k-point ** :   0.4167 0.4167 0.3333  plane waves:     843
 k-point ** :   0.5000 0.4167 0.3333  plane waves:     835
 k-point ** :  -0.4167 0.4167 0.3333  plane waves:     827
 k-point ** :  -0.3333 0.4167 0.3333  plane waves:     828
 k-point ** :   0.5000 0.5000 0.3333  plane waves:     830
 k-point ** :  -0.4167 0.5000 0.3333  plane waves:     828
 k-point ** :  -0.3333 0.5000 0.3333  plane waves:     832
 k-point ** :  -0.4167-0.4167 0.3333  plane waves:     835
 k-point ** :   0.4167 0.4167 0.4167  plane waves:     843
 k-point ** :   0.5000 0.4167 0.4167  plane waves:     835
 k-point ** :  -0.4167 0.4167 0.4167  plane waves:     824
 k-point ** :   0.5000 0.5000 0.4167  plane waves:     828
 k-point ** :  -0.4167 0.5000 0.4167  plane waves:     820
 k-point ** :   0.5000 0.5000 0.5000  plane waves:     822

 maximum and minimum number of plane-waves per node :       221      191

 maximum number of plane-waves:       843
 maximum index in each direction: 
   IXMAX=    6   IYMAX=    6   IZMAX=    5
   IXMIN=   -6   IYMIN=   -6   IZMIN=   -6


 parallel 3D FFT for wavefunctions:
    minimum data exchange during FFTs selected (reduces bandwidth)
 parallel 3D FFT for charge:
    minimum data exchange during FFTs selected (reduces bandwidth)


 total amount of memory used by VASP MPI-rank0    37682. kBytes
=======================================================================

   base      :      30000. kBytes
   nonl-proj :       2640. kBytes
   fftplans  :        346. kBytes
   grid      :        481. kBytes
   one-center:          6. kBytes
   wavefun   :       4209. kBytes
 
     INWAV:  cpu time    0.0004: real time    0.0005
 Broyden mixing: mesh for mixing (old mesh)
   NGX = 11   NGY = 11   NGZ = 11
  (NGX  = 48   NGY  = 48   NGZ  = 48)
  gives a total of   1331 points

 initial charge density was supplied:
 charge density of overlapping atoms calculated
 number of electron      32.0000000 magnetization 
 keeping initial charge density in first step


--------------------------------------------------------------------------------------------------------


 Maximum index for augmentation-charges          281 (set IRDMAX)


--------------------------------------------------------------------------------------------------------


 First call to EWALD:  gamma=   0.497
 Maximum number of real-space cells 3x 3x 3
 Maximum number of reciprocal cells 3x 3x 3

    FEWALD:  cpu time    0.0053: real time    0.0053


--------------------------------------- Iteration      1(   1)  ---------------------------------------


    POTLOK:  cpu time    0.0283: real time    0.0330
    SETDIJ:  cpu time    0.0066: real time    0.0066
     EDDAV:  cpu time    9.2640: real time    9.2727
 BZINTS: Fermi energy: 18.704834; 32.000000 electrons
         Band energy: 122.507914;  BLOECHL correction: -0.173147
       DOS:  cpu time    0.5040: real time    0.5040
    --------------------------------------------
      LOOP:  cpu time    9.8031: real time    9.8164

 eigenvalue-minimisations  :  9072
 total energy-change (2. order) : 0.5898786E+02  (-0.1440984E+04)
 number of electron      32.0000000 magnetization 
 augmentation part       32.0000000 magnetization 

 Free energy of the ion-electron system (eV)
  ---------------------------------------------------
  alpha Z        PSCENC =       114.69999843
  Ewald energy   TEWEN  =     -1388.90629281
  -Hartree energ DENC   =       -71.49957954
  -exchange      EXHF   =         0.00000000
  -V(xc)+E(xc)   XCENC  =       114.37186373
  PAW double counting   =       302.65154477     -311.85538214
  entropy T*S    EENTRO =         0.00000000
  eigenvalues    EBANDS =       122.50791399
  atomic energy  EATOM  =      1177.01779097
  Solvation  Ediel_sol  =         0.00000000
  ---------------------------------------------------
  free energy    TOTEN  =        58.98785741 eV

  energy without entropy =       58.98785741  energy(sigma->0) =       58.98785741


--------------------------------------------------------------------------------------------------------




--------------------------------------- Iteration      1(   2)  ---------------------------------------


     EDDAV:  cpu time   11.5749: real time   11.5769
 BZINTS: Fermi energy:  9.173844; 32.000000 electrons
         Band energy:  -6.848651;  BLOECHL correction:  0.000000
       DOS:  cpu time    0.1356: real time    0.1356
    --------------------------------------------
      LOOP:  cpu time   11.7104: real time   11.7125

 eigenvalue-minimisations  : 12464
 total energy-change (2. order) :-0.1293566E+03  (-0.1225556E+03)
 number of electron      32.0000000 magnetization 
 augmentation part       32.0000000 magnetization 

 Free energy of the ion-electron system (eV)
  ---------------------------------------------------
  alpha Z        PSCENC =       114.69999843
  Ewald energy   TEWEN  =     -1388.90629281
  -Hartree energ DENC   =       -71.49957954
  -exchange      EXHF   =         0.00000000
  -V(xc)+E(xc)   XCENC  =       114.37186373
  PAW double counting   =       302.65154477     -311.85538214
  entropy T*S    EENTRO =         0.00000000
  eigenvalues    EBANDS =        -6.84865133
  atomic energy  EATOM  =      1177.01779097
  Solvation  Ediel_sol  =         0.00000000
  ---------------------------------------------------
  free energy    TOTEN  =       -70.36870791 eV

  energy without entropy =      -70.36870791  energy(sigma->0) =      -70.36870791


--------------------------------------------------------------------------------------------------------




--------------------------------------- Iteration      1(   3)  ---------------------------------------


     EDDAV:  cpu time   11.2394: real time   11.2425
 BZINTS: Fermi energy:  8.611414; 32.000000 electrons
         Band energy: -11.154177;  BLOECHL correction:  0.000000
       DOS:  cpu time    0.1211: real time    0.1211
    --------------------------------------------
      LOOP:  cpu time   11.3605: real time   11.3635

 eigenvalue-minimisations  : 11928
 total energy-change (2. order) :-0.4305526E+01  (-0.4282006E+01)
 number of electron      32.0000000 magnetization 
 augmentation part       32.0000000 magnetization 

 Free energy of the ion-electron system (eV)
  ---------------------------------------------------
  alpha Z        PSCENC =       114.69999843
  Ewald energy   TEWEN  =     -1388.90629281
  -Hartree energ DENC   =       -71.49957954
  -exchange      EXHF   =         0.00000000
  -V(xc)+E(xc)   XCENC  =       114.37186373
  PAW double counting   =       302.65154477     -311.85538214
  entropy T*S    EENTRO =         0.00000000
  eigenvalues    EBANDS =       -11.15417725
  atomic energy  EATOM  =      1177.01779097
  Solvation  Ediel_sol  =         0.00000000
  ---------------------------------------------------
  free energy    TOTEN  =       -74.67423383 eV

  energy without entropy =      -74.67423383  energy(sigma->0) =      -74.67423383


--------------------------------------------------------------------------------------------------------




--------------------------------------- Iteration      1(   4)  ---------------------------------------


     EDDAV:  cpu time   10.8138: real time   10.8152
 BZINTS: Fermi energy:  8.438445; 32.000000 electrons
         Band energy: -11.196604;  BLOECHL correction:  0.000000
       DOS:  cpu time    0.1076: real time    0.1076
    --------------------------------------------
      LOOP:  cpu time   10.9214: real time   10.9228

 eigenvalue-minimisations  : 11184
 total energy-change (2. order) :-0.4242650E-01  (-0.4239297E-01)
 number of electron      32.0000000 magnetization 
 augmentation part       32.0000000 magnetization 

 Free energy of the ion-electron system (eV)
  ---------------------------------------------------
  alpha Z        PSCENC =       114.69999843
  Ewald energy   TEWEN  =     -1388.90629281
  -Hartree energ DENC   =       -71.49957954
  -exchange      EXHF   =         0.00000000
  -V(xc)+E(xc)   XCENC  =       114.37186373
  PAW double counting   =       302.65154477     -311.85538214
  entropy T*S    EENTRO =         0.00000000
  eigenvalues    EBANDS =       -11.19660375
  atomic energy  EATOM  =      1177.01779097
  Solvation  Ediel_sol  =         0.00000000
  ---------------------------------------------------
  free energy    TOTEN  =       -74.71666033 eV

  energy without entropy =      -74.71666033  energy(sigma->0) =      -74.71666033


--------------------------------------------------------------------------------------------------------




--------------------------------------- Iteration      1(   5)  ---------------------------------------


     EDDAV:  cpu time   11.3469: real time   11.3480
 BZINTS: Fermi energy:  8.531424; 32.000000 electrons
         Band energy: -11.197503;  BLOECHL correction:  0.000000
       DOS:  cpu time    0.1211: real time    0.1211
    CHARGE:  cpu time    0.3262: real time    0.3262
    MIXING:  cpu time    0.0015: real time    0.0015
    --------------------------------------------
      LOOP:  cpu time   11.7957: real time   11.7969

 eigenvalue-minimisations  : 11936
 total energy-change (2. order) :-0.8990331E-03  (-0.8981344E-03)
 number of electron      32.0000008 magnetization 
 augmentation part        0.7893561 magnetization 

 Broyden mixing:
  rms(total) = 0.96211E+00    rms(broyden)= 0.96191E+00
  rms(prec ) = 0.22785E+01
  weight for this iteration     100.00

 Free energy of the ion-electron system (eV)
  ---------------------------------------------------
  alpha Z        PSCENC =       114.69999843
  Ewald energy   TEWEN  =     -1388.90629281
  -Hartree energ DENC   =       -71.49957954
  -exchange      EXHF   =         0.00000000
  -V(xc)+E(xc)   XCENC  =       114.37186373
  PAW double counting   =       302.65154477     -311.85538214
  entropy T*S    EENTRO =         0.00000000
  eigenvalues    EBANDS =       -11.19750278
  atomic energy  EATOM  =      1177.01779097
  Solvation  Ediel_sol  =         0.00000000
  ---------------------------------------------------
  free energy    TOTEN  =       -74.71755936 eV

  energy without entropy =      -74.71755936  energy(sigma->0) =      -74.71755936


--------------------------------------------------------------------------------------------------------




--------------------------------------- Iteration      1(   6)  ---------------------------------------


    POTLOK:  cpu time    0.0203: real time    0.0206
    SETDIJ:  cpu time    0.0058: real time    0.0058
     EDDAV:  cpu time   10.0617: real time   10.0625
 BZINTS: Fermi energy:  9.159315; 32.000000 electrons
         Band energy:   5.323475;  BLOECHL correction:  0.000000
       DOS:  cpu time    0.1218: real time    0.1218
    CHARGE:  cpu time    0.2528: real time    0.2528
    MIXING:  cpu time    0.0019: real time    0.0019
    --------------------------------------------
      LOOP:  cpu time   10.4643: real time   10.4654

 eigenvalue-minimisations  : 10256
 total energy-change (2. order) : 0.1974194E+01  (-0.1327751E+00)
 number of electron      32.0000008 magnetization 
 augmentation part        0.7710807 magnetization 

 Broyden mixing:
  rms(total) = 0.52647E+00    rms(broyden)= 0.52645E+00
  rms(prec ) = 0.12285E+01
  weight for this iteration     100.00

 eigenvalues of (default mixing * dielectric matrix)
  average eigenvalue GAMMA=   2.1619
  2.1619

 Free energy of the ion-electron system (eV)
  ---------------------------------------------------
  alpha Z        PSCENC =       114.69999843
  Ewald energy   TEWEN  =     -1388.90629281
  -Hartree energ DENC   =       -86.92911027
  -exchange      EXHF   =         0.00000000
  -V(xc)+E(xc)   XCENC  =       115.80386692
  PAW double counting   =       394.62354879     -404.37664240
  entropy T*S    EENTRO =         0.00000000
  eigenvalues    EBANDS =         5.32347475
  atomic energy  EATOM  =      1177.01779097
  Solvation  Ediel_sol  =         0.00000000
  ---------------------------------------------------
  free energy    TOTEN  =       -72.74336562 eV

  energy without entropy =      -72.74336562  energy(sigma->0) =      -72.74336562


--------------------------------------------------------------------------------------------------------




--------------------------------------- Iteration      1(   7)  ---------------------------------------


    POTLOK:  cpu time    0.0213: real time    0.0216
    SETDIJ:  cpu time    0.0059: real time    0.0059
     EDDAV:  cpu time   10.6205: real time   10.6214
 BZINTS: Fermi energy:  9.891817; 32.000000 electrons
         Band energy:  24.278042;  BLOECHL correction:  0.000000
       DOS:  cpu time    0.1218: real time    0.1218
    CHARGE:  cpu time    0.2602: real time    0.2602
    MIXING:  cpu time    0.0020: real time    0.0020
    --------------------------------------------
      LOOP:  cpu time   11.0316: real time   11.0328

 eigenvalue-minimisations  : 10872
 total energy-change (2. order) : 0.6612285E+00  (-0.1526928E+00)
 number of electron      32.0000008 magnetization 
 augmentation part        0.7514688 magnetization 

 Broyden mixing:
  rms(total) = 0.71638E-01    rms(broyden)= 0.71290E-01
  rms(prec ) = 0.12604E+00
  weight for this iteration     100.00

 eigenvalues of (default mixing * dielectric matrix)
  average eigenvalue GAMMA=   2.2701
  2.0449  2.4953

 Free energy of the ion-electron system (eV)
  ---------------------------------------------------
  alpha Z        PSCENC =       114.69999843
  Ewald energy   TEWEN  =     -1388.90629281
  -Hartree energ DENC   =      -106.54394892
  -exchange      EXHF   =         0.00000000
  -V(xc)+E(xc)   XCENC  =       117.64608885
  PAW double counting   =       519.41615435     -529.68996979
  entropy T*S    EENTRO =         0.00000000
  eigenvalues    EBANDS =        24.27804175
  atomic energy  EATOM  =      1177.01779097
  Solvation  Ediel_sol  =         0.00000000
  ---------------------------------------------------
  free energy    TOTEN  =       -72.08213716 eV

  energy without entropy =      -72.08213716  energy(sigma->0) =      -72.08213716


--------------------------------------------------------------------------------------------------------




--------------------------------------- Iteration      1(   8)  ---------------------------------------


    POTLOK:  cpu time    0.0225: real time    0.0231
    SETDIJ:  cpu time    0.0091: real time    0.0091
     EDDAV:  cpu time   11.0010: real time   11.0019
 BZINTS: Fermi energy:  9.893931; 32.000000 electrons
         Band energy:  24.475061;  BLOECHL correction:  0.000000
       DOS:  cpu time    0.1218: real time    0.1218
    CHARGE:  cpu time    0.2574: real time    0.2575
    MIXING:  cpu time    0.0020: real time    0.0020
    --------------------------------------------
      LOOP:  cpu time   11.4137: real time   11.4154

 eigenvalue-minimisations  : 11384
 total energy-change (2. order) :-0.8228618E-02  (-0.4049377E-02)
 number of electron      32.0000008 magnetization 
 augmentation part        0.7519127 magnetization 

 Broyden mixing:
  rms(total) = 0.76763E-02    rms(broyden)= 0.75661E-02
  rms(prec ) = 0.13080E-01
  weight for this iteration     100.00

 eigenvalues of (default mixing * dielectric matrix)
  average eigenvalue GAMMA=   2.0184
  1.3482  2.6341  2.0729

 Free energy of the ion-electron system (eV)
  ---------------------------------------------------
  alpha Z        PSCENC =       114.69999843
  Ewald energy   TEWEN  =     -1388.90629281
  -Hartree energ DENC   =      -106.92303041
  -exchange      EXHF   =         0.00000000
  -V(xc)+E(xc)   XCENC  =       117.68779814
  PAW double counting   =       528.93782935     -539.07952084
[...]

 k-point   177 :       0.5000    0.4167    0.3333
  band No.  band energies     occupation 
      1      -7.3166      2.00000
      2      -6.4466      2.00000
      3      -6.2893      2.00000
      4      -6.1668      2.00000
      5      -3.1863      2.00000
      6      -3.0595      2.00000
      7      -2.0494      2.00000
      8      -1.5886      2.00000
      9       5.7244      2.00000
     10       5.7405      2.00000
     11       5.8494      2.00000
     12       6.3324      2.00000
     13       6.5174      2.00000
     14       6.8215      2.00000
     15       6.8531      2.00000
     16       7.1485      2.00000
     17      17.0995      0.00000
     18      17.5754      0.00000
     19      17.7975      0.00000
     20      17.8245      0.00000
     21      18.0157      0.00000
     22      18.1339      0.00000
     23      18.2618      0.00000
     24      18.3063      0.00000

 k-point   178 :      -0.4167    0.4167    0.3333
  band No.  band energies     occupation 
      1      -7.8672      2.00000
      2      -6.5457      2.00000
      3      -6.0206      2.00000
      4      -5.6307      2.00000
      5      -3.2580      2.00000
      6      -2.7486      2.00000
      7      -2.3054      2.00000
      8      -1.4456      2.00000
      9       5.2301      2.00000
     10       5.5569      2.00000
     11       5.8094      2.00000
     12       5.9847      2.00000
     13       6.6616      2.00000
     14       6.8470      2.00000
     15       6.9820      2.00000
     16       7.4631      2.00000
     17      16.9073      0.00000
     18      17.5637      0.00000
     19      17.6493      0.00000
     20      17.6570      0.00000
     21      17.8777      0.00000
     22      18.1006      0.00000
     23      18.5610      0.00000
     24      18.9710      0.00000

 k-point   179 :      -0.3333    0.4167    0.3333
  band No.  band energies     occupation 
      1      -8.3248      2.00000
      2      -6.9698      2.00000
      3      -6.0149      2.00000
      4      -4.7612      2.00000
      5      -2.9718      2.00000
      6      -2.8744      2.00000
      7      -2.0439      2.00000
      8      -0.7147      2.00000
      9       4.4267      2.00000
     10       5.3410      2.00000
     11       5.3855      2.00000
     12       6.0411      2.00000
     13       6.1174      2.00000
     14       6.5250      2.00000
     15       7.1684      2.00000
     16       7.6393      2.00000
     17      16.5595      0.00000
     18      17.2374      0.00000
     19      17.2912      0.00000
     20      17.6176      0.00000
     21      18.1748      0.00000
     22      18.4966      0.00000
     23      19.4063      0.00000
     24      19.7802      0.00000

 k-point   180 :       0.5000    0.5000    0.3333
  band No.  band energies     occupation 
      1      -6.7842      2.00000
      2      -6.7842      2.00000
      3      -6.6560      2.00000
      4      -5.7417      2.00000
      5      -2.8508      2.00000
      6      -2.7170      2.00000
      7      -2.7170      2.00000
      8      -2.3940      2.00000
      9       5.4148      2.00000
     10       6.2584      2.00000
     11       6.2670      2.00000
     12       6.2670      2.00000
     13       6.3206      2.00000
     14       7.1204      2.00000
     15       7.1204      2.00000
     16       7.2043      2.00000
     17      17.1496      0.00000
     18      17.7462      0.00000
     19      17.7462      0.00000
     20      17.9089      0.00000
     21      17.9190      0.00000
     22      17.9340      0.00000
     23      18.0511      0.00000
     24      18.5801      0.00000

 k-point   181 :      -0.4167    0.5000    0.3333
  band No.  band energies     occupation 
      1      -7.2688      2.00000
      2      -7.1941      2.00000
      3      -6.2712      2.00000
      4      -4.9787      2.00000
      5      -3.1390      2.00000
      6      -3.0549      2.00000
      7      -2.2405      2.00000
      8      -2.1609      2.00000
      9       5.0332      2.00000
     10       5.9049      2.00000
     11       5.9993      2.00000
     12       6.6071      2.00000
     13       6.6586      2.00000
     14       6.6678      2.00000
     15       7.1551      2.00000
     16       7.3292      2.00000
     17      17.1901      0.00000
     18      17.5207      0.00000
     19      17.5273      0.00000
     20      17.6816      0.00000
     21      17.7127      0.00000
     22      18.2199      0.00000
     23      18.6869      0.00000
     24      18.8292      0.00000

 k-point   182 :      -0.3333    0.5000    0.3333
  band No.  band energies     occupation 
      1      -7.6874      2.00000
      2      -7.6874      2.00000
      3      -5.9250      2.00000
      4      -4.4105      2.00000
      5      -3.3201      2.00000
      6      -3.1697      2.00000
      7      -1.4516      2.00000
      8      -1.4516      2.00000
      9       4.4617      2.00000
     10       5.4724      2.00000
     11       5.5674      2.00000
     12       6.0134      2.00000
     13       6.7454      2.00000
     14       6.7454      2.00000
     15       7.1176      2.00000
     16       7.1176      2.00000
     17      17.2851      0.00000
     18      17.2851      0.00000
     19      17.2861      0.00000
     20      17.5740      0.00000
     21      17.8550      0.00000
     22      18.7190      0.00000
     23      18.7190      0.00000
     24      19.7761      0.00000

 k-point   183 :      -0.4167   -0.4167    0.3333
  band No.  band energies     occupation 
      1      -7.8014      2.00000
      2      -6.6225      2.00000
      3      -6.6225      2.00000
      4      -4.5148      2.00000
      5      -3.4177      2.00000
      6      -2.6985      2.00000
      7      -2.6985      2.00000
      8      -1.5472      2.00000
      9       4.7865      2.00000
     10       5.7281      2.00000
     11       6.3215      2.00000
     12       6.3215      2.00000
     13       6.4541      2.00000
     14       6.4541      2.00000
     15       6.9910      2.00000
     16       7.6374      2.00000
     17      16.7208      0.00000
     18      17.3472      0.00000
     19      17.5728      0.00000
     20      17.5728      0.00000
     21      18.0752      0.00000
     22      18.4985      0.00000
     23      18.8477      0.00000
     24      19.4272      0.00000

 k-point   184 :       0.4167    0.4167    0.4167
  band No.  band energies     occupation 
      1      -6.5581      2.00000
      2      -6.3959      2.00000
      3      -6.3959      2.00000
      4      -6.3959      2.00000
      5      -3.1696      2.00000
      6      -3.1696      2.00000
      7      -3.1696      2.00000
      8      -1.6788      2.00000
      9       6.3800      2.00000
     10       6.3800      2.00000
     11       6.4011      2.00000
     12       6.4011      2.00000
     13       6.4011      2.00000
     14       6.8662      2.00000
     15       6.8662      2.00000
     16       6.8662      2.00000
     17      16.8225      0.00000
     18      17.6643      0.00000
     19      17.6643      0.00000
     20      17.6645      0.00000
     21      17.7673      0.00000
     22      17.7674      0.00000
     23      18.2854      0.00000
     24      18.2854      0.00000

 k-point   185 :       0.5000    0.4167    0.4167
  band No.  band energies     occupation 
      1      -6.8936      2.00000
      2      -6.2328      2.00000
      3      -6.2328      2.00000
      4      -5.8500      2.00000
      5      -3.4778      2.00000
      6      -3.4778      2.00000
      7      -2.8247      2.00000
      8      -2.4917      2.00000
      9       6.1374      2.00000
     10       6.2215      2.00000
     11       6.5036      2.00000
     12       6.5036      2.00000
     13       6.9482      2.00000
     14       7.0683      2.00000
     15       7.0683      2.00000
     16       7.1852      2.00000
     17      16.9451      0.00000
     18      17.6095      0.00000
     19      17.7837      0.00000
     20      17.8467      0.00000
     21      17.8467      0.00000
     22      17.9084      0.00000
     23      17.9936      0.00000
     24      18.0773      0.00000

 k-point   186 :      -0.4167    0.4167    0.4167
  band No.  band energies     occupation 
      1      -7.3808      2.00000
      2      -6.3369      2.00000
      3      -6.3369      2.00000
      4      -5.0828      2.00000
      5      -3.2916      2.00000
      6      -3.2916      2.00000
      7      -3.1565      2.00000
      8      -2.2643      2.00000
      9       5.6602      2.00000
     10       5.9164      2.00000
     11       6.4885      2.00000
     12       6.4885      2.00000
     13       6.9105      2.00000
     14       6.9105      2.00000
     15       7.1544      2.00000
     16       7.4524      2.00000
     17      16.9707      0.00000
     18      17.4650      0.00000
     19      17.5852      0.00000
     20      17.5852      0.00000
     21      17.8115      0.00000
     22      18.0311      0.00000
     23      18.3610      0.00000
     24      18.6869      0.00000

 k-point   187 :       0.5000    0.5000    0.4167
  band No.  band energies     occupation 
      1      -6.4859      2.00000
      2      -6.4859      2.00000
      3      -6.4448      2.00000
      4      -5.1909      2.00000
      5      -3.4002      2.00000
      6      -3.3579      2.00000
      7      -3.3579      2.00000
      8      -3.2548      2.00000
      9       6.0206      2.00000
     10       6.2440      2.00000
     11       6.8481      2.00000
     12       6.8984      2.00000
     13       6.8984      2.00000
     14       7.2230      2.00000
     15       7.2230      2.00000
     16       7.3125      2.00000
     17      16.9637      0.00000
     18      17.5885      0.00000
     19      17.5885      0.00000
     20      17.6170      0.00000
     21      17.7402      0.00000
     22      17.8130      0.00000
     23      18.0401      0.00000
     24      18.2100      0.00000

 k-point   188 :      -0.4167    0.5000    0.4167
  band No.  band energies     occupation 
      1      -6.8422      2.00000
      2      -6.8422      2.00000
      3      -6.2430      2.00000
      4      -4.7241      2.00000
      5      -3.6179      2.00000
      6      -3.4976      2.00000
      7      -2.9087      2.00000
      8      -2.9087      2.00000
      9       5.7193      2.00000
     10       6.0482      2.00000
     11       6.7655      2.00000
     12       6.8313      2.00000
     13       6.9556      2.00000
     14       6.9556      2.00000
     15       7.2896      2.00000
     16       7.2896      2.00000
     17      17.1483      0.00000
     18      17.4808      0.00000
     19      17.4808      0.00000
     20      17.5659      0.00000
     21      17.5873      0.00000
     22      18.2081      0.00000
     23      18.2489      0.00000
     24      18.2489      0.00000

 k-point   189 :       0.5000    0.5000    0.5000
  band No.  band energies     occupation 
      1      -6.3497      2.00000
      2      -6.3497      2.00000
      3      -6.3497      2.00000
      4      -4.8293      2.00000
      5      -3.7211      2.00000
      6      -3.6087      2.00000
      7      -3.6087      2.00000
      8      -3.6087      2.00000
      9       6.2406      2.00000
     10       6.2406      2.00000
     11       7.0347      2.00000
     12       7.0347      2.00000
     13       7.0347      2.00000
     14       7.3527      2.00000
     15       7.3527      2.00000
     16       7.3527      2.00000
     17      16.8384      0.00000
     18      17.5096      0.00000
     19      17.5096      0.00000
     20      17.5096      0.00000
     21      17.7301      0.00000
     22      17.7301      0.00000
     23      18.0807      0.00000
     24      18.0807      0.00000


--------------------------------------------------------------------------------------------------------


 soft charge-density along one line, spin component           1
         0         1         2         3         4         5         6         7         8         9
 total charge-density along one line
 
 pseudopotential strength for first ion, spin component:           1
  9.441  -0.005  -0.000  -0.000  -0.000   0.000   0.000   0.000
 -0.005  -0.002  -0.000  -0.000  -0.000   0.000   0.000   0.000
 -0.000  -0.000  -3.661   0.000   0.000  -0.009  -0.000  -0.000
 -0.000  -0.000   0.000  -3.661   0.000  -0.000  -0.009  -0.000
 -0.000  -0.000   0.000   0.000  -3.661  -0.000  -0.000  -0.009
  0.000   0.000  -0.009  -0.000  -0.000  -0.757   0.000   0.000
  0.000   0.000  -0.000  -0.009  -0.000   0.000  -0.757   0.000
  0.000   0.000  -0.000  -0.000  -0.009   0.000   0.000  -0.757
 total augmentation occupancy for first ion, spin component:           1
  1.427  -1.035  -0.018  -0.019  -0.017  -0.009  -0.010  -0.009
 -1.035   1.041   0.043   0.045   0.041   0.014   0.015   0.013
 -0.018   0.043   1.101   0.038   0.035   0.185   0.005   0.005
 -0.019   0.045   0.038   1.105   0.037   0.005   0.185   0.005
 -0.017   0.041   0.035   0.037   1.097   0.005   0.005   0.184
 -0.009   0.014   0.185   0.005   0.005   0.037   0.001   0.001
 -0.010   0.015   0.005   0.185   0.005   0.001   0.037   0.001
 -0.009   0.013   0.005   0.005   0.184   0.001   0.001   0.037


------------------------ aborting loop because EDIFF is reached ----------------------------------------


    CHARGE:  cpu time    0.2633: real time    0.2633
    FORLOC:  cpu time    0.0019: real time    0.0019
    FORNL :  cpu time    0.4292: real time    0.4292
    STRESS:  cpu time    1.0126: real time    1.0128
    FORHAR:  cpu time    0.0061: real time    0.0060
    MIXING:  cpu time    0.0022: real time    0.0022
    OFIELD:  cpu time    0.0001: real time    0.0001

  FORCE on cell =-STRESS in cart. coord.  units (eV):
  Direction    XX          YY          ZZ          XY          YZ          ZX
  --------------------------------------------------------------------------------------
  Alpha Z   114.70000   114.70000   114.70000
  Ewald    -465.60004  -463.10792  -460.20037    24.89049    27.58334    26.23688
  Hartree    35.05616    35.62559    36.28994     5.68729     6.30257     5.99493
  E(xc)    -119.72260  -119.71950  -119.71590     0.03089     0.03423     0.03256
  Local     -44.74092   -47.49996   -50.71888   -27.55618   -30.53734   -29.04677
  n-local   -28.02110   -28.54753   -28.30926    -1.17926    -0.72087    -1.59901
  augment    -2.84957    -2.85067    -2.85195    -0.01094    -0.01212    -0.01153
  Kinetic   504.43916   511.43517   518.34090     7.09585     2.79731     9.78755
  Fock        0.00000     0.00000     0.00000     0.00000     0.00000     0.00000
  -------------------------------------------------------------------------------------
  Total      -0.59927     0.23080     1.19922     8.29033     9.18720     8.73877
  in kB     -21.11841     8.13349    42.26101   292.15536   323.76164   307.95881
  external pressure =        9.76 kB  Pullay stress =        0.00 kB


 VOLUME and BASIS-vectors are now :
 -----------------------------------------------------------------------------
  energy-cutoff  :      400.00
  volume of cell :       45.46
      direct lattice vectors                 reciprocal lattice vectors
     3.573710000  0.000000000  0.000000000     0.279821250  0.014008545  0.014766304
    -0.178685000  3.569240000  0.000000000     0.000000000  0.280171689  0.014766365
    -0.178685000 -0.187855000  3.564293000     0.000000000  0.000000000  0.280560549

  length of vectors
     3.573710000  3.573709908  3.573709896     0.280560537  0.280560548  0.280560549


 FORCES acting on ions
    electron-ion (+dipol)            ewald-force                    non-local-force                 convergence-correction
 -----------------------------------------------------------------------------------------------
   -.860E+01 -.904E+01 -.953E+01   0.897E+01 0.943E+01 0.994E+01   -.119E-01 -.125E-01 -.132E-01   -.205E-04 -.216E-04 -.228E-04
   0.860E+01 0.904E+01 0.953E+01   -.897E+01 -.943E+01 -.994E+01   0.119E-01 0.125E-01 0.132E-01   0.205E-04 0.216E-04 0.228E-04
   -.860E+01 -.904E+01 -.953E+01   0.897E+01 0.943E+01 0.994E+01   -.119E-01 -.125E-01 -.132E-01   -.205E-04 -.216E-04 -.228E-04
   0.860E+01 0.904E+01 0.953E+01   -.897E+01 -.943E+01 -.994E+01   0.119E-01 0.125E-01 0.132E-01   0.205E-04 0.216E-04 0.228E-04
   -.860E+01 -.904E+01 -.953E+01   0.897E+01 0.943E+01 0.994E+01   -.119E-01 -.125E-01 -.132E-01   -.205E-04 -.216E-04 -.228E-04
   0.860E+01 0.904E+01 0.953E+01   -.897E+01 -.943E+01 -.994E+01   0.119E-01 0.125E-01 0.132E-01   0.205E-04 0.216E-04 0.228E-04
   -.860E+01 -.904E+01 -.953E+01   0.897E+01 0.943E+01 0.994E+01   -.119E-01 -.125E-01 -.132E-01   -.205E-04 -.216E-04 -.228E-04
   0.860E+01 0.904E+01 0.953E+01   -.897E+01 -.943E+01 -.994E+01   0.119E-01 0.125E-01 0.132E-01   0.205E-04 0.216E-04 0.228E-04
 -----------------------------------------------------------------------------------------------
   0.190E-12 0.165E-12 0.158E-12   0.142E-13 -.178E-14 0.000E+00   -.191E-16 0.694E-17 0.867E-17   -.324E-13 0.855E-14 -.394E-15
 
 
 POSITION                                       TOTAL-FORCE (eV/Angst)
 -----------------------------------------------------------------------------------
      0.71474      2.62997      0.89107         0.358318      0.376705      0.397082
     -0.08934     -0.09393      1.78215        -0.358318     -0.376705     -0.397082
      0.71474      0.75142      2.67322         0.358318      0.376705      0.397082
     -0.08934      1.78462      0.00000        -0.358318     -0.376705     -0.397082
      2.41226      2.53604      2.67322         0.358318      0.376705      0.397082
      1.78686      0.00000      0.00000        -0.358318     -0.376705     -0.397082
      2.59094      0.84535      0.89107         0.358318      0.376705      0.397082
      1.60817      1.69069      1.78215        -0.358318     -0.376705     -0.397082
 -----------------------------------------------------------------------------------
    total drift:                                0.000000      0.000000      0.000000


--------------------------------------------------------------------------------------------------------



  FREE ENERGIE OF THE ION-ELECTRON SYSTEM (eV)
  ---------------------------------------------------
  free  energy   TOTEN  =       -72.09068800 eV

  energy  without entropy=      -72.09068800  energy(sigma->0) =      -72.09068800
 


--------------------------------------------------------------------------------------------------------


    POTLOK:  cpu time    0.0273: real time    0.0273


--------------------------------------------------------------------------------------------------------


     LOOP+:  cpu time  131.6108: real time  131.6803
    4ORBIT:  cpu time    0.0000: real time    0.0000
 BZINTS: Fermi energy:  9.892095; 32.000000 electrons
         Band energy:  24.511583;  BLOECHL correction:  0.000000

 total amount of memory used by VASP MPI-rank0    37682. kBytes
=======================================================================

   base      :      30000. kBytes
   nonl-proj :       2640. kBytes
   fftplans  :        346. kBytes
   grid      :        481. kBytes
   one-center:          6. kBytes
   wavefun   :       4209. kBytes
 
  
  
 General timing and accounting informations for this job:
 ========================================================
  
                  Total CPU time used (sec):      135.265
                            User time (sec):      131.010
                          System time (sec):        4.255
                         Elapsed time (sec):      135.353
  
                   Maximum memory used (kb):      193692.
                   Average memory used (kb):           0.
  
                          Minor page faults:        36887
                          Major page faults:           36
                 Voluntary context switches:          785
