   8   8   0   0
  0.5667860E+01  0.3553918E-09  0.3553918E-09  0.3589999E-09  0.2000000E-16
  1.000000000000000E-004
  CAR 
 unknown system                          
     23.27649261    -13.38729523  301      9.84838032      1.00000000
    -13.387  0.0000E+00  0.0000E+00
    -13.265  0.0000E+00  0.0000E+00
    -13.143  0.0000E+00  0.0000E+00
    -13.021  0.0000E+00  0.0000E+00
    -12.898  0.0000E+00  0.0000E+00
    -12.776  0.0000E+00  0.0000E+00
    -12.654  0.0000E+00  0.0000E+00
    -12.532  0.0000E+00  0.0000E+00
    -12.410  0.0000E+00  0.0000E+00
    -12.287  0.0000E+00  0.0000E+00
    -12.165  0.0000E+00  0.0000E+00
    -12.043  0.0000E+00  0.0000E+00
    -11.921  0.0000E+00  0.0000E+00
    -11.799  0.0000E+00  0.0000E+00
    -11.676  0.3462E-01  0.5128E-03
    -11.554  0.1532E+00  0.1491E-01
    -11.432  0.2400E+00  0.3893E-01
    -11.310  0.2715E+00  0.6986E-01
    -11.187  0.3186E+00  0.1059E+00
    -11.065  0.3587E+00  0.1478E+00
    -10.943  0.3876E+00  0.1933E+00
    -10.821  0.4185E+00  0.2425E+00
    -10.699  0.4566E+00  0.2959E+00
    -10.576  0.4795E+00  0.3533E+00
    -10.454  0.5028E+00  0.4133E+00
    -10.332  0.5285E+00  0.4763E+00
    -10.210  0.5567E+00  0.5426E+00
    -10.088  0.5835E+00  0.6123E+00
     -9.965  0.6026E+00  0.6848E+00
     -9.843  0.6225E+00  0.7596E+00
     -9.721  0.6442E+00  0.8370E+00
     -9.599  0.6668E+00  0.9171E+00
     -9.476  0.6909E+00  0.1000E+01
     -9.354  0.7122E+00  0.1086E+01
     -9.232  0.7297E+00  0.1174E+01
     -9.110  0.7473E+00  0.1264E+01
     -8.988  0.7672E+00  0.1357E+01
     -8.865  0.7876E+00  0.1452E+01
     -8.743  0.8089E+00  0.1549E+01
     -8.621  0.8306E+00  0.1650E+01
     -8.499  0.8480E+00  0.1752E+01
     -8.377  0.8655E+00  0.1857E+01
     -8.254  0.8840E+00  0.1964E+01
     -8.132  0.9033E+00  0.2073E+01
     -8.010  0.9229E+00  0.2185E+01
     -7.888  0.9564E+00  0.2299E+01
     -7.766  0.1010E+01  0.2420E+01
     -7.643  0.1045E+01  0.2545E+01
     -7.521  0.1083E+01  0.2676E+01
     -7.399  0.1081E+01  0.2808E+01
     -7.277  0.1053E+01  0.2939E+01
     -7.154  0.1033E+01  0.3066E+01
     -7.032  0.1058E+01  0.3194E+01
     -6.910  0.1067E+01  0.3324E+01
     -6.788  0.1070E+01  0.3454E+01
     -6.666  0.1102E+01  0.3587E+01
     -6.543  0.1166E+01  0.3725E+01
     -6.421  0.1220E+01  0.3871E+01
     -6.299  0.1306E+01  0.4026E+01
     -6.177  0.1339E+01  0.4188E+01
     -6.055  0.1435E+01  0.4356E+01
     -5.932  0.1588E+01  0.4542E+01
     -5.810  0.1555E+01  0.4739E+01
     -5.688  0.1526E+01  0.4929E+01
     -5.566  0.1457E+01  0.5113E+01
     -5.443  0.1413E+01  0.5287E+01
     -5.321  0.1385E+01  0.5459E+01
     -5.199  0.1380E+01  0.5626E+01
     -5.077  0.1379E+01  0.5798E+01
     -4.955  0.1261E+01  0.5961E+01
     -4.832  0.1209E+01  0.6110E+01
     -4.710  0.1192E+01  0.6257E+01
     -4.588  0.1162E+01  0.6400E+01
     -4.466  0.1160E+01  0.6545E+01
     -4.344  0.1091E+01  0.6681E+01
     -4.221  0.1003E+01  0.6811E+01
     -4.099  0.1045E+01  0.6944E+01
     -3.977  0.9978E+00  0.7068E+01
     -3.855  0.9508E+00  0.7186E+01
     -3.732  0.9690E+00  0.7304E+01
     -3.610  0.9603E+00  0.7421E+01
     -3.488  0.9145E+00  0.7533E+01
     -3.366  0.9946E+00  0.7654E+01
     -3.244  0.1006E+01  0.7772E+01
     -3.121  0.9940E+00  0.7897E+01
     -2.999  0.9984E+00  0.8017E+01
     -2.877  0.9928E+00  0.8140E+01
     -2.755  0.9913E+00  0.8264E+01
     -2.633  0.9591E+00  0.8384E+01
     -2.510  0.9739E+00  0.8501E+01
     -2.388  0.1059E+01  0.8625E+01
     -2.266  0.1246E+01  0.8765E+01
     -2.144  0.1422E+01  0.8927E+01
     -2.022  0.1648E+01  0.9115E+01
     -1.899  0.1925E+01  0.9331E+01
     -1.777  0.2480E+01  0.9598E+01
     -1.655  0.2968E+01  0.9936E+01
     -1.533  0.2619E+01  0.1030E+02
     -1.410  0.2108E+01  0.1059E+02
     -1.288  0.1778E+01  0.1082E+02
     -1.166  0.1639E+01  0.1103E+02
     -1.044  0.1537E+01  0.1122E+02
     -0.922  0.1455E+01  0.1140E+02
     -0.799  0.1391E+01  0.1158E+02
     -0.677  0.1360E+01  0.1174E+02
     -0.555  0.1327E+01  0.1191E+02
     -0.433  0.1298E+01  0.1207E+02
     -0.311  0.1238E+01  0.1223E+02
     -0.188  0.1227E+01  0.1238E+02
     -0.066  0.1106E+01  0.1251E+02
      0.056  0.1091E+01  0.1265E+02
      0.178  0.1083E+01  0.1278E+02
      0.301  0.1073E+01  0.1291E+02
      0.423  0.1061E+01  0.1304E+02
      0.545  0.1191E+01  0.1317E+02
      0.667  0.1477E+01  0.1334E+02
      0.789  0.1706E+01  0.1353E+02
      0.912  0.1991E+01  0.1376E+02
      1.034  0.2368E+01  0.1403E+02
      1.156  0.2188E+01  0.1430E+02
      1.278  0.2100E+01  0.1456E+02
      1.400  0.2209E+01  0.1483E+02
      1.523  0.2222E+01  0.1510E+02
      1.645  0.2019E+01  0.1536E+02
      1.767  0.1648E+01  0.1559E+02
      1.889  0.1447E+01  0.1577E+02
      2.011  0.1697E+01  0.1596E+02
      2.134  0.2009E+01  0.1618E+02
      2.256  0.2221E+01  0.1644E+02
      2.378  0.2330E+01  0.1673E+02
      2.500  0.2361E+01  0.1701E+02
      2.623  0.2331E+01  0.1730E+02
      2.745  0.2317E+01  0.1758E+02
      2.867  0.2422E+01  0.1787E+02
      2.989  0.2748E+01  0.1819E+02
      3.111  0.3158E+01  0.1855E+02
      3.234  0.2791E+01  0.1892E+02
      3.356  0.2429E+01  0.1925E+02
      3.478  0.2532E+01  0.1954E+02
      3.600  0.2759E+01  0.1987E+02
      3.722  0.2800E+01  0.2021E+02
      3.845  0.3141E+01  0.2057E+02
      3.967  0.3751E+01  0.2100E+02
      4.089  0.3762E+01  0.2148E+02
      4.211  0.3275E+01  0.2190E+02
      4.334  0.2725E+01  0.2227E+02
      4.456  0.2582E+01  0.2259E+02
      4.578  0.2753E+01  0.2291E+02
      4.700  0.2926E+01  0.2326E+02
      4.822  0.2707E+01  0.2360E+02
      4.945  0.2974E+01  0.2395E+02
      5.067  0.2963E+01  0.2431E+02
      5.189  0.2957E+01  0.2467E+02
      5.311  0.3007E+01  0.2504E+02
      5.433  0.3119E+01  0.2541E+02
      5.556  0.2839E+01  0.2578E+02
      5.678  0.2484E+01  0.2610E+02
      5.800  0.2361E+01  0.2640E+02
      5.922  0.2374E+01  0.2669E+02
      6.045  0.2497E+01  0.2698E+02
      6.167  0.2771E+01  0.2731E+02
      6.289  0.2821E+01  0.2765E+02
      6.411  0.2758E+01  0.2798E+02
      6.533  0.2668E+01  0.2832E+02
      6.656  0.2474E+01  0.2863E+02
      6.778  0.2376E+01  0.2893E+02
      6.900  0.2629E+01  0.2922E+02
      7.022  0.2458E+01  0.2956E+02
      7.144  0.1871E+01  0.2982E+02
      7.267  0.1676E+01  0.3003E+02
      7.389  0.1504E+01  0.3023E+02
      7.511  0.1409E+01  0.3041E+02
      7.633  0.1325E+01  0.3057E+02
      7.755  0.1240E+01  0.3073E+02
      7.878  0.1157E+01  0.3088E+02
      8.000  0.1039E+01  0.3101E+02
      8.122  0.9518E+00  0.3113E+02
      8.244  0.8858E+00  0.3125E+02
      8.367  0.8398E+00  0.3135E+02
      8.489  0.7811E+00  0.3145E+02
      8.611  0.7133E+00  0.3154E+02
      8.733  0.6263E+00  0.3162E+02
      8.855  0.5698E+00  0.3170E+02
      8.978  0.5364E+00  0.3176E+02
      9.100  0.4482E+00  0.3182E+02
      9.222  0.3579E+00  0.3187E+02
      9.344  0.3561E+00  0.3192E+02
      9.466  0.2726E+00  0.3196E+02
      9.589  0.1422E+00  0.3198E+02
      9.711  0.8471E-01  0.3200E+02
      9.833  0.2442E-03  0.3200E+02
      9.955  0.0000E+00  0.3200E+02
     10.078  0.0000E+00  0.3200E+02
     10.200  0.0000E+00  0.3200E+02
     10.322  0.0000E+00  0.3200E+02
     10.444  0.0000E+00  0.3200E+02
     10.566  0.0000E+00  0.3200E+02
     10.689  0.0000E+00  0.3200E+02
     10.811  0.0000E+00  0.3200E+02
     10.933  0.0000E+00  0.3200E+02
     11.055  0.0000E+00  0.3200E+02
     11.177  0.0000E+00  0.3200E+02
     11.300  0.0000E+00  0.3200E+02
     11.422  0.0000E+00  0.3200E+02
     11.544  0.0000E+00  0.3200E+02
     11.666  0.0000E+00  0.3200E+02
     11.789  0.0000E+00  0.3200E+02
     11.911  0.0000E+00  0.3200E+02
     12.033  0.0000E+00  0.3200E+02
     12.155  0.0000E+00  0.3200E+02
     12.277  0.0000E+00  0.3200E+02
     12.400  0.0000E+00  0.3200E+02
     12.522  0.0000E+00  0.3200E+02
     12.644  0.0000E+00  0.3200E+02
     12.766  0.0000E+00  0.3200E+02
     12.888  0.0000E+00  0.3200E+02
     13.011  0.0000E+00  0.3200E+02
     13.133  0.0000E+00  0.3200E+02
     13.255  0.0000E+00  0.3200E+02
     13.377  0.0000E+00  0.3200E+02
     13.499  0.0000E+00  0.3200E+02
     13.622  0.0000E+00  0.3200E+02
     13.744  0.0000E+00  0.3200E+02
     13.866  0.1060E-01  0.3200E+02
     13.988  0.9776E-01  0.3201E+02
     14.111  0.2430E+00  0.3203E+02
     14.233  0.4130E+00  0.3207E+02
     14.355  0.5714E+00  0.3213E+02
     14.477  0.5891E+00  0.3220E+02
     14.599  0.7097E+00  0.3228E+02
     14.722  0.8614E+00  0.3238E+02
     14.844  0.9609E+00  0.3249E+02
     14.966  0.1261E+01  0.3264E+02
     15.088  0.1385E+01  0.3280E+02
     15.210  0.1443E+01  0.3298E+02
     15.333  0.1510E+01  0.3316E+02
     15.455  0.1548E+01  0.3334E+02
     15.577  0.1631E+01  0.3354E+02
     15.699  0.1738E+01  0.3374E+02
     15.822  0.1887E+01  0.3396E+02
     15.944  0.2049E+01  0.3420E+02
     16.066  0.2241E+01  0.3447E+02
     16.188  0.2155E+01  0.3473E+02
     16.310  0.2090E+01  0.3499E+02
     16.433  0.2110E+01  0.3525E+02
     16.555  0.2162E+01  0.3551E+02
     16.677  0.2280E+01  0.3578E+02
     16.799  0.2419E+01  0.3607E+02
     16.921  0.2580E+01  0.3637E+02
     17.044  0.2733E+01  0.3670E+02
     17.166  0.2800E+01  0.3704E+02
     17.288  0.2888E+01  0.3738E+02
     17.410  0.3042E+01  0.3775E+02
     17.532  0.3338E+01  0.3814E+02
     17.655  0.3492E+01  0.3855E+02
     17.777  0.4081E+01  0.3902E+02
     17.899  0.4442E+01  0.3954E+02
     18.021  0.4760E+01  0.4010E+02
     18.144  0.3953E+01  0.4065E+02
     18.266  0.2741E+01  0.4103E+02
     18.388  0.3562E+01  0.4143E+02
     18.510  0.3621E+01  0.4187E+02
     18.632  0.3786E+01  0.4232E+02
     18.755  0.3796E+01  0.4279E+02
     18.877  0.3690E+01  0.4325E+02
     18.999  0.3401E+01  0.4369E+02
     19.121  0.3137E+01  0.4409E+02
     19.243  0.2803E+01  0.4445E+02
     19.366  0.2618E+01  0.4478E+02
     19.488  0.2624E+01  0.4510E+02
     19.610  0.2658E+01  0.4542E+02
     19.732  0.2879E+01  0.4576E+02
     19.855  0.2826E+01  0.4610E+02
     19.977  0.2747E+01  0.4644E+02
     20.099  0.2700E+01  0.4677E+02
     20.221  0.2480E+01  0.4709E+02
     20.343  0.2021E+01  0.4737E+02
     20.466  0.1574E+01  0.4759E+02
     20.588  0.1060E+01  0.4775E+02
     20.710  0.6232E+00  0.4785E+02
     20.832  0.3534E+00  0.4791E+02
     20.954  0.2263E+00  0.4795E+02
     21.077  0.1584E+00  0.4797E+02
     21.199  0.1041E+00  0.4799E+02
     21.321  0.5450E-01  0.4799E+02
     21.443  0.1767E-01  0.4800E+02
     21.566  0.2412E-02  0.4800E+02
     21.688  0.0000E+00  0.4800E+02
     21.810  0.0000E+00  0.4800E+02
     21.932  0.0000E+00  0.4800E+02
     22.054  0.0000E+00  0.4800E+02
     22.177  0.0000E+00  0.4800E+02
     22.299  0.0000E+00  0.4800E+02
     22.421  0.0000E+00  0.4800E+02
     22.543  0.0000E+00  0.4800E+02
     22.665  0.0000E+00  0.4800E+02
     22.788  0.0000E+00  0.4800E+02
     22.910  0.0000E+00  0.4800E+02
     23.032  0.0000E+00  0.4800E+02
     23.154  0.0000E+00  0.4800E+02
     23.276  0.0000E+00  0.4800E+02
