       N       E                     dE             d eps       ncg     rms          rms(c)
DAV:   1     0.571527169212E+02    0.57153E+02   -0.14468E+04  9408   0.106E+03
DAV:   2    -0.710907506220E+02   -0.12824E+03   -0.12181E+03 13048   0.221E+02
DAV:   3    -0.752355202000E+02   -0.41448E+01   -0.41257E+01 12144   0.370E+01
DAV:   4    -0.752763598252E+02   -0.40840E-01   -0.40807E-01 11984   0.405E+00
DAV:   5    -0.752771398837E+02   -0.78006E-03   -0.77969E-03 12088   0.510E-01    0.951E+00
DAV:   6    -0.733737297517E+02    0.19034E+01   -0.12594E+00 10848   0.639E+00    0.521E+00
DAV:   7    -0.727308150346E+02    0.64291E+00   -0.14207E+00 10968   0.698E+00    0.697E-01
DAV:   8    -0.727382733689E+02   -0.74583E-02   -0.27804E-02 11952   0.969E-01    0.803E-02
DAV:   9    -0.727384836898E+02   -0.21032E-03   -0.42891E-04 11328   0.139E-01    0.283E-02
DAV:  10    -0.727385379131E+02   -0.54223E-04   -0.46774E-05 11944   0.520E-02    0.266E-03
DAV:  11    -0.727385385175E+02   -0.60444E-06   -0.10477E-06  8752   0.716E-03
   1 F= -.72738539E+02 E0= -.72738539E+02  d E =0.000000E+00
