 vasp.5.4.4.18Apr17-6-g9f103f2a35 (build Mar 12 2022 03:36:41) complex          
  
 executed on IFC19.0.3.199_CrayMP date 2022.12.01  10:22:21
 running on   16 total cores
 distrk:  each k-point on   16 cores,    1 groups
 distr:  one band on NCORES_PER_BAND=   4 cores,    4 groups


--------------------------------------------------------------------------------------------------------


 INCAR:
 POTCAR:   PAW_PBE C 08Apr2002                    
 POTCAR:   PAW_PBE C 08Apr2002                    
   VRHFIN =C: s2p2                                                              
   LEXCH  = PE                                                                  
   EATOM  =   147.1560 eV,   10.8157 Ry                                         
                                                                                
   TITEL  = PAW_PBE C 08Apr2002                                                 
   LULTRA =        F    use ultrasoft PP ?                                      
   IUNSCR =        0    unscreen: 0-lin 1-nonlin 2-no                           
   RPACOR =     .000    partial core radius                                     
   POMASS =   12.011; ZVAL   =    4.000    mass and valenz                      
   RCORE  =    1.500    outmost cutoff radius                                   
   RWIGS  =    1.630; RWIGS  =     .863    wigner-seitz radius (au A)           
   ENMAX  =  400.000; ENMIN  =  300.000 eV                                      
   ICORE  =        2    local potential                                         
   LCOR   =        T    correct aug charges                                     
   LPAW   =        T    paw PP                                                  
   EAUG   =  644.873                                                            
   DEXC   =     .000                                                            
   RMAX   =    2.266    core radius for proj-oper                               
   RAUG   =    1.300    factor for augmentation sphere                          
   RDEP   =    1.501    radius for radial grids                                 
   RDEPT  =    1.300    core radius for aug-charge                              
   QCUT   =   -5.516; QGAM   =   11.032    optimization parameters              
                                                                                
   Description                                                                  
     l     E      TYP  RCUT    TYP  RCUT                                        
     0   .000     23  1.200                                                     
     0   .000     23  1.200                                                     
     1   .000     23  1.500                                                     
     1  2.500     23  1.500                                                     
     2   .000      7  1.500                                                     
  local pseudopotential read in
  atomic valenz-charges read in
  non local Contribution for L=           0  read in
    real space projection operators read in
  non local Contribution for L=           0  read in
    real space projection operators read in
  non local Contribution for L=           1  read in
    real space projection operators read in
  non local Contribution for L=           1  read in
    real space projection operators read in
    PAW grid and wavefunctions read in
 
   number of l-projection  operators is LMAX  =           4
   number of lm-projection operators is LMMAX =           8
 
 PAW_PBE C 08Apr2002                    :
 energy of atom  1       EATOM= -147.1560
 kinetic energy error for atom=    0.0288 (will be added to EATOM!!)
 
 
 POSCAR: C8                                      
  positions in direct lattice
  No initial velocities read in
 exchange correlation table for  LEXCH =        8
   RHO(1)=    0.500       N(1)  =     2000
   RHO(2)=  100.500       N(2)  =     4000
 


--------------------------------------------------------------------------------------------------------


 ion  position               nearest neighbor table
   1  0.250  0.750  0.250-   2 1.54   4 1.54   6 1.54   8 1.54
   2  0.000  0.000  0.500-   1 1.54   3 1.54   5 1.54   7 1.54
   3  0.250  0.250  0.750-   2 1.54   4 1.54   6 1.54   8 1.54
   4  0.000  0.500  0.000-   1 1.54   3 1.54   5 1.54   7 1.54
   5  0.750  0.750  0.750-   2 1.54   4 1.54   6 1.54   8 1.54
   6  0.500  0.000  0.000-   1 1.54   3 1.54   5 1.54   7 1.54
   7  0.750  0.250  0.250-   2 1.54   4 1.54   6 1.54   8 1.54
   8  0.500  0.500  0.500-   1 1.54   3 1.54   5 1.54   7 1.54
 
  LATTYP: Found a simple tetragonal cell.
 ALAT       =     3.5539176408
 C/A-ratio  =     1.0101526602
  
  Lattice vectors:
  
 A1 = (   3.5539176408,   0.0000000000,   0.0000000000)
 A2 = (   0.0000000000,   3.5539176408,   0.0000000000)
 A3 = (   0.0000000000,   0.0000000000,   3.5899993590)


Analysis of symmetry for initial positions (statically):
=====================================================================
 Subroutine PRICEL returns following result:
 
  LATTYP: Found a body centered tetragonal cell.
 ALAT       =     2.5129992636
 C/A-ratio  =     1.4285715921
  
  Lattice vectors:
  
 A1 = (   0.0000000000,  -1.7769588204,   1.7949996795)
 A2 = (   0.0000000000,   1.7769588204,   1.7949996795)
 A3 = (  -1.7769588204,   0.0000000000,  -1.7949996795)
 
   4 primitive cells build up your supercell.
 

 Routine SETGRP: Setting up the symmetry group for a 
 simple tetragonal supercell.


 Subroutine GETGRP returns: Found 16 space group operations
 (whereof  8 operations were pure point group operations)
 out of a pool of 16 trial point group operations.


The static configuration has the point symmetry D_2d.
 The point group associated with its full space group is D_4h.


Analysis of symmetry for dynamics (positions and initial velocities):
=====================================================================
 Subroutine PRICEL returns following result:
 
  LATTYP: Found a body centered tetragonal cell.
 ALAT       =     2.5129992636
 C/A-ratio  =     1.4285715921
  
  Lattice vectors:
  
 A1 = (   0.0000000000,  -1.7769588204,   1.7949996795)
 A2 = (   0.0000000000,   1.7769588204,   1.7949996795)
 A3 = (  -1.7769588204,   0.0000000000,  -1.7949996795)
 
   4 primitive cells build up your supercell.
 

 Routine SETGRP: Setting up the symmetry group for a 
 simple tetragonal supercell.


 Subroutine GETGRP returns: Found 16 space group operations
 (whereof  8 operations were pure point group operations)
 out of a pool of 16 trial point group operations.


The dynamic configuration has the point symmetry D_2d.
 The point group associated with its full space group is D_4h.


 Subroutine INISYM returns: Found 16 space group operations
 (whereof  8 operations are pure point group operations),
 and found     4 'primitive' translations

 
 
 KPOINTS: kpt_density=1000                        

Automatic generation of k-mesh.
Space group operators:
 irot       det(A)        alpha          n_x          n_y          n_z        tau_x        tau_y        tau_z
    1     1.000000     0.000000     1.000000     0.000000     0.000000     0.000000     0.000000     0.000000
    2    -1.000000    90.000000     0.000000     0.000000    -1.000000     0.000000     0.000000     0.000000
    3     1.000000   180.000000     0.000000     0.000000     1.000000     0.000000     0.000000     0.000000
    4    -1.000000    90.000000     0.000000     0.000000     1.000000     0.000000     0.000000     0.000000
    5     1.000000   180.000000     0.000000     1.000000     0.000000     0.000000     0.000000     0.000000
    6    -1.000000   180.000000     0.707107     0.707107     0.000000     0.000000     0.000000     0.000000
    7     1.000000   180.000000     1.000000     0.000000     0.000000     0.000000     0.000000     0.000000
    8    -1.000000   180.000000     0.707107    -0.707107     0.000000     0.000000     0.000000     0.000000
    9    -1.000000     0.000000     1.000000     0.000000     0.000000    -0.250000    -0.250000     0.250000
   10     1.000000    90.000000     0.000000     0.000000    -1.000000    -0.250000    -0.250000     0.250000
   11    -1.000000   180.000000     0.000000     0.000000     1.000000    -0.250000    -0.250000     0.250000
   12     1.000000    90.000000     0.000000     0.000000     1.000000    -0.250000    -0.250000     0.250000
   13    -1.000000   180.000000     0.000000     1.000000     0.000000    -0.250000    -0.250000     0.250000
   14     1.000000   180.000000     0.707107     0.707107     0.000000    -0.250000    -0.250000     0.250000
   15    -1.000000   180.000000     1.000000     0.000000     0.000000    -0.250000    -0.250000     0.250000
   16     1.000000   180.000000     0.707107    -0.707107     0.000000    -0.250000    -0.250000     0.250000
 
 Subroutine IBZKPT returns following result:
 ===========================================
 
 Found    196 irreducible k-points:
 
 Following reciprocal coordinates:
            Coordinates               Weight
  0.000000  0.000000  0.000000      1.000000
  0.083333  0.000000  0.000000      4.000000
  0.166667  0.000000  0.000000      4.000000
  0.250000  0.000000  0.000000      4.000000
  0.333333  0.000000  0.000000      4.000000
  0.416667  0.000000  0.000000      4.000000
  0.500000  0.000000  0.000000      2.000000
  0.083333  0.083333  0.000000      4.000000
  0.166667  0.083333  0.000000      8.000000
  0.250000  0.083333  0.000000      8.000000
  0.333333  0.083333  0.000000      8.000000
  0.416667  0.083333  0.000000      8.000000
  0.500000  0.083333  0.000000      4.000000
  0.166667  0.166667  0.000000      4.000000
  0.250000  0.166667  0.000000      8.000000
  0.333333  0.166667  0.000000      8.000000
  0.416667  0.166667  0.000000      8.000000
  0.500000  0.166667  0.000000      4.000000
  0.250000  0.250000  0.000000      4.000000
  0.333333  0.250000  0.000000      8.000000
  0.416667  0.250000  0.000000      8.000000
  0.500000  0.250000  0.000000      4.000000
  0.333333  0.333333  0.000000      4.000000
  0.416667  0.333333  0.000000      8.000000
  0.500000  0.333333  0.000000      4.000000
  0.416667  0.416667  0.000000      4.000000
  0.500000  0.416667  0.000000      4.000000
  0.500000  0.500000  0.000000      1.000000
  0.000000  0.000000  0.083333      2.000000
  0.083333  0.000000  0.083333      8.000000
  0.166667  0.000000  0.083333      8.000000
  0.250000  0.000000  0.083333      8.000000
  0.333333  0.000000  0.083333      8.000000
  0.416667  0.000000  0.083333      8.000000
  0.500000  0.000000  0.083333      4.000000
  0.083333  0.083333  0.083333      8.000000
  0.166667  0.083333  0.083333     16.000000
  0.250000  0.083333  0.083333     16.000000
  0.333333  0.083333  0.083333     16.000000
  0.416667  0.083333  0.083333     16.000000
  0.500000  0.083333  0.083333      8.000000
  0.166667  0.166667  0.083333      8.000000
  0.250000  0.166667  0.083333     16.000000
  0.333333  0.166667  0.083333     16.000000
  0.416667  0.166667  0.083333     16.000000
  0.500000  0.166667  0.083333      8.000000
  0.250000  0.250000  0.083333      8.000000
  0.333333  0.250000  0.083333     16.000000
  0.416667  0.250000  0.083333     16.000000
  0.500000  0.250000  0.083333      8.000000
  0.333333  0.333333  0.083333      8.000000
  0.416667  0.333333  0.083333     16.000000
  0.500000  0.333333  0.083333      8.000000
  0.416667  0.416667  0.083333      8.000000
  0.500000  0.416667  0.083333      8.000000
  0.500000  0.500000  0.083333      2.000000
  0.000000  0.000000  0.166667      2.000000
  0.083333  0.000000  0.166667      8.000000
  0.166667  0.000000  0.166667      8.000000
  0.250000  0.000000  0.166667      8.000000
  0.333333  0.000000  0.166667      8.000000
  0.416667  0.000000  0.166667      8.000000
  0.500000  0.000000  0.166667      4.000000
  0.083333  0.083333  0.166667      8.000000
  0.166667  0.083333  0.166667     16.000000
  0.250000  0.083333  0.166667     16.000000
  0.333333  0.083333  0.166667     16.000000
  0.416667  0.083333  0.166667     16.000000
  0.500000  0.083333  0.166667      8.000000
  0.166667  0.166667  0.166667      8.000000
  0.250000  0.166667  0.166667     16.000000
  0.333333  0.166667  0.166667     16.000000
  0.416667  0.166667  0.166667     16.000000
  0.500000  0.166667  0.166667      8.000000
  0.250000  0.250000  0.166667      8.000000
  0.333333  0.250000  0.166667     16.000000
  0.416667  0.250000  0.166667     16.000000
  0.500000  0.250000  0.166667      8.000000
  0.333333  0.333333  0.166667      8.000000
  0.416667  0.333333  0.166667     16.000000
  0.500000  0.333333  0.166667      8.000000
  0.416667  0.416667  0.166667      8.000000
  0.500000  0.416667  0.166667      8.000000
  0.500000  0.500000  0.166667      2.000000
  0.000000  0.000000  0.250000      2.000000
  0.083333  0.000000  0.250000      8.000000
  0.166667  0.000000  0.250000      8.000000
  0.250000  0.000000  0.250000      8.000000
  0.333333  0.000000  0.250000      8.000000
  0.416667  0.000000  0.250000      8.000000
  0.500000  0.000000  0.250000      4.000000
  0.083333  0.083333  0.250000      8.000000
  0.166667  0.083333  0.250000     16.000000
  0.250000  0.083333  0.250000     16.000000
  0.333333  0.083333  0.250000     16.000000
  0.416667  0.083333  0.250000     16.000000
  0.500000  0.083333  0.250000      8.000000
  0.166667  0.166667  0.250000      8.000000
  0.250000  0.166667  0.250000     16.000000
  0.333333  0.166667  0.250000     16.000000
  0.416667  0.166667  0.250000     16.000000
  0.500000  0.166667  0.250000      8.000000
  0.250000  0.250000  0.250000      8.000000
  0.333333  0.250000  0.250000     16.000000
  0.416667  0.250000  0.250000     16.000000
  0.500000  0.250000  0.250000      8.000000
  0.333333  0.333333  0.250000      8.000000
  0.416667  0.333333  0.250000     16.000000
  0.500000  0.333333  0.250000      8.000000
  0.416667  0.416667  0.250000      8.000000
  0.500000  0.416667  0.250000      8.000000
  0.500000  0.500000  0.250000      2.000000
  0.000000  0.000000  0.333333      2.000000
  0.083333  0.000000  0.333333      8.000000
  0.166667  0.000000  0.333333      8.000000
  0.250000  0.000000  0.333333      8.000000
  0.333333  0.000000  0.333333      8.000000
  0.416667  0.000000  0.333333      8.000000
  0.500000  0.000000  0.333333      4.000000
  0.083333  0.083333  0.333333      8.000000
  0.166667  0.083333  0.333333     16.000000
  0.250000  0.083333  0.333333     16.000000
  0.333333  0.083333  0.333333     16.000000
  0.416667  0.083333  0.333333     16.000000
  0.500000  0.083333  0.333333      8.000000
  0.166667  0.166667  0.333333      8.000000
  0.250000  0.166667  0.333333     16.000000
  0.333333  0.166667  0.333333     16.000000
  0.416667  0.166667  0.333333     16.000000
  0.500000  0.166667  0.333333      8.000000
  0.250000  0.250000  0.333333      8.000000
  0.333333  0.250000  0.333333     16.000000
  0.416667  0.250000  0.333333     16.000000
  0.500000  0.250000  0.333333      8.000000
  0.333333  0.333333  0.333333      8.000000
  0.416667  0.333333  0.333333     16.000000
  0.500000  0.333333  0.333333      8.000000
  0.416667  0.416667  0.333333      8.000000
  0.500000  0.416667  0.333333      8.000000
  0.500000  0.500000  0.333333      2.000000
  0.000000  0.000000  0.416667      2.000000
  0.083333  0.000000  0.416667      8.000000
  0.166667  0.000000  0.416667      8.000000
  0.250000  0.000000  0.416667      8.000000
  0.333333  0.000000  0.416667      8.000000
  0.416667  0.000000  0.416667      8.000000
  0.500000  0.000000  0.416667      4.000000
  0.083333  0.083333  0.416667      8.000000
  0.166667  0.083333  0.416667     16.000000
  0.250000  0.083333  0.416667     16.000000
  0.333333  0.083333  0.416667     16.000000
  0.416667  0.083333  0.416667     16.000000
  0.500000  0.083333  0.416667      8.000000
  0.166667  0.166667  0.416667      8.000000
  0.250000  0.166667  0.416667     16.000000
  0.333333  0.166667  0.416667     16.000000
  0.416667  0.166667  0.416667     16.000000
  0.500000  0.166667  0.416667      8.000000
  0.250000  0.250000  0.416667      8.000000
  0.333333  0.250000  0.416667     16.000000
  0.416667  0.250000  0.416667     16.000000
  0.500000  0.250000  0.416667      8.000000
  0.333333  0.333333  0.416667      8.000000
  0.416667  0.333333  0.416667     16.000000
  0.500000  0.333333  0.416667      8.000000
  0.416667  0.416667  0.416667      8.000000
  0.500000  0.416667  0.416667      8.000000
  0.500000  0.500000  0.416667      2.000000
  0.000000  0.000000  0.500000      1.000000
  0.083333  0.000000  0.500000      4.000000
  0.166667  0.000000  0.500000      4.000000
  0.250000  0.000000  0.500000      4.000000
  0.333333  0.000000  0.500000      4.000000
  0.416667  0.000000  0.500000      4.000000
  0.500000  0.000000  0.500000      2.000000
  0.083333  0.083333  0.500000      4.000000
  0.166667  0.083333  0.500000      8.000000
  0.250000  0.083333  0.500000      8.000000
  0.333333  0.083333  0.500000      8.000000
  0.416667  0.083333  0.500000      8.000000
  0.500000  0.083333  0.500000      4.000000
  0.166667  0.166667  0.500000      4.000000
  0.250000  0.166667  0.500000      8.000000
  0.333333  0.166667  0.500000      8.000000
  0.416667  0.166667  0.500000      8.000000
  0.500000  0.166667  0.500000      4.000000
  0.250000  0.250000  0.500000      4.000000
  0.333333  0.250000  0.500000      8.000000
  0.416667  0.250000  0.500000      8.000000
  0.500000  0.250000  0.500000      4.000000
  0.333333  0.333333  0.500000      4.000000
  0.416667  0.333333  0.500000      8.000000
  0.500000  0.333333  0.500000      4.000000
  0.416667  0.416667  0.500000      4.000000
  0.500000  0.416667  0.500000      4.000000
  0.500000  0.500000  0.500000      1.000000
 
 Following cartesian coordinates:
            Coordinates               Weight
  0.000000  0.000000  0.000000      1.000000
  0.023555  0.000000  0.000000      4.000000
  0.047110  0.000000  0.000000      4.000000
  0.070666  0.000000  0.000000      4.000000
  0.094221  0.000000  0.000000      4.000000
  0.117776  0.000000  0.000000      4.000000
  0.141331  0.000000  0.000000      2.000000
  0.023555  0.023555  0.000000      4.000000
  0.047110  0.023555  0.000000      8.000000
  0.070666  0.023555  0.000000      8.000000
  0.094221  0.023555  0.000000      8.000000
  0.117776  0.023555  0.000000      8.000000
  0.141331  0.023555  0.000000      4.000000
  0.047110  0.047110  0.000000      4.000000
  0.070666  0.047110  0.000000      8.000000
  0.094221  0.047110  0.000000      8.000000
  0.117776  0.047110  0.000000      8.000000
  0.141331  0.047110  0.000000      4.000000
  0.070666  0.070666  0.000000      4.000000
  0.094221  0.070666  0.000000      8.000000
  0.117776  0.070666  0.000000      8.000000
  0.141331  0.070666  0.000000      4.000000
  0.094221  0.094221  0.000000      4.000000
  0.117776  0.094221  0.000000      8.000000
  0.141331  0.094221  0.000000      4.000000
  0.117776  0.117776  0.000000      4.000000
  0.141331  0.117776  0.000000      4.000000
  0.141331  0.141331  0.000000      1.000000
  0.000000  0.000000  0.023318      2.000000
  0.023555  0.000000  0.023318      8.000000
  0.047110  0.000000  0.023318      8.000000
  0.070666  0.000000  0.023318      8.000000
  0.094221  0.000000  0.023318      8.000000
  0.117776  0.000000  0.023318      8.000000
  0.141331  0.000000  0.023318      4.000000
  0.023555  0.023555  0.023318      8.000000
  0.047110  0.023555  0.023318     16.000000
  0.070666  0.023555  0.023318     16.000000
  0.094221  0.023555  0.023318     16.000000
  0.117776  0.023555  0.023318     16.000000
  0.141331  0.023555  0.023318      8.000000
  0.047110  0.047110  0.023318      8.000000
  0.070666  0.047110  0.023318     16.000000
  0.094221  0.047110  0.023318     16.000000
  0.117776  0.047110  0.023318     16.000000
  0.141331  0.047110  0.023318      8.000000
  0.070666  0.070666  0.023318      8.000000
  0.094221  0.070666  0.023318     16.000000
  0.117776  0.070666  0.023318     16.000000
  0.141331  0.070666  0.023318      8.000000
  0.094221  0.094221  0.023318      8.000000
  0.117776  0.094221  0.023318     16.000000
  0.141331  0.094221  0.023318      8.000000
  0.117776  0.117776  0.023318      8.000000
  0.141331  0.117776  0.023318      8.000000
  0.141331  0.141331  0.023318      2.000000
  0.000000  0.000000  0.046637      2.000000
  0.023555  0.000000  0.046637      8.000000
  0.047110  0.000000  0.046637      8.000000
  0.070666  0.000000  0.046637      8.000000
  0.094221  0.000000  0.046637      8.000000
  0.117776  0.000000  0.046637      8.000000
  0.141331  0.000000  0.046637      4.000000
  0.023555  0.023555  0.046637      8.000000
  0.047110  0.023555  0.046637     16.000000
  0.070666  0.023555  0.046637     16.000000
  0.094221  0.023555  0.046637     16.000000
  0.117776  0.023555  0.046637     16.000000
  0.141331  0.023555  0.046637      8.000000
  0.047110  0.047110  0.046637      8.000000
  0.070666  0.047110  0.046637     16.000000
  0.094221  0.047110  0.046637     16.000000
  0.117776  0.047110  0.046637     16.000000
  0.141331  0.047110  0.046637      8.000000
  0.070666  0.070666  0.046637      8.000000
  0.094221  0.070666  0.046637     16.000000
  0.117776  0.070666  0.046637     16.000000
  0.141331  0.070666  0.046637      8.000000
  0.094221  0.094221  0.046637      8.000000
  0.117776  0.094221  0.046637     16.000000
  0.141331  0.094221  0.046637      8.000000
  0.117776  0.117776  0.046637      8.000000
  0.141331  0.117776  0.046637      8.000000
  0.141331  0.141331  0.046637      2.000000
  0.000000  0.000000  0.069955      2.000000
  0.023555  0.000000  0.069955      8.000000
  0.047110  0.000000  0.069955      8.000000
  0.070666  0.000000  0.069955      8.000000
  0.094221  0.000000  0.069955      8.000000
  0.117776  0.000000  0.069955      8.000000
  0.141331  0.000000  0.069955      4.000000
  0.023555  0.023555  0.069955      8.000000
  0.047110  0.023555  0.069955     16.000000
  0.070666  0.023555  0.069955     16.000000
  0.094221  0.023555  0.069955     16.000000
  0.117776  0.023555  0.069955     16.000000
  0.141331  0.023555  0.069955      8.000000
  0.047110  0.047110  0.069955      8.000000
  0.070666  0.047110  0.069955     16.000000
  0.094221  0.047110  0.069955     16.000000
  0.117776  0.047110  0.069955     16.000000
  0.141331  0.047110  0.069955      8.000000
  0.070666  0.070666  0.069955      8.000000
  0.094221  0.070666  0.069955     16.000000
  0.117776  0.070666  0.069955     16.000000
  0.141331  0.070666  0.069955      8.000000
  0.094221  0.094221  0.069955      8.000000
  0.117776  0.094221  0.069955     16.000000
  0.141331  0.094221  0.069955      8.000000
  0.117776  0.117776  0.069955      8.000000
  0.141331  0.117776  0.069955      8.000000
  0.141331  0.141331  0.069955      2.000000
  0.000000  0.000000  0.093274      2.000000
  0.023555  0.000000  0.093274      8.000000
  0.047110  0.000000  0.093274      8.000000
  0.070666  0.000000  0.093274      8.000000
  0.094221  0.000000  0.093274      8.000000
  0.117776  0.000000  0.093274      8.000000
  0.141331  0.000000  0.093274      4.000000
  0.023555  0.023555  0.093274      8.000000
  0.047110  0.023555  0.093274     16.000000
  0.070666  0.023555  0.093274     16.000000
  0.094221  0.023555  0.093274     16.000000
  0.117776  0.023555  0.093274     16.000000
  0.141331  0.023555  0.093274      8.000000
  0.047110  0.047110  0.093274      8.000000
  0.070666  0.047110  0.093274     16.000000
  0.094221  0.047110  0.093274     16.000000
  0.117776  0.047110  0.093274     16.000000
  0.141331  0.047110  0.093274      8.000000
  0.070666  0.070666  0.093274      8.000000
  0.094221  0.070666  0.093274     16.000000
  0.117776  0.070666  0.093274     16.000000
  0.141331  0.070666  0.093274      8.000000
  0.094221  0.094221  0.093274      8.000000
  0.117776  0.094221  0.093274     16.000000
  0.141331  0.094221  0.093274      8.000000
  0.117776  0.117776  0.093274      8.000000
  0.141331  0.117776  0.093274      8.000000
  0.141331  0.141331  0.093274      2.000000
  0.000000  0.000000  0.116592      2.000000
  0.023555  0.000000  0.116592      8.000000
  0.047110  0.000000  0.116592      8.000000
  0.070666  0.000000  0.116592      8.000000
  0.094221  0.000000  0.116592      8.000000
  0.117776  0.000000  0.116592      8.000000
  0.141331  0.000000  0.116592      4.000000
  0.023555  0.023555  0.116592      8.000000
  0.047110  0.023555  0.116592     16.000000
  0.070666  0.023555  0.116592     16.000000
  0.094221  0.023555  0.116592     16.000000
  0.117776  0.023555  0.116592     16.000000
  0.141331  0.023555  0.116592      8.000000
  0.047110  0.047110  0.116592      8.000000
  0.070666  0.047110  0.116592     16.000000
  0.094221  0.047110  0.116592     16.000000
  0.117776  0.047110  0.116592     16.000000
  0.141331  0.047110  0.116592      8.000000
  0.070666  0.070666  0.116592      8.000000
  0.094221  0.070666  0.116592     16.000000
  0.117776  0.070666  0.116592     16.000000
  0.141331  0.070666  0.116592      8.000000
  0.094221  0.094221  0.116592      8.000000
  0.117776  0.094221  0.116592     16.000000
  0.141331  0.094221  0.116592      8.000000
  0.117776  0.117776  0.116592      8.000000
  0.141331  0.117776  0.116592      8.000000
  0.141331  0.141331  0.116592      2.000000
  0.000000  0.000000  0.139911      1.000000
  0.023555  0.000000  0.139911      4.000000
  0.047110  0.000000  0.139911      4.000000
  0.070666  0.000000  0.139911      4.000000
  0.094221  0.000000  0.139911      4.000000
  0.117776  0.000000  0.139911      4.000000
  0.141331  0.000000  0.139911      2.000000
  0.023555  0.023555  0.139911      4.000000
  0.047110  0.023555  0.139911      8.000000
  0.070666  0.023555  0.139911      8.000000
  0.094221  0.023555  0.139911      8.000000
  0.117776  0.023555  0.139911      8.000000
  0.141331  0.023555  0.139911      4.000000
  0.047110  0.047110  0.139911      4.000000
  0.070666  0.047110  0.139911      8.000000
  0.094221  0.047110  0.139911      8.000000
  0.117776  0.047110  0.139911      8.000000
  0.141331  0.047110  0.139911      4.000000
  0.070666  0.070666  0.139911      4.000000
  0.094221  0.070666  0.139911      8.000000
  0.117776  0.070666  0.139911      8.000000
  0.141331  0.070666  0.139911      4.000000
  0.094221  0.094221  0.139911      4.000000
  0.117776  0.094221  0.139911      8.000000
  0.141331  0.094221  0.139911      4.000000
  0.117776  0.117776  0.139911      4.000000
  0.141331  0.117776  0.139911      4.000000
  0.141331  0.141331  0.139911      1.000000
 
 TETIRR: Found   2592 inequivalent tetrahedra from    10368


--------------------------------------------------------------------------------------------------------




 Dimension of arrays:
   k-points           NKPTS =    196   k-points in BZ     NKDIM =    196   number of bands    NBANDS=     24
   number of dos      NEDOS =    301   number of ions     NIONS =      8
   non local maximal  LDIM  =      4   non local SUM 2l+1 LMDIM =      8
   total plane-waves  NPLWV =  13824
   max r-space proj   IRMAX =      1   max aug-charges    IRDMAX=   3797
   dimension x,y,z NGX =    24 NGY =   24 NGZ =   24
   dimension x,y,z NGXF=    48 NGYF=   48 NGZF=   48
   support grid    NGXF=    48 NGYF=   48 NGZF=   48
   ions per type =               8
   NGX,Y,Z   is equivalent  to a cutoff of  11.23, 11.23, 11.11 a.u.
   NGXF,Y,Z  is equivalent  to a cutoff of  22.45, 22.45, 22.23 a.u.

 SYSTEM =  unknown system                          
 POSCAR =  C8                                      

 Startparameter for this run:
   NWRITE =      2    write-flag & timer
   PREC   = accura    normal or accurate (medium, high low for compatibility)
   ISTART =      0    job   : 0-new  1-cont  2-samecut
   ICHARG =      2    charge: 1-file 2-atom 10-const
   ISPIN  =      1    spin polarized calculation?
   LNONCOLLINEAR =      F non collinear calculations
   LSORBIT =      F    spin-orbit coupling
   INIWAV =      1    electr: 0-lowe 1-rand  2-diag
   LASPH  =      F    aspherical Exc in radial PAW
   METAGGA=      F    non-selfconsistent MetaGGA calc.

 Electronic Relaxation 1
   ENCUT  =  400.0 eV  29.40 Ry    5.42 a.u.   5.80  5.80  5.85*2*pi/ulx,y,z
   ENINI  =  400.0     initial cutoff
   ENAUG  =  644.9 eV  augmentation charge cutoff
   NELM   =     60;   NELMIN=  2; NELMDL= -5     # of ELM steps 
   EDIFF  = 0.1E-05   stopping-criterion for ELM
   LREAL  =      F    real-space projection
   NLSPLINE    = F    spline interpolate recip. space projectors
   LCOMPAT=      F    compatible to vasp.4.4
   GGA_COMPAT  = T    GGA compatible to vasp.4.4-vasp.4.6
   LMAXPAW     = -100 max onsite density
   LMAXMIX     =    2 max onsite mixed and CHGCAR
   VOSKOWN=      0    Vosko Wilk Nusair interpolation
   ROPT   =    0.00000
 Ionic relaxation
   EDIFFG = 0.1E-04   stopping-criterion for IOM
   NSW    =      0    number of steps for IOM
   NBLOCK =      1;   KBLOCK =      1    inner block; outer block 
   IBRION =     -1    ionic relax: 0-MD 1-quasi-New 2-CG
   NFREE  =      0    steps in history (QN), initial steepest desc. (CG)
   ISIF   =      2    stress and relaxation
   IWAVPR =     10    prediction:  0-non 1-charg 2-wave 3-comb
   ISYM   =      2    0-nonsym 1-usesym 2-fastsym
   LCORR  =      T    Harris-Foulkes like correction to forces

   POTIM  = 0.0200    time-step for ionic-motion
   TEIN   =    0.0    initial temperature
   TEBEG  =    0.0;   TEEND  =   0.0 temperature during run
   SMASS  =  -3.00    Nose mass-parameter (am)
   estimated Nose-frequenzy (Omega)   =  0.10E-29 period in steps =****** mass=  -0.289E-27a.u.
   SCALEE = 1.0000    scale energy and forces
   NPACO  =    256;   APACO  = 16.0  distance and # of slots for P.C.
   PSTRESS=    0.0 pullay stress

  Mass of Ions in am
   POMASS =  12.01
  Ionic Valenz
   ZVAL   =   4.00
  Atomic Wigner-Seitz radii
   RWIGS  =  -1.00
  virtual crystal weights 
   VCA    =   1.00
   NELECT =      32.0000    total number of electrons
   NUPDOWN=      -1.0000    fix difference up-down

 DOS related values:
   EMIN   =  10.00;   EMAX   =-10.00  energy-range for DOS
   EFERMI =   0.00
   ISMEAR =    -5;   SIGMA  =   0.06  broadening in eV -4-tet -1-fermi 0-gaus

 Electronic relaxation 2 (details)
   IALGO  =     38    algorithm
   LDIAG  =      T    sub-space diagonalisation (order eigenvalues)
   LSUBROT=      F    optimize rotation matrix (better conditioning)
   TURBO    =      0    0=normal 1=particle mesh
   IRESTART =      0    0=no restart 2=restart with 2 vectors
   NREBOOT  =      0    no. of reboots
   NMIN     =      0    reboot dimension
   EREF     =   0.00    reference energy to select bands
   IMIX   =      4    mixing-type and parameters
     AMIX     =   0.40;   BMIX     =  1.00
     AMIX_MAG =   1.60;   BMIX_MAG =  1.00
     AMIN     =   0.10
     WC   =   100.;   INIMIX=   1;  MIXPRE=   1;  MAXMIX= -45

 Intra band minimization:
   WEIMIN = 0.0000     energy-eigenvalue tresh-hold
   EBREAK =  0.10E-07  absolut break condition
   DEPER  =   0.30     relativ break condition  

   TIME   =   0.40     timestep for ELM

  volume/ion in A,a.u.               =       5.67        38.25
  Fermi-wavevector in a.u.,A,eV,Ry     =   1.457544  2.754360 28.904702  2.124436
  Thomas-Fermi vector in A             =   2.574333
 
 Write flags
   LWAVE        =      F    write WAVECAR
   LDOWNSAMPLE  =      F    k-point downsampling of WAVECAR
   LCHARG       =      F    write CHGCAR
   LVTOT        =      F    write LOCPOT, total local potential
   LVHAR        =      F    write LOCPOT, Hartree potential only
   LELF         =      F    write electronic localiz. function (ELF)
   LORBIT       =      0    0 simple, 1 ext, 2 COOP (PROOUT), +10 PAW based schemes


 Dipole corrections
   LMONO  =      F    monopole corrections only (constant potential shift)
   LDIPOL =      F    correct potential (dipole corrections)
   IDIPOL =      0    1-x, 2-y, 3-z, 4-all directions 
   EPSILON=  1.0000000 bulk dielectric constant

 Exchange correlation treatment:
   GGA     =    --    GGA type
   LEXCH   =     8    internal setting for exchange type
   VOSKOWN=      0    Vosko Wilk Nusair interpolation
   LHFCALC =     F    Hartree Fock is set to
   LHFONE  =     F    Hartree Fock one center treatment
   AEXX    =    0.0000 exact exchange contribution

 Linear response parameters
   LEPSILON=     F    determine dielectric tensor
   LRPA    =     F    only Hartree local field effects (RPA)
   LNABLA  =     F    use nabla operator in PAW spheres
   LVEL    =     F    velocity operator in full k-point grid
   LINTERFAST=   F  fast interpolation
   KINTER  =     0    interpolate to denser k-point grid
   CSHIFT  =0.1000    complex shift for real part using Kramers Kronig
   OMEGAMAX=  -1.0    maximum frequency
   DEG_THRESHOLD= 0.2000000E-02 threshold for treating states as degnerate
   RTIME   =   -0.100 relaxation time in fs
  (WPLASMAI=    0.000 imaginary part of plasma frequency in eV, 0.658/RTIME)
   DFIELD  = 0.0000000 0.0000000 0.0000000 field for delta impulse in time
 
 Orbital magnetization related:
   ORBITALMAG=     F  switch on orbital magnetization
   LCHIMAG   =     F  perturbation theory with respect to B field
   DQ        =  0.001000  dq finite difference perturbation B field
   LLRAUG    =     F  two centre corrections for induced B field



--------------------------------------------------------------------------------------------------------


 Static calculation
 charge density and potential will be updated during run
 non-spin polarized calculation
 Variant of blocked Davidson
 Davidson routine will perform the subspace rotation
 perform sub-space diagonalisation
    after iterative eigenvector-optimisation
 modified Broyden-mixing scheme, WC =      100.0
 initial mixing is a Kerker type mixing with AMIX =  0.4000 and BMIX =      1.0000
 Hartree-type preconditioning will be used
 using additional bands            8
 reciprocal scheme for non local part
 calculate Harris-corrections to forces 
   (improved forces if not selfconsistent)
 use gradient corrections 
 use of overlap-Matrix (Vanderbilt PP)
 Fermi weights with tetrahedron method with Bloechl corrections


--------------------------------------------------------------------------------------------------------


  energy-cutoff  :      400.00
  volume of cell :       45.34
      direct lattice vectors                 reciprocal lattice vectors
     3.553917641  0.000000000  0.000000000     0.281379621  0.000000000  0.000000000
     0.000000000  3.553917641  0.000000000     0.000000000  0.281379621  0.000000000
     0.000000000  0.000000000  3.589999359     0.000000000  0.000000000  0.278551582

  length of vectors
     3.553917641  3.553917641  3.589999359     0.281379621  0.281379621  0.278551582


 
 k-points in units of 2pi/SCALE and weight: kpt_density=1000                        
   0.00000000  0.00000000  0.00000000       0.001
   0.02355518  0.00000000  0.00000000       0.002
   0.04711036  0.00000000  0.00000000       0.002
   0.07066555  0.00000000  0.00000000       0.002
   0.09422073  0.00000000  0.00000000       0.002
   0.11777591  0.00000000  0.00000000       0.002
   0.14133109  0.00000000  0.00000000       0.001
   0.02355518  0.02355518  0.00000000       0.002
   0.04711036  0.02355518  0.00000000       0.005
   0.07066555  0.02355518  0.00000000       0.005
   0.09422073  0.02355518  0.00000000       0.005
   0.11777591  0.02355518  0.00000000       0.005
   0.14133109  0.02355518  0.00000000       0.002
   0.04711036  0.04711036  0.00000000       0.002
   0.07066555  0.04711036  0.00000000       0.005
   0.09422073  0.04711036  0.00000000       0.005
   0.11777591  0.04711036  0.00000000       0.005
   0.14133109  0.04711036  0.00000000       0.002
   0.07066555  0.07066555  0.00000000       0.002
   0.09422073  0.07066555  0.00000000       0.005
   0.11777591  0.07066555  0.00000000       0.005
   0.14133109  0.07066555  0.00000000       0.002
   0.09422073  0.09422073  0.00000000       0.002
   0.11777591  0.09422073  0.00000000       0.005
   0.14133109  0.09422073  0.00000000       0.002
   0.11777591  0.11777591  0.00000000       0.002
   0.14133109  0.11777591  0.00000000       0.002
   0.14133109  0.14133109  0.00000000       0.001
   0.00000000  0.00000000  0.02331844       0.001
   0.02355518  0.00000000  0.02331844       0.005
   0.04711036  0.00000000  0.02331844       0.005
   0.07066555  0.00000000  0.02331844       0.005
   0.09422073  0.00000000  0.02331844       0.005
   0.11777591  0.00000000  0.02331844       0.005
   0.14133109  0.00000000  0.02331844       0.002
   0.02355518  0.02355518  0.02331844       0.005
   0.04711036  0.02355518  0.02331844       0.009
   0.07066555  0.02355518  0.02331844       0.009
   0.09422073  0.02355518  0.02331844       0.009
   0.11777591  0.02355518  0.02331844       0.009
   0.14133109  0.02355518  0.02331844       0.005
   0.04711036  0.04711036  0.02331844       0.005
   0.07066555  0.04711036  0.02331844       0.009
   0.09422073  0.04711036  0.02331844       0.009
   0.11777591  0.04711036  0.02331844       0.009
   0.14133109  0.04711036  0.02331844       0.005
   0.07066555  0.07066555  0.02331844       0.005
   0.09422073  0.07066555  0.02331844       0.009
   0.11777591  0.07066555  0.02331844       0.009
   0.14133109  0.07066555  0.02331844       0.005
   0.09422073  0.09422073  0.02331844       0.005
   0.11777591  0.09422073  0.02331844       0.009
   0.14133109  0.09422073  0.02331844       0.005
   0.11777591  0.11777591  0.02331844       0.005
   0.14133109  0.11777591  0.02331844       0.005
   0.14133109  0.14133109  0.02331844       0.001
   0.00000000  0.00000000  0.04663688       0.001
   0.02355518  0.00000000  0.04663688       0.005
   0.04711036  0.00000000  0.04663688       0.005
   0.07066555  0.00000000  0.04663688       0.005
   0.09422073  0.00000000  0.04663688       0.005
   0.11777591  0.00000000  0.04663688       0.005
   0.14133109  0.00000000  0.04663688       0.002
   0.02355518  0.02355518  0.04663688       0.005
   0.04711036  0.02355518  0.04663688       0.009
   0.07066555  0.02355518  0.04663688       0.009
   0.09422073  0.02355518  0.04663688       0.009
   0.11777591  0.02355518  0.04663688       0.009
   0.14133109  0.02355518  0.04663688       0.005
   0.04711036  0.04711036  0.04663688       0.005
   0.07066555  0.04711036  0.04663688       0.009
   0.09422073  0.04711036  0.04663688       0.009
   0.11777591  0.04711036  0.04663688       0.009
   0.14133109  0.04711036  0.04663688       0.005
   0.07066555  0.07066555  0.04663688       0.005
   0.09422073  0.07066555  0.04663688       0.009
   0.11777591  0.07066555  0.04663688       0.009
   0.14133109  0.07066555  0.04663688       0.005
   0.09422073  0.09422073  0.04663688       0.005
   0.11777591  0.09422073  0.04663688       0.009
   0.14133109  0.09422073  0.04663688       0.005
   0.11777591  0.11777591  0.04663688       0.005
   0.14133109  0.11777591  0.04663688       0.005
   0.14133109  0.14133109  0.04663688       0.001
   0.00000000  0.00000000  0.06995531       0.001
   0.02355518  0.00000000  0.06995531       0.005
   0.04711036  0.00000000  0.06995531       0.005
   0.07066555  0.00000000  0.06995531       0.005
   0.09422073  0.00000000  0.06995531       0.005
   0.11777591  0.00000000  0.06995531       0.005
   0.14133109  0.00000000  0.06995531       0.002
   0.02355518  0.02355518  0.06995531       0.005
   0.04711036  0.02355518  0.06995531       0.009
   0.07066555  0.02355518  0.06995531       0.009
   0.09422073  0.02355518  0.06995531       0.009
   0.11777591  0.02355518  0.06995531       0.009
   0.14133109  0.02355518  0.06995531       0.005
   0.04711036  0.04711036  0.06995531       0.005
   0.07066555  0.04711036  0.06995531       0.009
   0.09422073  0.04711036  0.06995531       0.009
   0.11777591  0.04711036  0.06995531       0.009
   0.14133109  0.04711036  0.06995531       0.005
   0.07066555  0.07066555  0.06995531       0.005
   0.09422073  0.07066555  0.06995531       0.009
   0.11777591  0.07066555  0.06995531       0.009
   0.14133109  0.07066555  0.06995531       0.005
   0.09422073  0.09422073  0.06995531       0.005
   0.11777591  0.09422073  0.06995531       0.009
   0.14133109  0.09422073  0.06995531       0.005
   0.11777591  0.11777591  0.06995531       0.005
   0.14133109  0.11777591  0.06995531       0.005
   0.14133109  0.14133109  0.06995531       0.001
   0.00000000  0.00000000  0.09327375       0.001
   0.02355518  0.00000000  0.09327375       0.005
   0.04711036  0.00000000  0.09327375       0.005
   0.07066555  0.00000000  0.09327375       0.005
   0.09422073  0.00000000  0.09327375       0.005
   0.11777591  0.00000000  0.09327375       0.005
   0.14133109  0.00000000  0.09327375       0.002
   0.02355518  0.02355518  0.09327375       0.005
   0.04711036  0.02355518  0.09327375       0.009
   0.07066555  0.02355518  0.09327375       0.009
   0.09422073  0.02355518  0.09327375       0.009
   0.11777591  0.02355518  0.09327375       0.009
   0.14133109  0.02355518  0.09327375       0.005
   0.04711036  0.04711036  0.09327375       0.005
   0.07066555  0.04711036  0.09327375       0.009
   0.09422073  0.04711036  0.09327375       0.009
   0.11777591  0.04711036  0.09327375       0.009
   0.14133109  0.04711036  0.09327375       0.005
   0.07066555  0.07066555  0.09327375       0.005
   0.09422073  0.07066555  0.09327375       0.009
   0.11777591  0.07066555  0.09327375       0.009
   0.14133109  0.07066555  0.09327375       0.005
   0.09422073  0.09422073  0.09327375       0.005
   0.11777591  0.09422073  0.09327375       0.009
   0.14133109  0.09422073  0.09327375       0.005
   0.11777591  0.11777591  0.09327375       0.005
   0.14133109  0.11777591  0.09327375       0.005
   0.14133109  0.14133109  0.09327375       0.001
   0.00000000  0.00000000  0.11659219       0.001
   0.02355518  0.00000000  0.11659219       0.005
   0.04711036  0.00000000  0.11659219       0.005
   0.07066555  0.00000000  0.11659219       0.005
   0.09422073  0.00000000  0.11659219       0.005
   0.11777591  0.00000000  0.11659219       0.005
   0.14133109  0.00000000  0.11659219       0.002
   0.02355518  0.02355518  0.11659219       0.005
   0.04711036  0.02355518  0.11659219       0.009
   0.07066555  0.02355518  0.11659219       0.009
   0.09422073  0.02355518  0.11659219       0.009
   0.11777591  0.02355518  0.11659219       0.009
   0.14133109  0.02355518  0.11659219       0.005
   0.04711036  0.04711036  0.11659219       0.005
   0.07066555  0.04711036  0.11659219       0.009
   0.09422073  0.04711036  0.11659219       0.009
   0.11777591  0.04711036  0.11659219       0.009
   0.14133109  0.04711036  0.11659219       0.005
   0.07066555  0.07066555  0.11659219       0.005
   0.09422073  0.07066555  0.11659219       0.009
   0.11777591  0.07066555  0.11659219       0.009
   0.14133109  0.07066555  0.11659219       0.005
   0.09422073  0.09422073  0.11659219       0.005
   0.11777591  0.09422073  0.11659219       0.009
   0.14133109  0.09422073  0.11659219       0.005
   0.11777591  0.11777591  0.11659219       0.005
   0.14133109  0.11777591  0.11659219       0.005
   0.14133109  0.14133109  0.11659219       0.001
   0.00000000  0.00000000  0.13991063       0.001
   0.02355518  0.00000000  0.13991063       0.002
   0.04711036  0.00000000  0.13991063       0.002
   0.07066555  0.00000000  0.13991063       0.002
   0.09422073  0.00000000  0.13991063       0.002
   0.11777591  0.00000000  0.13991063       0.002
   0.14133109  0.00000000  0.13991063       0.001
   0.02355518  0.02355518  0.13991063       0.002
   0.04711036  0.02355518  0.13991063       0.005
   0.07066555  0.02355518  0.13991063       0.005
   0.09422073  0.02355518  0.13991063       0.005
   0.11777591  0.02355518  0.13991063       0.005
   0.14133109  0.02355518  0.13991063       0.002
   0.04711036  0.04711036  0.13991063       0.002
   0.07066555  0.04711036  0.13991063       0.005
   0.09422073  0.04711036  0.13991063       0.005
   0.11777591  0.04711036  0.13991063       0.005
   0.14133109  0.04711036  0.13991063       0.002
   0.07066555  0.07066555  0.13991063       0.002
   0.09422073  0.07066555  0.13991063       0.005
   0.11777591  0.07066555  0.13991063       0.005
   0.14133109  0.07066555  0.13991063       0.002
   0.09422073  0.09422073  0.13991063       0.002
   0.11777591  0.09422073  0.13991063       0.005
   0.14133109  0.09422073  0.13991063       0.002
   0.11777591  0.11777591  0.13991063       0.002
   0.14133109  0.11777591  0.13991063       0.002
   0.14133109  0.14133109  0.13991063       0.001
 
 k-points in reciprocal lattice and weights: kpt_density=1000                        
   0.00000000  0.00000000  0.00000000       0.001
   0.08333333  0.00000000  0.00000000       0.002
   0.16666667  0.00000000  0.00000000       0.002
   0.25000000  0.00000000  0.00000000       0.002
   0.33333333  0.00000000  0.00000000       0.002
   0.41666667  0.00000000  0.00000000       0.002
   0.50000000  0.00000000  0.00000000       0.001
   0.08333333  0.08333333  0.00000000       0.002
   0.16666667  0.08333333  0.00000000       0.005
   0.25000000  0.08333333  0.00000000       0.005
   0.33333333  0.08333333  0.00000000       0.005
   0.41666667  0.08333333  0.00000000       0.005
   0.50000000  0.08333333  0.00000000       0.002
   0.16666667  0.16666667  0.00000000       0.002
   0.25000000  0.16666667  0.00000000       0.005
   0.33333333  0.16666667  0.00000000       0.005
   0.41666667  0.16666667  0.00000000       0.005
   0.50000000  0.16666667  0.00000000       0.002
   0.25000000  0.25000000  0.00000000       0.002
   0.33333333  0.25000000  0.00000000       0.005
   0.41666667  0.25000000  0.00000000       0.005
   0.50000000  0.25000000  0.00000000       0.002
   0.33333333  0.33333333  0.00000000       0.002
   0.41666667  0.33333333  0.00000000       0.005
   0.50000000  0.33333333  0.00000000       0.002
   0.41666667  0.41666667  0.00000000       0.002
   0.50000000  0.41666667  0.00000000       0.002
   0.50000000  0.50000000  0.00000000       0.001
   0.00000000  0.00000000  0.08333333       0.001
   0.08333333  0.00000000  0.08333333       0.005
   0.16666667  0.00000000  0.08333333       0.005
   0.25000000  0.00000000  0.08333333       0.005
   0.33333333  0.00000000  0.08333333       0.005
   0.41666667  0.00000000  0.08333333       0.005
   0.50000000  0.00000000  0.08333333       0.002
   0.08333333  0.08333333  0.08333333       0.005
   0.16666667  0.08333333  0.08333333       0.009
   0.25000000  0.08333333  0.08333333       0.009
   0.33333333  0.08333333  0.08333333       0.009
   0.41666667  0.08333333  0.08333333       0.009
   0.50000000  0.08333333  0.08333333       0.005
   0.16666667  0.16666667  0.08333333       0.005
   0.25000000  0.16666667  0.08333333       0.009
   0.33333333  0.16666667  0.08333333       0.009
   0.41666667  0.16666667  0.08333333       0.009
   0.50000000  0.16666667  0.08333333       0.005
   0.25000000  0.25000000  0.08333333       0.005
   0.33333333  0.25000000  0.08333333       0.009
   0.41666667  0.25000000  0.08333333       0.009
   0.50000000  0.25000000  0.08333333       0.005
   0.33333333  0.33333333  0.08333333       0.005
   0.41666667  0.33333333  0.08333333       0.009
   0.50000000  0.33333333  0.08333333       0.005
   0.41666667  0.41666667  0.08333333       0.005
   0.50000000  0.41666667  0.08333333       0.005
   0.50000000  0.50000000  0.08333333       0.001
   0.00000000  0.00000000  0.16666667       0.001
   0.08333333  0.00000000  0.16666667       0.005
   0.16666667  0.00000000  0.16666667       0.005
   0.25000000  0.00000000  0.16666667       0.005
   0.33333333  0.00000000  0.16666667       0.005
   0.41666667  0.00000000  0.16666667       0.005
   0.50000000  0.00000000  0.16666667       0.002
   0.08333333  0.08333333  0.16666667       0.005
   0.16666667  0.08333333  0.16666667       0.009
   0.25000000  0.08333333  0.16666667       0.009
   0.33333333  0.08333333  0.16666667       0.009
   0.41666667  0.08333333  0.16666667       0.009
   0.50000000  0.08333333  0.16666667       0.005
   0.16666667  0.16666667  0.16666667       0.005
   0.25000000  0.16666667  0.16666667       0.009
   0.33333333  0.16666667  0.16666667       0.009
   0.41666667  0.16666667  0.16666667       0.009
   0.50000000  0.16666667  0.16666667       0.005
   0.25000000  0.25000000  0.16666667       0.005
   0.33333333  0.25000000  0.16666667       0.009
   0.41666667  0.25000000  0.16666667       0.009
   0.50000000  0.25000000  0.16666667       0.005
   0.33333333  0.33333333  0.16666667       0.005
   0.41666667  0.33333333  0.16666667       0.009
   0.50000000  0.33333333  0.16666667       0.005
   0.41666667  0.41666667  0.16666667       0.005
   0.50000000  0.41666667  0.16666667       0.005
   0.50000000  0.50000000  0.16666667       0.001
   0.00000000  0.00000000  0.25000000       0.001
   0.08333333  0.00000000  0.25000000       0.005
   0.16666667  0.00000000  0.25000000       0.005
   0.25000000  0.00000000  0.25000000       0.005
   0.33333333  0.00000000  0.25000000       0.005
   0.41666667  0.00000000  0.25000000       0.005
   0.50000000  0.00000000  0.25000000       0.002
   0.08333333  0.08333333  0.25000000       0.005
   0.16666667  0.08333333  0.25000000       0.009
   0.25000000  0.08333333  0.25000000       0.009
   0.33333333  0.08333333  0.25000000       0.009
   0.41666667  0.08333333  0.25000000       0.009
   0.50000000  0.08333333  0.25000000       0.005
   0.16666667  0.16666667  0.25000000       0.005
   0.25000000  0.16666667  0.25000000       0.009
   0.33333333  0.16666667  0.25000000       0.009
   0.41666667  0.16666667  0.25000000       0.009
   0.50000000  0.16666667  0.25000000       0.005
   0.25000000  0.25000000  0.25000000       0.005
   0.33333333  0.25000000  0.25000000       0.009
   0.41666667  0.25000000  0.25000000       0.009
   0.50000000  0.25000000  0.25000000       0.005
   0.33333333  0.33333333  0.25000000       0.005
   0.41666667  0.33333333  0.25000000       0.009
   0.50000000  0.33333333  0.25000000       0.005
   0.41666667  0.41666667  0.25000000       0.005
   0.50000000  0.41666667  0.25000000       0.005
   0.50000000  0.50000000  0.25000000       0.001
   0.00000000  0.00000000  0.33333333       0.001
   0.08333333  0.00000000  0.33333333       0.005
   0.16666667  0.00000000  0.33333333       0.005
   0.25000000  0.00000000  0.33333333       0.005
   0.33333333  0.00000000  0.33333333       0.005
   0.41666667  0.00000000  0.33333333       0.005
   0.50000000  0.00000000  0.33333333       0.002
   0.08333333  0.08333333  0.33333333       0.005
   0.16666667  0.08333333  0.33333333       0.009
   0.25000000  0.08333333  0.33333333       0.009
   0.33333333  0.08333333  0.33333333       0.009
   0.41666667  0.08333333  0.33333333       0.009
   0.50000000  0.08333333  0.33333333       0.005
   0.16666667  0.16666667  0.33333333       0.005
   0.25000000  0.16666667  0.33333333       0.009
   0.33333333  0.16666667  0.33333333       0.009
   0.41666667  0.16666667  0.33333333       0.009
   0.50000000  0.16666667  0.33333333       0.005
   0.25000000  0.25000000  0.33333333       0.005
   0.33333333  0.25000000  0.33333333       0.009
   0.41666667  0.25000000  0.33333333       0.009
   0.50000000  0.25000000  0.33333333       0.005
   0.33333333  0.33333333  0.33333333       0.005
   0.41666667  0.33333333  0.33333333       0.009
   0.50000000  0.33333333  0.33333333       0.005
   0.41666667  0.41666667  0.33333333       0.005
   0.50000000  0.41666667  0.33333333       0.005
   0.50000000  0.50000000  0.33333333       0.001
   0.00000000  0.00000000  0.41666667       0.001
   0.08333333  0.00000000  0.41666667       0.005
   0.16666667  0.00000000  0.41666667       0.005
   0.25000000  0.00000000  0.41666667       0.005
   0.33333333  0.00000000  0.41666667       0.005
   0.41666667  0.00000000  0.41666667       0.005
   0.50000000  0.00000000  0.41666667       0.002
   0.08333333  0.08333333  0.41666667       0.005
   0.16666667  0.08333333  0.41666667       0.009
   0.25000000  0.08333333  0.41666667       0.009
   0.33333333  0.08333333  0.41666667       0.009
   0.41666667  0.08333333  0.41666667       0.009
   0.50000000  0.08333333  0.41666667       0.005
   0.16666667  0.16666667  0.41666667       0.005
   0.25000000  0.16666667  0.41666667       0.009
   0.33333333  0.16666667  0.41666667       0.009
   0.41666667  0.16666667  0.41666667       0.009
   0.50000000  0.16666667  0.41666667       0.005
   0.25000000  0.25000000  0.41666667       0.005
   0.33333333  0.25000000  0.41666667       0.009
   0.41666667  0.25000000  0.41666667       0.009
   0.50000000  0.25000000  0.41666667       0.005
   0.33333333  0.33333333  0.41666667       0.005
   0.41666667  0.33333333  0.41666667       0.009
   0.50000000  0.33333333  0.41666667       0.005
   0.41666667  0.41666667  0.41666667       0.005
   0.50000000  0.41666667  0.41666667       0.005
   0.50000000  0.50000000  0.41666667       0.001
   0.00000000  0.00000000  0.50000000       0.001
   0.08333333  0.00000000  0.50000000       0.002
   0.16666667  0.00000000  0.50000000       0.002
   0.25000000  0.00000000  0.50000000       0.002
   0.33333333  0.00000000  0.50000000       0.002
   0.41666667  0.00000000  0.50000000       0.002
   0.50000000  0.00000000  0.50000000       0.001
   0.08333333  0.08333333  0.50000000       0.002
   0.16666667  0.08333333  0.50000000       0.005
   0.25000000  0.08333333  0.50000000       0.005
   0.33333333  0.08333333  0.50000000       0.005
   0.41666667  0.08333333  0.50000000       0.005
   0.50000000  0.08333333  0.50000000       0.002
   0.16666667  0.16666667  0.50000000       0.002
   0.25000000  0.16666667  0.50000000       0.005
   0.33333333  0.16666667  0.50000000       0.005
   0.41666667  0.16666667  0.50000000       0.005
   0.50000000  0.16666667  0.50000000       0.002
   0.25000000  0.25000000  0.50000000       0.002
   0.33333333  0.25000000  0.50000000       0.005
   0.41666667  0.25000000  0.50000000       0.005
   0.50000000  0.25000000  0.50000000       0.002
   0.33333333  0.33333333  0.50000000       0.002
   0.41666667  0.33333333  0.50000000       0.005
   0.50000000  0.33333333  0.50000000       0.002
   0.41666667  0.41666667  0.50000000       0.002
   0.50000000  0.41666667  0.50000000       0.002
   0.50000000  0.50000000  0.50000000       0.001
 
 position of ions in fractional coordinates (direct lattice) 
   0.25000000  0.75000000  0.25000000
   0.00000000  0.00000000  0.50000000
   0.25000000  0.25000000  0.75000000
   0.00000000  0.50000000  0.00000000
   0.75000000  0.75000000  0.75000000
   0.50000000  0.00000000  0.00000000
   0.75000000  0.25000000  0.25000000
   0.50000000  0.50000000  0.50000000
 
 position of ions in cartesian coordinates  (Angst):
   0.88847941  2.66543823  0.89749984
   0.00000000  0.00000000  1.79499968
   0.88847941  0.88847941  2.69249952
   0.00000000  1.77695882  0.00000000
   2.66543823  2.66543823  2.69249952
   1.77695882  0.00000000  0.00000000
   2.66543823  0.88847941  0.89749984
   1.77695882  1.77695882  1.79499968
 


--------------------------------------------------------------------------------------------------------


 k-point  1 :   0.0000 0.0000 0.0000  plane waves:     807
 k-point  2 :   0.0833 0.0000 0.0000  plane waves:     815
 k-point  3 :   0.1667 0.0000 0.0000  plane waves:     819
 k-point  4 :   0.2500 0.0000 0.0000  plane waves:     820
 k-point  5 :   0.3333 0.0000 0.0000  plane waves:     824
 k-point  6 :   0.4167 0.0000 0.0000  plane waves:     816
 k-point  7 :   0.5000 0.0000 0.0000  plane waves:     820
 k-point  8 :   0.0833 0.0833 0.0000  plane waves:     809
 k-point  9 :   0.1667 0.0833 0.0000  plane waves:     815
 k-point 10 :   0.2500 0.0833 0.0000  plane waves:     825
 k-point 11 :   0.3333 0.0833 0.0000  plane waves:     826
 k-point 12 :   0.4167 0.0833 0.0000  plane waves:     831
 k-point 13 :   0.5000 0.0833 0.0000  plane waves:     828
 k-point 14 :   0.1667 0.1667 0.0000  plane waves:     818
 k-point 15 :   0.2500 0.1667 0.0000  plane waves:     820
 k-point 16 :   0.3333 0.1667 0.0000  plane waves:     826
 k-point 17 :   0.4167 0.1667 0.0000  plane waves:     829
 k-point 18 :   0.5000 0.1667 0.0000  plane waves:     824
 k-point 19 :   0.2500 0.2500 0.0000  plane waves:     816
 k-point 20 :   0.3333 0.2500 0.0000  plane waves:     821
 k-point 21 :   0.4167 0.2500 0.0000  plane waves:     825
 k-point 22 :   0.5000 0.2500 0.0000  plane waves:     814
 k-point 23 :   0.3333 0.3333 0.0000  plane waves:     828
 k-point 24 :   0.4167 0.3333 0.0000  plane waves:     823
 k-point 25 :   0.5000 0.3333 0.0000  plane waves:     822
 k-point 26 :   0.4167 0.4167 0.0000  plane waves:     822
 k-point 27 :   0.5000 0.4167 0.0000  plane waves:     824
 k-point 28 :   0.5000 0.5000 0.0000  plane waves:     840
 k-point 29 :   0.0000 0.0000 0.0833  plane waves:     819
 k-point 30 :   0.0833 0.0000 0.0833  plane waves:     815
 k-point 31 :   0.1667 0.0000 0.0833  plane waves:     816
 k-point 32 :   0.2500 0.0000 0.0833  plane waves:     817
 k-point 33 :   0.3333 0.0000 0.0833  plane waves:     822
 k-point 34 :   0.4167 0.0000 0.0833  plane waves:     829
 k-point 35 :   0.5000 0.0000 0.0833  plane waves:     832
 k-point 36 :   0.0833 0.0833 0.0833  plane waves:     816
 k-point 37 :   0.1667 0.0833 0.0833  plane waves:     817
 k-point 38 :   0.2500 0.0833 0.0833  plane waves:     823
 k-point 39 :   0.3333 0.0833 0.0833  plane waves:     823
 k-point 40 :   0.4167 0.0833 0.0833  plane waves:     823
 k-point 41 :   0.5000 0.0833 0.0833  plane waves:     824
 k-point 42 :   0.1667 0.1667 0.0833  plane waves:     818
 k-point 43 :   0.2500 0.1667 0.0833  plane waves:     820
 k-point 44 :   0.3333 0.1667 0.0833  plane waves:     824
 k-point 45 :   0.4167 0.1667 0.0833  plane waves:     822
 k-point 46 :   0.5000 0.1667 0.0833  plane waves:     820
 k-point 47 :   0.2500 0.2500 0.0833  plane waves:     822
 k-point 48 :   0.3333 0.2500 0.0833  plane waves:     823
 k-point 49 :   0.4167 0.2500 0.0833  plane waves:     826
 k-point 50 :   0.5000 0.2500 0.0833  plane waves:     820
 k-point 51 :   0.3333 0.3333 0.0833  plane waves:     826
 k-point 52 :   0.4167 0.3333 0.0833  plane waves:     823
 k-point 53 :   0.5000 0.3333 0.0833  plane waves:     820
 k-point 54 :   0.4167 0.4167 0.0833  plane waves:     820
 k-point 55 :   0.5000 0.4167 0.0833  plane waves:     826
 k-point 56 :   0.5000 0.5000 0.0833  plane waves:     820
 k-point 57 :   0.0000 0.0000 0.1667  plane waves:     808
 k-point 58 :   0.0833 0.0000 0.1667  plane waves:     816
 k-point 59 :   0.1667 0.0000 0.1667  plane waves:     817
 k-point 60 :   0.2500 0.0000 0.1667  plane waves:     830
 k-point 61 :   0.3333 0.0000 0.1667  plane waves:     826
 k-point 62 :   0.4167 0.0000 0.1667  plane waves:     832
 k-point 63 :   0.5000 0.0000 0.1667  plane waves:     830
 k-point 64 :   0.0833 0.0833 0.1667  plane waves:     819
 k-point 65 :   0.1667 0.0833 0.1667  plane waves:     818
 k-point 66 :   0.2500 0.0833 0.1667  plane waves:     821
 k-point 67 :   0.3333 0.0833 0.1667  plane waves:     823
 k-point 68 :   0.4167 0.0833 0.1667  plane waves:     824
 k-point 69 :   0.5000 0.0833 0.1667  plane waves:     826
 k-point 70 :   0.1667 0.1667 0.1667  plane waves:     821
 k-point 71 :   0.2500 0.1667 0.1667  plane waves:     821
 k-point 72 :   0.3333 0.1667 0.1667  plane waves:     826
 k-point 73 :   0.4167 0.1667 0.1667  plane waves:     823
 k-point 74 :   0.5000 0.1667 0.1667  plane waves:     824
 k-point 75 :   0.2500 0.2500 0.1667  plane waves:     826
 k-point 76 :   0.3333 0.2500 0.1667  plane waves:     823
 k-point 77 :   0.4167 0.2500 0.1667  plane waves:     819
 k-point 78 :   0.5000 0.2500 0.1667  plane waves:     816
 k-point 79 :   0.3333 0.3333 0.1667  plane waves:     829
 k-point 80 :   0.4167 0.3333 0.1667  plane waves:     817
 k-point 81 :   0.5000 0.3333 0.1667  plane waves:     818
 k-point 82 :   0.4167 0.4167 0.1667  plane waves:     821
 k-point 83 :   0.5000 0.4167 0.1667  plane waves:     822
 k-point 84 :   0.5000 0.5000 0.1667  plane waves:     820
 k-point 85 :   0.0000 0.0000 0.2500  plane waves:     816
 k-point 86 :   0.0833 0.0000 0.2500  plane waves:     823
 k-point 87 :   0.1667 0.0000 0.2500  plane waves:     821
 k-point 88 :   0.2500 0.0000 0.2500  plane waves:     823
 k-point 89 :   0.3333 0.0000 0.2500  plane waves:     828
 k-point 90 :   0.4167 0.0000 0.2500  plane waves:     827
 k-point 91 :   0.5000 0.0000 0.2500  plane waves:     824
 k-point 92 :   0.0833 0.0833 0.2500  plane waves:     822
 k-point 93 :   0.1667 0.0833 0.2500  plane waves:     821
 k-point 94 :   0.2500 0.0833 0.2500  plane waves:     821
 k-point 95 :   0.3333 0.0833 0.2500  plane waves:     832
 k-point 96 :   0.4167 0.0833 0.2500  plane waves:     826
 k-point 97 :   0.5000 0.0833 0.2500  plane waves:     822
 k-point 98 :   0.1667 0.1667 0.2500  plane waves:     825
 k-point 99 :   0.2500 0.1667 0.2500  plane waves:     825
 k-point ** :   0.3333 0.1667 0.2500  plane waves:     825
 k-point ** :   0.4167 0.1667 0.2500  plane waves:     821
 k-point ** :   0.5000 0.1667 0.2500  plane waves:     820
 k-point ** :   0.2500 0.2500 0.2500  plane waves:     829
 k-point ** :   0.3333 0.2500 0.2500  plane waves:     823
 k-point ** :   0.4167 0.2500 0.2500  plane waves:     820
 k-point ** :   0.5000 0.2500 0.2500  plane waves:     818
 k-point ** :   0.3333 0.3333 0.2500  plane waves:     821
 k-point ** :   0.4167 0.3333 0.2500  plane waves:     823
 k-point ** :   0.5000 0.3333 0.2500  plane waves:     824
 k-point ** :   0.4167 0.4167 0.2500  plane waves:     822
 k-point ** :   0.5000 0.4167 0.2500  plane waves:     828
 k-point ** :   0.5000 0.5000 0.2500  plane waves:     832
 k-point ** :   0.0000 0.0000 0.3333  plane waves:     824
 k-point ** :   0.0833 0.0000 0.3333  plane waves:     824
 k-point ** :   0.1667 0.0000 0.3333  plane waves:     830
 k-point ** :   0.2500 0.0000 0.3333  plane waves:     833
 k-point ** :   0.3333 0.0000 0.3333  plane waves:     830
 k-point ** :   0.4167 0.0000 0.3333  plane waves:     824
 k-point ** :   0.5000 0.0000 0.3333  plane waves:     820
 k-point ** :   0.0833 0.0833 0.3333  plane waves:     826
 k-point ** :   0.1667 0.0833 0.3333  plane waves:     824
 k-point ** :   0.2500 0.0833 0.3333  plane waves:     827
 k-point ** :   0.3333 0.0833 0.3333  plane waves:     827
 k-point ** :   0.4167 0.0833 0.3333  plane waves:     826
 k-point ** :   0.5000 0.0833 0.3333  plane waves:     820
 k-point ** :   0.1667 0.1667 0.3333  plane waves:     823
 k-point ** :   0.2500 0.1667 0.3333  plane waves:     822
 k-point ** :   0.3333 0.1667 0.3333  plane waves:     827
 k-point ** :   0.4167 0.1667 0.3333  plane waves:     822
 k-point ** :   0.5000 0.1667 0.3333  plane waves:     820
 k-point ** :   0.2500 0.2500 0.3333  plane waves:     828
 k-point ** :   0.3333 0.2500 0.3333  plane waves:     824
 k-point ** :   0.4167 0.2500 0.3333  plane waves:     824
 k-point ** :   0.5000 0.2500 0.3333  plane waves:     826
 k-point ** :   0.3333 0.3333 0.3333  plane waves:     819
 k-point ** :   0.4167 0.3333 0.3333  plane waves:     827
 k-point ** :   0.5000 0.3333 0.3333  plane waves:     826
 k-point ** :   0.4167 0.4167 0.3333  plane waves:     821
 k-point ** :   0.5000 0.4167 0.3333  plane waves:     828
 k-point ** :   0.5000 0.5000 0.3333  plane waves:     832
 k-point ** :   0.0000 0.0000 0.4167  plane waves:     824
 k-point ** :   0.0833 0.0000 0.4167  plane waves:     828
 k-point ** :   0.1667 0.0000 0.4167  plane waves:     832
 k-point ** :   0.2500 0.0000 0.4167  plane waves:     825
 k-point ** :   0.3333 0.0000 0.4167  plane waves:     830
 k-point ** :   0.4167 0.0000 0.4167  plane waves:     830
 k-point ** :   0.5000 0.0000 0.4167  plane waves:     816
 k-point ** :   0.0833 0.0833 0.4167  plane waves:     827
 k-point ** :   0.1667 0.0833 0.4167  plane waves:     827
 k-point ** :   0.2500 0.0833 0.4167  plane waves:     823
 k-point ** :   0.3333 0.0833 0.4167  plane waves:     827
 k-point ** :   0.4167 0.0833 0.4167  plane waves:     826
 k-point ** :   0.5000 0.0833 0.4167  plane waves:     824
 k-point ** :   0.1667 0.1667 0.4167  plane waves:     822
 k-point ** :   0.2500 0.1667 0.4167  plane waves:     818
 k-point ** :   0.3333 0.1667 0.4167  plane waves:     819
 k-point ** :   0.4167 0.1667 0.4167  plane waves:     825
 k-point ** :   0.5000 0.1667 0.4167  plane waves:     832
 k-point ** :   0.2500 0.2500 0.4167  plane waves:     820
 k-point ** :   0.3333 0.2500 0.4167  plane waves:     820
 k-point ** :   0.4167 0.2500 0.4167  plane waves:     824
 k-point ** :   0.5000 0.2500 0.4167  plane waves:     832
 k-point ** :   0.3333 0.3333 0.4167  plane waves:     826
 k-point ** :   0.4167 0.3333 0.4167  plane waves:     830
 k-point ** :   0.5000 0.3333 0.4167  plane waves:     832
 k-point ** :   0.4167 0.4167 0.4167  plane waves:     832
 k-point ** :   0.5000 0.4167 0.4167  plane waves:     838
 k-point ** :   0.5000 0.5000 0.4167  plane waves:     844
 k-point ** :   0.0000 0.0000 0.5000  plane waves:     820
 k-point ** :   0.0833 0.0000 0.5000  plane waves:     830
 k-point ** :   0.1667 0.0000 0.5000  plane waves:     826
 k-point ** :   0.2500 0.0000 0.5000  plane waves:     814
 k-point ** :   0.3333 0.0000 0.5000  plane waves:     824
 k-point ** :   0.4167 0.0000 0.5000  plane waves:     820
 k-point ** :   0.5000 0.0000 0.5000  plane waves:     840
 k-point ** :   0.0833 0.0833 0.5000  plane waves:     824
 k-point ** :   0.1667 0.0833 0.5000  plane waves:     824
 k-point ** :   0.2500 0.0833 0.5000  plane waves:     820
 k-point ** :   0.3333 0.0833 0.5000  plane waves:     824
 k-point ** :   0.4167 0.0833 0.5000  plane waves:     828
 k-point ** :   0.5000 0.0833 0.5000  plane waves:     828
 k-point ** :   0.1667 0.1667 0.5000  plane waves:     816
 k-point ** :   0.2500 0.1667 0.5000  plane waves:     820
 k-point ** :   0.3333 0.1667 0.5000  plane waves:     822
 k-point ** :   0.4167 0.1667 0.5000  plane waves:     828
 k-point ** :   0.5000 0.1667 0.5000  plane waves:     832
 k-point ** :   0.2500 0.2500 0.5000  plane waves:     820
 k-point ** :   0.3333 0.2500 0.5000  plane waves:     818
 k-point ** :   0.4167 0.2500 0.5000  plane waves:     828
 k-point ** :   0.5000 0.2500 0.5000  plane waves:     828
 k-point ** :   0.3333 0.3333 0.5000  plane waves:     828
 k-point ** :   0.4167 0.3333 0.5000  plane waves:     832
 k-point ** :   0.5000 0.3333 0.5000  plane waves:     836
 k-point ** :   0.4167 0.4167 0.5000  plane waves:     840
 k-point ** :   0.5000 0.4167 0.5000  plane waves:     832
 k-point ** :   0.5000 0.5000 0.5000  plane waves:     840

 maximum and minimum number of plane-waves per node :       226      187

 maximum number of plane-waves:       844
 maximum index in each direction: 
   IXMAX=    5   IYMAX=    5   IZMAX=    5
   IXMIN=   -6   IYMIN=   -6   IZMIN=   -6


 parallel 3D FFT for wavefunctions:
    minimum data exchange during FFTs selected (reduces bandwidth)
 parallel 3D FFT for charge:
    minimum data exchange during FFTs selected (reduces bandwidth)


 total amount of memory used by VASP MPI-rank0    37808. kBytes
=======================================================================

   base      :      30000. kBytes
   nonl-proj :       2686. kBytes
   fftplans  :        345. kBytes
   grid      :        481. kBytes
   one-center:          6. kBytes
   wavefun   :       4290. kBytes
 
     INWAV:  cpu time    0.0004: real time    0.0005
 Broyden mixing: mesh for mixing (old mesh)
   NGX = 11   NGY = 11   NGZ = 11
  (NGX  = 48   NGY  = 48   NGZ  = 48)
  gives a total of   1331 points

 initial charge density was supplied:
 charge density of overlapping atoms calculated
 number of electron      32.0000000 magnetization 
 keeping initial charge density in first step


--------------------------------------------------------------------------------------------------------


 Maximum index for augmentation-charges          277 (set IRDMAX)


--------------------------------------------------------------------------------------------------------


 First call to EWALD:  gamma=   0.497
 Maximum number of real-space cells 3x 3x 3
 Maximum number of reciprocal cells 3x 3x 3

    FEWALD:  cpu time    0.0054: real time    0.0054


--------------------------------------- Iteration      1(   1)  ---------------------------------------


    POTLOK:  cpu time    0.0264: real time    0.0305
    SETDIJ:  cpu time    0.0065: real time    0.0065
     EDDAV:  cpu time    8.9296: real time    8.9404
 BZINTS: Fermi energy: 18.686145; 32.000000 electrons
         Band energy: 122.519410;  BLOECHL correction: -0.172294
       DOS:  cpu time    0.4704: real time    0.4704
    --------------------------------------------
      LOOP:  cpu time    9.4330: real time    9.4479

 eigenvalue-minimisations  :  9408
 total energy-change (2. order) : 0.5715272E+02  (-0.1446800E+04)
 number of electron      32.0000000 magnetization 
 augmentation part       32.0000000 magnetization 

 Free energy of the ion-electron system (eV)
  ---------------------------------------------------
  alpha Z        PSCENC =       115.00660390
  Ewald energy   TEWEN  =     -1392.20707687
  -Hartree energ DENC   =       -70.38258168
  -exchange      EXHF   =         0.00000000
  -V(xc)+E(xc)   XCENC  =       114.40240782
  PAW double counting   =       302.65154477     -311.85538214
  entropy T*S    EENTRO =         0.00000000
  eigenvalues    EBANDS =       122.51941014
  atomic energy  EATOM  =      1177.01779097
  Solvation  Ediel_sol  =         0.00000000
  ---------------------------------------------------
  free energy    TOTEN  =        57.15271692 eV

  energy without entropy =       57.15271692  energy(sigma->0) =       57.15271692


--------------------------------------------------------------------------------------------------------




--------------------------------------- Iteration      1(   2)  ---------------------------------------


     EDDAV:  cpu time   11.2019: real time   11.2028
 BZINTS: Fermi energy:  9.043425; 32.000000 electrons
         Band energy:  -5.724057;  BLOECHL correction:  0.000000
       DOS:  cpu time    0.1227: real time    0.1227
    --------------------------------------------
      LOOP:  cpu time   11.3246: real time   11.3255

 eigenvalue-minimisations  : 13048
 total energy-change (2. order) :-0.1282435E+03  (-0.1218116E+03)
 number of electron      32.0000000 magnetization 
 augmentation part       32.0000000 magnetization 

 Free energy of the ion-electron system (eV)
  ---------------------------------------------------
  alpha Z        PSCENC =       115.00660390
  Ewald energy   TEWEN  =     -1392.20707687
  -Hartree energ DENC   =       -70.38258168
  -exchange      EXHF   =         0.00000000
  -V(xc)+E(xc)   XCENC  =       114.40240782
  PAW double counting   =       302.65154477     -311.85538214
  entropy T*S    EENTRO =         0.00000000
  eigenvalues    EBANDS =        -5.72405740
  atomic energy  EATOM  =      1177.01779097
  Solvation  Ediel_sol  =         0.00000000
  ---------------------------------------------------
  free energy    TOTEN  =       -71.09075062 eV

  energy without entropy =      -71.09075062  energy(sigma->0) =      -71.09075062


--------------------------------------------------------------------------------------------------------




--------------------------------------- Iteration      1(   3)  ---------------------------------------


     EDDAV:  cpu time   10.7660: real time   10.7691
 BZINTS: Fermi energy:  8.509985; 32.000000 electrons
         Band energy:  -9.868827;  BLOECHL correction:  0.000000
       DOS:  cpu time    0.1227: real time    0.1227
    --------------------------------------------
      LOOP:  cpu time   10.8887: real time   10.8918

 eigenvalue-minimisations  : 12144
 total energy-change (2. order) :-0.4144770E+01  (-0.4125744E+01)
 number of electron      32.0000000 magnetization 
 augmentation part       32.0000000 magnetization 

 Free energy of the ion-electron system (eV)
  ---------------------------------------------------
  alpha Z        PSCENC =       115.00660390
  Ewald energy   TEWEN  =     -1392.20707687
  -Hartree energ DENC   =       -70.38258168
  -exchange      EXHF   =         0.00000000
  -V(xc)+E(xc)   XCENC  =       114.40240782
  PAW double counting   =       302.65154477     -311.85538214
  entropy T*S    EENTRO =         0.00000000
  eigenvalues    EBANDS =        -9.86882698
  atomic energy  EATOM  =      1177.01779097
  Solvation  Ediel_sol  =         0.00000000
  ---------------------------------------------------
  free energy    TOTEN  =       -75.23552020 eV

  energy without entropy =      -75.23552020  energy(sigma->0) =      -75.23552020


--------------------------------------------------------------------------------------------------------




--------------------------------------- Iteration      1(   4)  ---------------------------------------


     EDDAV:  cpu time   10.5261: real time   10.5269
 BZINTS: Fermi energy:  8.438960; 32.000000 electrons
         Band energy:  -9.909667;  BLOECHL correction:  0.000000
       DOS:  cpu time    0.1092: real time    0.1092
    --------------------------------------------
      LOOP:  cpu time   10.6353: real time   10.6361

 eigenvalue-minimisations  : 11984
 total energy-change (2. order) :-0.4083963E-01  (-0.4080670E-01)
 number of electron      32.0000000 magnetization 
 augmentation part       32.0000000 magnetization 

 Free energy of the ion-electron system (eV)
  ---------------------------------------------------
  alpha Z        PSCENC =       115.00660390
  Ewald energy   TEWEN  =     -1392.20707687
  -Hartree energ DENC   =       -70.38258168
  -exchange      EXHF   =         0.00000000
  -V(xc)+E(xc)   XCENC  =       114.40240782
  PAW double counting   =       302.65154477     -311.85538214
  entropy T*S    EENTRO =         0.00000000
  eigenvalues    EBANDS =        -9.90966660
  atomic energy  EATOM  =      1177.01779097
  Solvation  Ediel_sol  =         0.00000000
  ---------------------------------------------------
  free energy    TOTEN  =       -75.27635983 eV

  energy without entropy =      -75.27635983  energy(sigma->0) =      -75.27635983


--------------------------------------------------------------------------------------------------------




--------------------------------------- Iteration      1(   5)  ---------------------------------------


     EDDAV:  cpu time   10.6121: real time   10.6130
 BZINTS: Fermi energy:  8.423684; 32.000000 electrons
         Band energy:  -9.910447;  BLOECHL correction:  0.000000
       DOS:  cpu time    0.1089: real time    0.1089
    CHARGE:  cpu time    0.2677: real time    0.2677
    MIXING:  cpu time    0.0017: real time    0.0017
    --------------------------------------------
      LOOP:  cpu time   10.9903: real time   10.9913

 eigenvalue-minimisations  : 12088
 total energy-change (2. order) :-0.7800585E-03  (-0.7796863E-03)
 number of electron      32.0000024 magnetization 
 augmentation part        0.7897522 magnetization 

 Broyden mixing:
  rms(total) = 0.95110E+00    rms(broyden)= 0.95093E+00
  rms(prec ) = 0.22380E+01
  weight for this iteration     100.00

 Free energy of the ion-electron system (eV)
  ---------------------------------------------------
  alpha Z        PSCENC =       115.00660390
  Ewald energy   TEWEN  =     -1392.20707687
  -Hartree energ DENC   =       -70.38258168
  -exchange      EXHF   =         0.00000000
  -V(xc)+E(xc)   XCENC  =       114.40240782
  PAW double counting   =       302.65154477     -311.85538214
  entropy T*S    EENTRO =         0.00000000
  eigenvalues    EBANDS =        -9.91044666
  atomic energy  EATOM  =      1177.01779097
  Solvation  Ediel_sol  =         0.00000000
  ---------------------------------------------------
  free energy    TOTEN  =       -75.27713988 eV

  energy without entropy =      -75.27713988  energy(sigma->0) =      -75.27713988


--------------------------------------------------------------------------------------------------------




--------------------------------------- Iteration      1(   6)  ---------------------------------------


    POTLOK:  cpu time    0.0200: real time    0.0203
    SETDIJ:  cpu time    0.0056: real time    0.0056
     EDDAV:  cpu time    9.8665: real time    9.8670
 BZINTS: Fermi energy:  9.153631; 32.000000 electrons
         Band energy:   6.302145;  BLOECHL correction:  0.000000
       DOS:  cpu time    0.1230: real time    0.1230
    CHARGE:  cpu time    0.2668: real time    0.2668
    MIXING:  cpu time    0.0015: real time    0.0015
    --------------------------------------------
      LOOP:  cpu time   10.2834: real time   10.2843

 eigenvalue-minimisations  : 10848
 total energy-change (2. order) : 0.1903410E+01  (-0.1259391E+00)
 number of electron      32.0000024 magnetization 
 augmentation part        0.7718634 magnetization 

 Broyden mixing:
  rms(total) = 0.52112E+00    rms(broyden)= 0.52110E+00
  rms(prec ) = 0.12095E+01
  weight for this iteration     100.00

 eigenvalues of (default mixing * dielectric matrix)
  average eigenvalue GAMMA=   2.1654
  2.1654

 Free energy of the ion-electron system (eV)
  ---------------------------------------------------
  alpha Z        PSCENC =       115.00660390
  Ewald energy   TEWEN  =     -1392.20707687
  -Hartree energ DENC   =       -85.57101287
  -exchange      EXHF   =         0.00000000
  -V(xc)+E(xc)   XCENC  =       115.82530128
  PAW double counting   =       394.26123751     -404.00871894
  entropy T*S    EENTRO =         0.00000000
  eigenvalues    EBANDS =         6.30214528
  atomic energy  EATOM  =      1177.01779097
  Solvation  Ediel_sol  =         0.00000000
  ---------------------------------------------------
  free energy    TOTEN  =       -73.37372975 eV

  energy without entropy =      -73.37372975  energy(sigma->0) =      -73.37372975


--------------------------------------------------------------------------------------------------------




--------------------------------------- Iteration      1(   7)  ---------------------------------------


    POTLOK:  cpu time    0.0197: real time    0.0202
    SETDIJ:  cpu time    0.0057: real time    0.0057
     EDDAV:  cpu time    9.9076: real time    9.9081
 BZINTS: Fermi energy:  9.846334; 32.000000 electrons
         Band energy:  25.016609;  BLOECHL correction:  0.000000
       DOS:  cpu time    0.1095: real time    0.1095
    CHARGE:  cpu time    0.2626: real time    0.2626
    MIXING:  cpu time    0.0020: real time    0.0020
    --------------------------------------------
      LOOP:  cpu time   10.3071: real time   10.3080

 eigenvalue-minimisations  : 10968
 total energy-change (2. order) : 0.6429147E+00  (-0.1420659E+00)
 number of electron      32.0000023 magnetization 
 augmentation part        0.7525565 magnetization 

 Broyden mixing:
  rms(total) = 0.69655E-01    rms(broyden)= 0.69325E-01
  rms(prec ) = 0.12086E+00
  weight for this iteration     100.00

 eigenvalues of (default mixing * dielectric matrix)
  average eigenvalue GAMMA=   2.2686
  2.0018  2.5353

 Free energy of the ion-electron system (eV)
  ---------------------------------------------------
  alpha Z        PSCENC =       115.00660390
  Ewald energy   TEWEN  =     -1392.20707687
[...]

 k-point   184 :       0.3333    0.1667    0.5000
  band No.  band energies     occupation 
      1      -8.2315      2.00000
      2      -8.2315      2.00000
      3      -5.5150      2.00000
      4      -5.5150      2.00000
      5      -1.8005      2.00000
      6      -1.8005      2.00000
      7       0.7693      2.00000
      8       0.7693      2.00000
      9       3.0951      2.00000
     10       3.0951      2.00000
     11       5.2337      2.00000
     12       5.2337      2.00000
     13       5.4791      2.00000
     14       5.4791      2.00000
     15       6.9327      2.00000
     16       6.9327      2.00000
     17      17.4967      0.00000
     18      17.4967      0.00000
     19      17.6912      0.00000
     20      17.6912      0.00000
     21      19.0656      0.00000
     22      19.0656      0.00000
     23      19.5032      0.00000
     24      19.5032      0.00000

 k-point   185 :       0.4167    0.1667    0.5000
  band No.  band energies     occupation 
      1      -7.6899      2.00000
      2      -7.6899      2.00000
      3      -6.3073      2.00000
      4      -6.3073      2.00000
      5      -1.3506      2.00000
      6      -1.3506      2.00000
      7      -0.0393      2.00000
      8      -0.0393      2.00000
      9       3.6031      2.00000
     10       3.6031      2.00000
     11       4.6900      2.00000
     12       4.6900      2.00000
     13       6.2400      2.00000
     14       6.2400      2.00000
     15       6.9868      2.00000
     16       6.9868      2.00000
     17      17.5728      0.00000
     18      17.5728      0.00000
     19      18.1672      0.00000
     20      18.1672      0.00000
     21      18.6959      0.00000
     22      18.6959      0.00000
     23      19.5277      0.00000
     24      19.5277      0.00000

 k-point   186 :       0.5000    0.1667    0.5000
  band No.  band energies     occupation 
      1      -7.0432      2.00000
      2      -7.0432      2.00000
      3      -7.0432      2.00000
      4      -7.0432      2.00000
      5      -0.7536      2.00000
      6      -0.7536      2.00000
      7      -0.7536      2.00000
      8      -0.7536      2.00000
      9       4.1373      2.00000
     10       4.1373      2.00000
     11       4.1373      2.00000
     12       4.1373      2.00000
     13       6.7599      2.00000
     14       6.7599      2.00000
     15       6.7599      2.00000
     16       6.7599      2.00000
     17      17.7651      0.00000
     18      17.7651      0.00000
     19      17.7651      0.00000
     20      17.7651      0.00000
     21      19.3470      0.00000
     22      19.3470      0.00000
     23      19.3470      0.00000
     24      19.3470      0.00000

 k-point   187 :       0.2500    0.2500    0.5000
  band No.  band energies     occupation 
      1      -8.3542      2.00000
      2      -8.3542      2.00000
      3      -4.9226      2.00000
      4      -4.9226      2.00000
      5      -2.5952      2.00000
      6      -2.5952      2.00000
      7       0.6743      2.00000
      8       0.6743      2.00000
      9       3.5131      2.00000
     10       3.5131      2.00000
     11       5.0524      2.00000
     12       5.0524      2.00000
     13       6.3286      2.00000
     14       6.3286      2.00000
     15       6.4680      2.00000
     16       6.4680      2.00000
     17      16.8981      0.00000
     18      16.8981      0.00000
     19      18.0013      0.00000
     20      18.0013      0.00000
     21      19.0442      0.00000
     22      19.0442      0.00000
     23      19.7873      0.00000
     24      19.7930      0.00000

 k-point   188 :       0.3333    0.2500    0.5000
  band No.  band energies     occupation 
      1      -7.9330      2.00000
      2      -7.9330      2.00000
      3      -5.4162      2.00000
      4      -5.4162      2.00000
      5      -2.6554      2.00000
      6      -2.6554      2.00000
      7      -0.2403      2.00000
      8      -0.2403      2.00000
      9       4.2093      2.00000
     10       4.2093      2.00000
     11       5.7018      2.00000
     12       5.7018      2.00000
     13       6.0736      2.00000
     14       6.0736      2.00000
     15       6.8341      2.00000
     16       6.8341      2.00000
     17      17.4522      0.00000
     18      17.4522      0.00000
     19      17.8370      0.00000
     20      17.8370      0.00000
     21      18.9396      0.00000
     22      18.9396      0.00000
     23      19.1152      0.00000
     24      19.1155      0.00000

 k-point   189 :       0.4167    0.2500    0.5000
  band No.  band energies     occupation 
      1      -7.4030      2.00000
      2      -7.4030      2.00000
      3      -6.0910      2.00000
      4      -6.0910      2.00000
      5      -2.3283      2.00000
      6      -2.3283      2.00000
      7      -1.0651      2.00000
      8      -1.0651      2.00000
      9       4.7501      2.00000
     10       4.7501      2.00000
     11       5.6768      2.00000
     12       5.6768      2.00000
     13       6.3568      2.00000
     14       6.3568      2.00000
     15       6.9789      2.00000
     16       6.9789      2.00000
     17      17.7590      0.00000
     18      17.7590      0.00000
     19      18.0855      0.00000
     20      18.0855      0.00000
     21      18.6003      0.00000
     22      18.6003      0.00000
     23      18.9941      0.00000
     24      18.9942      0.00000

 k-point   190 :       0.5000    0.2500    0.5000
  band No.  band energies     occupation 
      1      -6.7786      2.00000
      2      -6.7786      2.00000
      3      -6.7786      2.00000
      4      -6.7786      2.00000
      5      -1.7729      2.00000
      6      -1.7729      2.00000
      7      -1.7729      2.00000
      8      -1.7729      2.00000
      9       5.2302      2.00000
     10       5.2302      2.00000
     11       5.2302      2.00000
     12       5.2302      2.00000
     13       6.8164      2.00000
     14       6.8164      2.00000
     15       6.8164      2.00000
     16       6.8164      2.00000
     17      17.9150      0.00000
     18      17.9150      0.00000
     19      17.9150      0.00000
     20      17.9150      0.00000
     21      18.9356      0.00000
     22      18.9356      0.00000
     23      18.9356      0.00000
     24      18.9356      0.00000

 k-point   191 :       0.3333    0.3333    0.5000
  band No.  band energies     occupation 
      1      -7.5237      2.00000
      2      -7.5237      2.00000
      3      -5.4865      2.00000
      4      -5.4865      2.00000
      5      -3.1459      2.00000
      6      -3.1459      2.00000
      7      -1.1721      2.00000
      8      -1.1721      2.00000
      9       5.1367      2.00000
     10       5.1367      2.00000
     11       6.0427      2.00000
     12       6.0427      2.00000
     13       6.6702      2.00000
     14       6.6702      2.00000
     15       6.6753      2.00000
     16       6.6753      2.00000
     17      17.6316      0.00000
     18      17.6316      0.00000
     19      17.9517      0.00000
     20      17.9517      0.00000
     21      18.5849      0.00000
     22      18.5850      0.00000
     23      19.1155      0.00000
     24      19.1170      0.00000

 k-point   192 :       0.4167    0.3333    0.5000
  band No.  band energies     occupation 
      1      -7.0167      2.00000
      2      -7.0167      2.00000
      3      -5.8739      2.00000
      4      -5.8739      2.00000
      5      -3.1053      2.00000
      6      -3.1053      2.00000
      7      -1.9929      2.00000
      8      -1.9929      2.00000
      9       5.7549      2.00000
     10       5.7549      2.00000
     11       6.4464      2.00000
     12       6.4464      2.00000
     13       6.5003      2.00000
     14       6.5003      2.00000
     15       6.9527      2.00000
     16       6.9527      2.00000
     17      17.9732      0.00000
     18      17.9732      0.00000
     19      18.0086      0.00000
     20      18.0086      0.00000
     21      18.5404      0.00000
     22      18.5404      0.00000
     23      18.5955      0.00000
     24      18.5955      0.00000

 k-point   193 :       0.5000    0.3333    0.5000
  band No.  band energies     occupation 
      1      -6.4416      2.00000
      2      -6.4416      2.00000
      3      -6.4416      2.00000
      4      -6.4416      2.00000
      5      -2.6642      2.00000
      6      -2.6642      2.00000
      7      -2.6642      2.00000
      8      -2.6642      2.00000
      9       6.1494      2.00000
     10       6.1494      2.00000
     11       6.1494      2.00000
     12       6.1494      2.00000
     13       6.8762      2.00000
     14       6.8762      2.00000
     15       6.8762      2.00000
     16       6.8762      2.00000
     17      18.0670      0.00000
     18      18.0670      0.00000
     19      18.0670      0.00000
     20      18.0670      0.00000
     21      18.5605      0.00000
     22      18.5605      0.00000
     23      18.5605      0.00000
     24      18.5605      0.00000

 k-point   194 :       0.4167    0.4167    0.5000
  band No.  band energies     occupation 
      1      -6.5592      2.00000
      2      -6.5592      2.00000
      3      -5.8281      2.00000
      4      -5.8281      2.00000
      5      -3.4948      2.00000
      6      -3.4948      2.00000
      7      -2.7781      2.00000
      8      -2.7781      2.00000
      9       6.4946      2.00000
     10       6.4946      2.00000
     11       6.6688      2.00000
     12       6.6688      2.00000
     13       6.8229      2.00000
     14       6.8229      2.00000
     15       6.9549      2.00000
     16       6.9549      2.00000
     17      18.0597      0.00000
     18      18.0597      0.00000
     19      18.1550      0.00000
     20      18.1550      0.00000
     21      18.2736      0.00000
     22      18.2736      0.00000
     23      18.5081      0.00000
     24      18.5083      0.00000

 k-point   195 :       0.5000    0.4167    0.5000
  band No.  band energies     occupation 
      1      -6.1045      2.00000
      2      -6.1045      2.00000
      3      -6.1045      2.00000
      4      -6.1045      2.00000
      5      -3.3384      2.00000
      6      -3.3384      2.00000
      7      -3.3384      2.00000
      8      -3.3384      2.00000
      9       6.7553      2.00000
     10       6.7553      2.00000
     11       6.7553      2.00000
     12       6.7553      2.00000
     13       6.9495      2.00000
     14       6.9495      2.00000
     15       6.9495      2.00000
     16       6.9495      2.00000
     17      18.1474      0.00000
     18      18.1474      0.00000
     19      18.1475      0.00000
     20      18.1475      0.00000
     21      18.3236      0.00000
     22      18.3236      0.00000
     23      18.3236      0.00000
     24      18.3236      0.00000

 k-point   196 :       0.5000    0.5000    0.5000
  band No.  band energies     occupation 
      1      -5.9424      2.00000
      2      -5.9424      2.00000
      3      -5.9424      2.00000
      4      -5.9424      2.00000
      5      -3.6137      2.00000
      6      -3.6137      2.00000
      7      -3.6137      2.00000
      8      -3.6137      2.00000
      9       6.8822      2.00000
     10       6.8822      2.00000
     11       6.8822      2.00000
     12       6.8822      2.00000
     13       7.0640      2.00000
     14       7.0640      2.00000
     15       7.0640      2.00000
     16       7.0640      2.00000
     17      18.1261      0.00000
     18      18.1261      0.00000
     19      18.1261      0.00000
     20      18.1261      0.00000
     21      18.2807      0.00000
     22      18.2807      0.00000
     23      18.2807      0.00000
     24      18.2807      0.00000


--------------------------------------------------------------------------------------------------------


 soft charge-density along one line, spin component           1
         0         1         2         3         4         5         6         7         8         9
 total charge-density along one line
 
 pseudopotential strength for first ion, spin component:           1
  9.438  -0.005   0.000   0.000   0.000  -0.000  -0.000  -0.000
 -0.005  -0.002  -0.000  -0.000  -0.000  -0.000  -0.000  -0.000
  0.000  -0.000  -3.658   0.000  -0.000  -0.009   0.000  -0.000
  0.000  -0.000   0.000  -3.659   0.000   0.000  -0.009   0.000
  0.000  -0.000  -0.000   0.000  -3.658  -0.000   0.000  -0.009
 -0.000  -0.000  -0.009   0.000  -0.000  -0.757   0.000  -0.000
 -0.000  -0.000   0.000  -0.009   0.000   0.000  -0.757   0.000
 -0.000  -0.000  -0.000   0.000  -0.009  -0.000   0.000  -0.757
 total augmentation occupancy for first ion, spin component:           1
  1.424  -1.038   0.000  -0.000   0.000   0.000   0.000   0.000
 -1.038   1.037  -0.000   0.000   0.000   0.000   0.000  -0.000
 -0.000   0.000   1.101  -0.000  -0.000   0.185   0.000   0.000
 -0.000   0.000   0.000   1.098  -0.000   0.000   0.186   0.000
 -0.000   0.000   0.000   0.000   1.101   0.000   0.000   0.185
  0.000   0.000   0.185  -0.000   0.000   0.037   0.000  -0.000
  0.000   0.000   0.000   0.186   0.000  -0.000   0.037  -0.000
  0.000  -0.000  -0.000   0.000   0.185   0.000   0.000   0.037


------------------------ aborting loop because EDIFF is reached ----------------------------------------


    CHARGE:  cpu time    0.2665: real time    0.2665
    FORLOC:  cpu time    0.0016: real time    0.0016
    FORNL :  cpu time    0.4486: real time    0.4486
    STRESS:  cpu time    1.0593: real time    1.0595
    FORHAR:  cpu time    0.0060: real time    0.0060
    MIXING:  cpu time    0.0016: real time    0.0016
    OFIELD:  cpu time    0.0001: real time    0.0001

  FORCE on cell =-STRESS in cart. coord.  units (eV):
  Direction    XX          YY          ZZ          XY          YZ          ZX
  --------------------------------------------------------------------------------------
  Alpha Z   115.00660   115.00660   115.00660
  Ewald    -466.21847  -466.21847  -459.77253     0.00000     0.00000    -0.00000
  Hartree    34.68870    34.68870    36.04434    -0.00000    -0.00000    -0.00000
  E(xc)    -119.74981  -119.74981  -119.70367     0.00000    -0.00000     0.00000
  Local     -44.16605   -44.16605   -51.44246    -0.00000     0.00000     0.00000
  n-local   -28.42979   -28.65081   -28.23818     0.62851     0.66698     0.57042
  augment    -2.84828    -2.84828    -2.85331     0.00000     0.00000    -0.00000
  Kinetic   506.01048   518.61993   508.75702    -4.84288    -5.41461    -4.15812
  Fock        0.00000     0.00000     0.00000     0.00000     0.00000     0.00000
  -------------------------------------------------------------------------------------
  Total       0.48759     0.48759    -2.20220     0.00000     0.00000     0.00000
  in kB      17.22902    17.22902   -77.81413     0.00000     0.00000     0.00000
  external pressure =      -14.45 kB  Pullay stress =        0.00 kB


 VOLUME and BASIS-vectors are now :
 -----------------------------------------------------------------------------
  energy-cutoff  :      400.00
  volume of cell :       45.34
      direct lattice vectors                 reciprocal lattice vectors
     3.553917641  0.000000000  0.000000000     0.281379621  0.000000000  0.000000000
     0.000000000  3.553917641  0.000000000     0.000000000  0.281379621  0.000000000
     0.000000000  0.000000000  3.589999359     0.000000000  0.000000000  0.278551582

  length of vectors
     3.553917641  3.553917641  3.589999359     0.281379621  0.281379621  0.278551582


 FORCES acting on ions
    electron-ion (+dipol)            ewald-force                    non-local-force                 convergence-correction
 -----------------------------------------------------------------------------------------------
   0.240E-13 -.159E-12 0.257E-14   0.213E-13 -.142E-13 -.711E-14   0.875E-17 0.684E-18 -.506E-17   0.487E-15 -.156E-14 -.288E-14
   -.240E-13 0.121E-14 0.121E-13   0.201E-13 -.824E-14 -.213E-13   -.190E-16 -.208E-17 0.228E-17   0.114E-14 0.452E-14 0.101E-13
   0.240E-13 -.172E-12 0.137E-13   0.711E-14 -.711E-14 0.142E-13   0.592E-17 0.651E-17 -.472E-17   0.930E-15 0.118E-14 -.240E-14
   -.240E-13 0.223E-13 -.983E-14   0.844E-14 0.327E-16 -.109E-14   -.456E-17 0.174E-17 -.567E-17   0.411E-15 0.502E-14 0.126E-13
   0.560E-13 0.197E-12 0.378E-12   0.711E-14 0.000E+00 0.000E+00   0.951E-17 -.230E-17 -.686E-17   0.708E-14 -.212E-14 -.249E-14
   0.000E+00 0.463E-14 -.416E-12   -.142E-13 0.649E-14 -.153E-13   0.747E-17 0.166E-17 -.152E-17   -.689E-14 0.531E-14 0.124E-13
   0.480E-13 -.192E-12 -.743E-14   -.142E-13 0.711E-14 0.213E-13   0.242E-17 0.603E-17 0.684E-17   0.661E-14 0.188E-14 -.352E-14
   -.800E-14 0.380E-12 0.104E-13   -.356E-13 0.143E-13 0.716E-14   0.749E-17 -.191E-17 0.479E-17   -.646E-14 0.485E-14 0.989E-14
 -----------------------------------------------------------------------------------------------
   0.960E-13 0.819E-13 -.160E-13   0.307E-16 -.163E-14 -.213E-14   0.180E-16 0.103E-16 -.993E-17   0.332E-14 0.191E-13 0.337E-13
 
 
 POSITION                                       TOTAL-FORCE (eV/Angst)
 -----------------------------------------------------------------------------------
      0.88848      2.66544      0.89750         0.000000      0.000000     -0.000000
      0.00000      0.00000      1.79500         0.000000      0.000000      0.000000
      0.88848      0.88848      2.69250        -0.000000     -0.000000     -0.000000
      0.00000      1.77696      0.00000        -0.000000     -0.000000     -0.000000
      2.66544      2.66544      2.69250        -0.000000     -0.000000     -0.000000
      1.77696      0.00000      0.00000        -0.000000     -0.000000     -0.000000
      2.66544      0.88848      0.89750         0.000000      0.000000     -0.000000
      1.77696      1.77696      1.79500         0.000000      0.000000      0.000000
 -----------------------------------------------------------------------------------
    total drift:                                0.000000      0.000000      0.000000


--------------------------------------------------------------------------------------------------------



  FREE ENERGIE OF THE ION-ELECTRON SYSTEM (eV)
  ---------------------------------------------------
  free  energy   TOTEN  =       -72.73853852 eV

  energy  without entropy=      -72.73853852  energy(sigma->0) =      -72.73853852
 


--------------------------------------------------------------------------------------------------------


    POTLOK:  cpu time    0.0283: real time    0.0283


--------------------------------------------------------------------------------------------------------


     LOOP+:  cpu time  117.3865: real time  117.4204
    4ORBIT:  cpu time    0.0000: real time    0.0000
 BZINTS: Fermi energy:  9.848380; 32.000000 electrons
         Band energy:  25.281176;  BLOECHL correction:  0.000000

 total amount of memory used by VASP MPI-rank0    37808. kBytes
=======================================================================

   base      :      30000. kBytes
   nonl-proj :       2686. kBytes
   fftplans  :        345. kBytes
   grid      :        481. kBytes
   one-center:          6. kBytes
   wavefun   :       4290. kBytes
 
  
  
 General timing and accounting informations for this job:
 ========================================================
  
                  Total CPU time used (sec):      121.046
                            User time (sec):      117.130
                          System time (sec):        3.916
                         Elapsed time (sec):      121.260
  
                   Maximum memory used (kb):      193692.
                   Average memory used (kb):           0.
  
                          Minor page faults:        36892
                          Major page faults:           36
                 Voluntary context switches:          784
