  64  64   0   0
  0.6133989E+01  0.7322190E-09  0.7322190E-09  0.7322190E-09  0.5000000E-15
  1.000000000000000E-004
  CAR 
 unknown system                          
     21.23383319    -13.37393363  301      9.01296554      1.00000000
    -13.374  0.0000E+00  0.0000E+00
    -13.259  0.0000E+00  0.0000E+00
    -13.143  0.0000E+00  0.0000E+00
    -13.028  0.0000E+00  0.0000E+00
    -12.912  0.0000E+00  0.0000E+00
    -12.797  0.0000E+00  0.0000E+00
    -12.682  0.0000E+00  0.0000E+00
    -12.566  0.0000E+00  0.0000E+00
    -12.451  0.0000E+00  0.0000E+00
    -12.336  0.0000E+00  0.0000E+00
    -12.220  0.0000E+00  0.0000E+00
    -12.105  0.3045E-13  0.3513E-14
    -11.990  0.3467E-06  0.3999E-07
    -11.874  0.3734E-02  0.4308E-03
    -11.759  0.2517E+00  0.2947E-01
    -11.644  0.1263E+01  0.1752E+00
    -11.528  0.1487E+01  0.3468E+00
    -11.413  0.2916E+01  0.6831E+00
    -11.297  0.1632E+01  0.8714E+00
    -11.182  0.3677E+01  0.1296E+01
    -11.067  0.2987E+01  0.1640E+01
    -10.951  0.3989E+01  0.2100E+01
    -10.836  0.2445E+01  0.2382E+01
    -10.721  0.4816E+01  0.2938E+01
    -10.605  0.4535E+01  0.3461E+01
    -10.490  0.5218E+01  0.4063E+01
    -10.375  0.2488E+01  0.4350E+01
    -10.259  0.4919E+01  0.4918E+01
    -10.144  0.6537E+01  0.5672E+01
    -10.029  0.5860E+01  0.6348E+01
     -9.913  0.4490E+01  0.6866E+01
     -9.798  0.4410E+01  0.7374E+01
     -9.682  0.7137E+01  0.8198E+01
     -9.567  0.5326E+01  0.8812E+01
     -9.452  0.5687E+01  0.9468E+01
     -9.336  0.7326E+01  0.1031E+02
     -9.221  0.7496E+01  0.1118E+02
     -9.106  0.6522E+01  0.1193E+02
     -8.990  0.5458E+01  0.1256E+02
     -8.875  0.4397E+01  0.1307E+02
     -8.760  0.9525E+01  0.1417E+02
     -8.644  0.7980E+01  0.1509E+02
     -8.529  0.9445E+01  0.1618E+02
     -8.413  0.6272E+01  0.1690E+02
     -8.298  0.6759E+01  0.1768E+02
     -8.183  0.7839E+01  0.1858E+02
     -8.067  0.7617E+01  0.1946E+02
     -7.952  0.7698E+01  0.2035E+02
     -7.837  0.1079E+02  0.2160E+02
     -7.721  0.1037E+02  0.2279E+02
     -7.606  0.5229E+01  0.2339E+02
     -7.491  0.9120E+01  0.2445E+02
     -7.375  0.1391E+02  0.2605E+02
     -7.260  0.8480E+01  0.2703E+02
     -7.145  0.5371E+01  0.2765E+02
     -7.029  0.1015E+02  0.2882E+02
     -6.914  0.1060E+02  0.3004E+02
     -6.798  0.1119E+02  0.3133E+02
     -6.683  0.1386E+02  0.3293E+02
     -6.568  0.1170E+02  0.3428E+02
     -6.452  0.1391E+02  0.3589E+02
     -6.337  0.1138E+02  0.3720E+02
     -6.222  0.7173E+01  0.3803E+02
     -6.106  0.1583E+02  0.3985E+02
     -5.991  0.1566E+02  0.4166E+02
     -5.876  0.1010E+02  0.4283E+02
     -5.760  0.8444E+01  0.4380E+02
     -5.645  0.1595E+02  0.4564E+02
     -5.530  0.1081E+02  0.4689E+02
     -5.414  0.1331E+02  0.4842E+02
     -5.299  0.7146E+01  0.4925E+02
     -5.183  0.1160E+02  0.5058E+02
     -5.068  0.1181E+02  0.5195E+02
     -4.953  0.4681E+01  0.5249E+02
     -4.837  0.8677E+01  0.5349E+02
     -4.722  0.1301E+02  0.5499E+02
     -4.607  0.5067E+01  0.5557E+02
     -4.491  0.7468E+01  0.5643E+02
     -4.376  0.1261E+02  0.5789E+02
     -4.261  0.1044E+02  0.5909E+02
     -4.145  0.9149E+01  0.6015E+02
     -4.030  0.3315E+01  0.6053E+02
     -3.914  0.4574E+01  0.6106E+02
     -3.799  0.5656E+01  0.6171E+02
     -3.684  0.3607E+01  0.6213E+02
     -3.568  0.7645E+01  0.6301E+02
     -3.453  0.1294E+02  0.6450E+02
     -3.338  0.9930E+01  0.6565E+02
     -3.222  0.6079E+01  0.6635E+02
     -3.107  0.1073E+02  0.6759E+02
     -2.992  0.9877E+01  0.6873E+02
     -2.876  0.9385E+01  0.6981E+02
     -2.761  0.8072E+01  0.7074E+02
     -2.646  0.1118E+02  0.7203E+02
     -2.530  0.1259E+02  0.7348E+02
     -2.415  0.1176E+02  0.7484E+02
     -2.299  0.1951E+02  0.7709E+02
     -2.184  0.4380E+02  0.8214E+02
     -2.069  0.2427E+02  0.8494E+02
     -1.953  0.6532E+01  0.8569E+02
     -1.838  0.1506E+02  0.8743E+02
     -1.723  0.1507E+02  0.8917E+02
     -1.607  0.6853E+01  0.8996E+02
     -1.492  0.9533E+01  0.9106E+02
     -1.377  0.1616E+02  0.9292E+02
     -1.261  0.1130E+02  0.9423E+02
     -1.146  0.9993E+01  0.9538E+02
     -1.030  0.1030E+02  0.9657E+02
     -0.915  0.1420E+02  0.9821E+02
     -0.800  0.1685E+02  0.1002E+03
     -0.684  0.5988E+01  0.1008E+03
     -0.569  0.4920E+01  0.1014E+03
     -0.454  0.4047E+01  0.1019E+03
     -0.338  0.6100E+01  0.1026E+03
     -0.223  0.1543E+02  0.1044E+03
     -0.108  0.6975E+01  0.1052E+03
      0.008  0.6983E+01  0.1060E+03
      0.123  0.1208E+02  0.1074E+03
      0.238  0.9158E+01  0.1084E+03
      0.354  0.1604E+02  0.1103E+03
      0.469  0.2198E+02  0.1128E+03
      0.585  0.1611E+02  0.1147E+03
      0.700  0.1582E+02  0.1165E+03
      0.815  0.1272E+02  0.1180E+03
      0.931  0.1701E+02  0.1199E+03
      1.046  0.1997E+02  0.1222E+03
      1.161  0.1528E+02  0.1240E+03
      1.277  0.2337E+02  0.1267E+03
      1.392  0.2155E+02  0.1292E+03
      1.507  0.6339E+01  0.1299E+03
      1.623  0.1755E+02  0.1319E+03
      1.738  0.2213E+02  0.1345E+03
      1.853  0.2762E+02  0.1377E+03
      1.969  0.1509E+02  0.1394E+03
      2.084  0.1170E+02  0.1408E+03
      2.200  0.1747E+02  0.1428E+03
      2.315  0.2121E+02  0.1452E+03
      2.430  0.2371E+02  0.1480E+03
      2.546  0.2396E+02  0.1507E+03
      2.661  0.2207E+02  0.1533E+03
      2.776  0.2942E+02  0.1567E+03
      2.892  0.2622E+02  0.1597E+03
      3.007  0.2294E+02  0.1623E+03
      3.122  0.1438E+02  0.1640E+03
      3.238  0.3022E+02  0.1675E+03
      3.353  0.2900E+02  0.1708E+03
      3.469  0.4078E+02  0.1755E+03
      3.584  0.2663E+02  0.1786E+03
      3.699  0.1241E+02  0.1800E+03
      3.815  0.2241E+02  0.1826E+03
      3.930  0.3179E+02  0.1863E+03
      4.045  0.1979E+02  0.1886E+03
      4.161  0.2425E+02  0.1914E+03
      4.276  0.3146E+02  0.1950E+03
      4.391  0.2626E+02  0.1980E+03
      4.507  0.1898E+02  0.2002E+03
      4.622  0.2433E+02  0.2030E+03
      4.737  0.2339E+02  0.2057E+03
      4.853  0.2297E+02  0.2084E+03
      4.968  0.2741E+02  0.2115E+03
      5.084  0.1792E+02  0.2136E+03
      5.199  0.1949E+02  0.2158E+03
      5.314  0.2485E+02  0.2187E+03
      5.430  0.2607E+02  0.2217E+03
      5.545  0.2601E+02  0.2247E+03
      5.660  0.2255E+02  0.2273E+03
      5.776  0.1614E+02  0.2292E+03
      5.891  0.1348E+02  0.2307E+03
      6.006  0.2356E+02  0.2335E+03
      6.122  0.2996E+02  0.2369E+03
      6.237  0.2078E+02  0.2393E+03
      6.352  0.6662E+01  0.2401E+03
      6.468  0.1224E+02  0.2415E+03
      6.583  0.1508E+02  0.2432E+03
      6.699  0.8774E+01  0.2442E+03
      6.814  0.1401E+02  0.2459E+03
      6.929  0.1254E+02  0.2473E+03
      7.045  0.6825E+01  0.2481E+03
      7.160  0.8713E+01  0.2491E+03
      7.275  0.7011E+01  0.2499E+03
      7.391  0.7849E+01  0.2508E+03
      7.506  0.7762E+01  0.2517E+03
      7.621  0.5566E+01  0.2523E+03
      7.737  0.4086E+01  0.2528E+03
      7.852  0.6993E+01  0.2536E+03
      7.968  0.5485E+01  0.2543E+03
      8.083  0.3230E+01  0.2546E+03
      8.198  0.2107E+01  0.2549E+03
      8.314  0.3729E+01  0.2553E+03
      8.429  0.3691E+01  0.2557E+03
      8.544  0.1159E+01  0.2559E+03
      8.660  0.9782E+00  0.2560E+03
      8.775  0.2268E+00  0.2560E+03
      8.890  0.2168E-02  0.2560E+03
      9.006  0.4369E-07  0.2560E+03
      9.121  0.6951E-15  0.2560E+03
      9.236  0.0000E+00  0.2560E+03
      9.352  0.0000E+00  0.2560E+03
      9.467  0.0000E+00  0.2560E+03
      9.583  0.0000E+00  0.2560E+03
      9.698  0.0000E+00  0.2560E+03
      9.813  0.0000E+00  0.2560E+03
      9.929  0.0000E+00  0.2560E+03
     10.044  0.0000E+00  0.2560E+03
     10.159  0.0000E+00  0.2560E+03
     10.275  0.0000E+00  0.2560E+03
     10.390  0.0000E+00  0.2560E+03
     10.505  0.0000E+00  0.2560E+03
     10.621  0.0000E+00  0.2560E+03
     10.736  0.0000E+00  0.2560E+03
     10.852  0.0000E+00  0.2560E+03
     10.967  0.0000E+00  0.2560E+03
     11.082  0.0000E+00  0.2560E+03
     11.198  0.0000E+00  0.2560E+03
     11.313  0.0000E+00  0.2560E+03
     11.428  0.0000E+00  0.2560E+03
     11.544  0.0000E+00  0.2560E+03
     11.659  0.0000E+00  0.2560E+03
     11.774  0.0000E+00  0.2560E+03
     11.890  0.0000E+00  0.2560E+03
     12.005  0.0000E+00  0.2560E+03
     12.120  0.0000E+00  0.2560E+03
     12.236  0.0000E+00  0.2560E+03
     12.351  0.5277E-10  0.2560E+03
     12.467  0.8059E-04  0.2560E+03
     12.582  0.1347E+00  0.2560E+03
     12.697  0.1032E+01  0.2561E+03
     12.813  0.8743E+00  0.2562E+03
     12.928  0.3941E+01  0.2567E+03
     13.043  0.4897E+01  0.2573E+03
     13.159  0.6814E+01  0.2580E+03
     13.274  0.6451E+01  0.2588E+03
     13.389  0.3654E+01  0.2592E+03
     13.505  0.3664E+01  0.2596E+03
     13.620  0.9066E+01  0.2607E+03
     13.735  0.2298E+02  0.2633E+03
     13.851  0.9347E+01  0.2644E+03
     13.966  0.1025E+02  0.2656E+03
     14.082  0.1050E+02  0.2668E+03
     14.197  0.1599E+02  0.2686E+03
     14.312  0.1212E+02  0.2700E+03
     14.428  0.1306E+02  0.2715E+03
     14.543  0.2097E+02  0.2740E+03
     14.658  0.1820E+02  0.2761E+03
     14.774  0.2207E+02  0.2786E+03
     14.889  0.1493E+02  0.2803E+03
     15.004  0.1800E+02  0.2824E+03
     15.120  0.2099E+02  0.2848E+03
     15.235  0.2214E+02  0.2874E+03
     15.351  0.2553E+02  0.2903E+03
     15.466  0.1221E+02  0.2917E+03
     15.581  0.2312E+02  0.2944E+03
     15.697  0.3061E+02  0.2979E+03
     15.812  0.1317E+02  0.2995E+03
     15.927  0.1833E+02  0.3016E+03
     16.043  0.3344E+02  0.3054E+03
     16.158  0.5065E+02  0.3113E+03
     16.273  0.3390E+02  0.3152E+03
     16.389  0.3403E+02  0.3191E+03
     16.504  0.2292E+02  0.3218E+03
     16.619  0.2865E+02  0.3251E+03
     16.735  0.4882E+02  0.3307E+03
     16.850  0.3866E+02  0.3351E+03
     16.966  0.4708E+02  0.3406E+03
     17.081  0.2888E+02  0.3439E+03
     17.196  0.3273E+02  0.3477E+03
     17.312  0.3703E+02  0.3520E+03
     17.427  0.4309E+02  0.3569E+03
     17.542  0.1828E+02  0.3590E+03
     17.658  0.1547E+02  0.3608E+03
     17.773  0.1871E+02  0.3630E+03
     17.888  0.2735E+02  0.3661E+03
     18.004  0.3658E+02  0.3704E+03
     18.119  0.3360E+02  0.3742E+03
     18.234  0.1959E+02  0.3765E+03
     18.350  0.1532E+02  0.3783E+03
     18.465  0.1669E+02  0.3802E+03
     18.581  0.7541E+01  0.3811E+03
     18.696  0.2018E+01  0.3813E+03
     18.811  0.7205E+01  0.3821E+03
     18.927  0.7518E+01  0.3830E+03
     19.042  0.1815E+01  0.3832E+03
     19.157  0.1538E+01  0.3834E+03
     19.273  0.3195E+00  0.3834E+03
     19.388  0.9231E+00  0.3835E+03
     19.503  0.2073E+01  0.3838E+03
     19.619  0.5666E+00  0.3838E+03
     19.734  0.1503E+01  0.3840E+03
     19.850  0.6646E-01  0.3840E+03
     19.965  0.5621E-05  0.3840E+03
     20.080  0.4132E-12  0.3840E+03
     20.196  0.0000E+00  0.3840E+03
     20.311  0.0000E+00  0.3840E+03
     20.426  0.0000E+00  0.3840E+03
     20.542  0.0000E+00  0.3840E+03
     20.657  0.0000E+00  0.3840E+03
     20.772  0.0000E+00  0.3840E+03
     20.888  0.0000E+00  0.3840E+03
     21.003  0.0000E+00  0.3840E+03
     21.118  0.0000E+00  0.3840E+03
     21.234  0.0000E+00  0.3840E+03
