mesh: [    48,    48,    48 ]
nqpoint: 2600   
reciprocal_lattice:
- [   0.27314233,   0.00000000,   0.00000000 ] # a*
- [   0.00000000,   0.27314233,   0.00000000 ] # b*
- [   0.00000000,   0.00000000,   0.27314233 ] # c*
natom:   8      
lattice:
- [     3.661094949999366,     0.000000000000000,     0.000000000000000 ] # a
- [     0.000000000000000,     3.661094949999366,     0.000000000000000 ] # b
- [     0.000000000000000,     0.000000000000000,     3.661094949999366 ] # c
points:
- symbol: C  # 1
  coordinates: [  0.250000000000000,  0.750000000000000,  0.250000000000000 ]
  mass: 12.010700
- symbol: C  # 2
  coordinates: [  0.000000000000000,  0.000000000000000,  0.500000000000000 ]
  mass: 12.010700
- symbol: C  # 3
  coordinates: [  0.250000000000000,  0.250000000000000,  0.750000000000000 ]
  mass: 12.010700
- symbol: C  # 4
  coordinates: [  0.000000000000000,  0.500000000000000,  0.000000000000000 ]
  mass: 12.010700
- symbol: C  # 5
  coordinates: [  0.750000000000000,  0.750000000000000,  0.750000000000000 ]
  mass: 12.010700
- symbol: C  # 6
  coordinates: [  0.500000000000000,  0.000000000000000,  0.000000000000000 ]
  mass: 12.010700
- symbol: C  # 7
  coordinates: [  0.750000000000000,  0.250000000000000,  0.250000000000000 ]
  mass: 12.010700
- symbol: C  # 8
  coordinates: [  0.500000000000000,  0.500000000000000,  0.500000000000000 ]
  mass: 12.010700

phonon:
- q-position: [    0.0104167,    0.0104167,    0.0104167 ]
  distance_from_gamma:  0.004928087
  weight: 8    
  band:
  - # 1
    frequency:     0.5650960684
  - # 2
    frequency:     0.5650960684
  - # 3
    frequency:     0.8286388215
  - # 4
    frequency:    22.8784054964
  - # 5
    frequency:    22.8784054964
  - # 6
    frequency:    22.8784054964
  - # 7
    frequency:    22.8896135144
  - # 8
    frequency:    22.8896135144
  - # 9
    frequency:    22.8896135144
  - # 10
    frequency:    28.2034907881
  - # 11
    frequency:    28.2034907881
  - # 12
    frequency:    28.2034907881
  - # 13
    frequency:    28.2067155569
  - # 14
    frequency:    28.2067155569
  - # 15
    frequency:    28.2067155569
  - # 16
    frequency:    33.1682073276
  - # 17
    frequency:    33.1682073276
  - # 18
    frequency:    33.1682073276
  - # 19
    frequency:    33.4779015311
  - # 20
    frequency:    33.4779015311
  - # 21
    frequency:    33.4779015311
  - # 22
    frequency:    35.9345788541
  - # 23
    frequency:    35.9345788541
  - # 24
    frequency:    35.9390679123

- q-position: [    0.0312500,    0.0104167,    0.0104167 ]
  distance_from_gamma:  0.009436569
  weight: 24   
  band:
  - # 1
    frequency:     1.0865113726
  - # 2
    frequency:     1.0919417964
  - # 3
    frequency:     1.5759289213
  - # 4
    frequency:    22.8309383549
  - # 5
    frequency:    22.8421081590
  - # 6
    frequency:    22.8849645771
  - # 7
    frequency:    22.8849645771
  - # 8
    frequency:    22.9185374289
  - # 9
    frequency:    22.9185374289
  - # 10
    frequency:    28.1980629587
  - # 11
    frequency:    28.1980629587
  - # 12
    frequency:    28.2077399189
  - # 13
    frequency:    28.2077399189
  - # 14
    frequency:    28.2407379221
  - # 15
    frequency:    28.2440014755
  - # 16
    frequency:    32.8418124595
  - # 17
    frequency:    33.1543958891
  - # 18
    frequency:    33.1543958891
  - # 19
    frequency:    33.4639350492
  - # 20
    frequency:    33.4639350492
  - # 21
    frequency:    33.7708017947
  - # 22
    frequency:    35.9231614068
  - # 23
    frequency:    35.9237896338
  - # 24
    frequency:    35.9431605143

- q-position: [    0.0520833,    0.0104167,    0.0104167 ]
  distance_from_gamma:  0.014784262
  weight: 24   
  band:
  - # 1
    frequency:     1.7097176066
  - # 2
    frequency:     1.7134306681
  - # 3
    frequency:     2.4592879287
  - # 4
    frequency:    22.7377304460
  - # 5
    frequency:    22.7488300184
  - # 6
    frequency:    22.9091957557
  - # 7
    frequency:    22.9091957557
  - # 8
    frequency:    22.9649826052
  - # 9
    frequency:    22.9649826052
  - # 10
    frequency:    28.1903994860
  - # 11
    frequency:    28.1903994860
  - # 12
    frequency:    28.2065356333
  - # 13
    frequency:    28.2065356333
  - # 14
    frequency:    28.3134499435
  - # 15
    frequency:    28.3168074877
  - # 16
    frequency:    32.4984076412
  - # 17
    frequency:    33.1269214403
  - # 18
    frequency:    33.1269214403
  - # 19
    frequency:    33.4361345062
  - # 20
    frequency:    33.4361345062
  - # 21
    frequency:    34.0472561980
  - # 22
    frequency:    35.9003483855
  - # 23
    frequency:    35.9010761947
  - # 24
    frequency:    35.9524403749

- q-position: [    0.0729167,    0.0104167,    0.0104167 ]
  distance_from_gamma:  0.020319025
  weight: 24   
  band:
  - # 1
    frequency:     2.3525506485
  - # 2
    frequency:     2.3547534550
  - # 3
    frequency:     3.3726930281
  - # 4
    frequency:    22.6018673801
  - # 5
    frequency:    22.6128747152
  - # 6
    frequency:    22.9508587935
  - # 7
    frequency:    22.9508587935
  - # 8
    frequency:    23.0286118671
  - # 9
    frequency:    23.0286118671
  - # 10
    frequency:    28.1804379861
  - # 11
    frequency:    28.1804379861
  - # 12
    frequency:    28.2030413785
  - # 13
    frequency:    28.2030413785
  - # 14
    frequency:    28.4184287572
  - # 15
    frequency:    28.4219697050
  - # 16
    frequency:    32.1378907772
  - # 17
    frequency:    33.0860821400
  - # 18
    frequency:    33.0860821400
  - # 19
    frequency:    33.3947658055
  - # 20
    frequency:    33.3947658055
  - # 21
    frequency:    34.3074484042
  - # 22
    frequency:    35.8661835656
  - # 23
    frequency:    35.8669472975
  - # 24
    frequency:    35.9663186726

- q-position: [    0.0937500,    0.0104167,    0.0104167 ]
  distance_from_gamma:  0.025921303
  weight: 24   
  band:
  - # 1
    frequency:     3.0009309544
  - # 2
    frequency:     3.0019854727
  - # 3
    frequency:     4.2949554702
  - # 4
    frequency:    22.4272230212
  - # 5
    frequency:    22.4381266692
  - # 6
    frequency:    23.0095684316
  - # 7
    frequency:    23.0095684316
  - # 8
    frequency:    23.1089487512
  - # 9
    frequency:    23.1089487512
  - # 10
    frequency:    28.1680854033
  - # 11
    frequency:    28.1680854033
  - # 12
    frequency:    28.1971595946
  - # 13
    frequency:    28.1971595946
  - # 14
    frequency:    28.5516255455
  - # 15
    frequency:    28.5554983902
  - # 16
    frequency:    31.7601767528
  - # 17
    frequency:    33.0323284973
  - # 18
    frequency:    33.0323284973
  - # 19
    frequency:    33.3402304737
  - # 20
    frequency:    33.3402304737
  - # 21
    frequency:    34.5515986971
  - # 22
    frequency:    35.8207326796
  - # 23
    frequency:    35.8215192761
  - # 24
    frequency:    35.9845605271

- q-position: [    0.1145833,    0.0104167,    0.0104167 ]
  distance_from_gamma:  0.031555156
  weight: 24   
  band:
  - # 1
    frequency:     3.6504893364
  - # 2
    frequency:     3.6506240400
  - # 3
    frequency:     5.2189730145
  - # 4
    frequency:    22.2178943429
  - # 5
    frequency:    22.2286914169
  - # 6
    frequency:    23.0847956011
  - # 7
    frequency:    23.0847956011
  - # 8
    frequency:    23.2053809098
  - # 9
    frequency:    23.2053809098
  - # 10
    frequency:    28.1532164168
  - # 11
    frequency:    28.1532164168
  - # 12
    frequency:    28.1887522889
  - # 13
    frequency:    28.1887522889
  - # 14
    frequency:    28.7086834306
  - # 15
    frequency:    28.7131449120
  - # 16
    frequency:    31.3652433306
  - # 17
    frequency:    32.9662673255
  - # 18
    frequency:    32.9662673255
  - # 19
    frequency:    33.2730689132
  - # 20
    frequency:    33.2730689132
  - # 21
    frequency:    34.7799456044
  - # 22
    frequency:    35.7640834964
  - # 23
    frequency:    35.7648900025
  - # 24
    frequency:    36.0069128513

- q-position: [    0.1354167,    0.0104167,    0.0104167 ]
  distance_from_gamma:  0.037206244
  weight: 24   
  band:
  - # 1
    frequency:     4.2985908980
  - # 2
    frequency:     4.2992333293
  - # 3
    frequency:     6.1413902829
  - # 4
    frequency:    21.9777813136
  - # 5
    frequency:    21.9884743840
  - # 6
    frequency:    23.1758687986
  - # 7
    frequency:    23.1758687986
  - # 8
    frequency:    23.3171637755
  - # 9
    frequency:    23.3171637755
  - # 10
    frequency:    28.1356713414
  - # 11
    frequency:    28.1356713414
  - # 12
    frequency:    28.1776359670
  - # 13
    frequency:    28.1776359670
  - # 14
    frequency:    28.8852821756
  - # 15
    frequency:    28.8908242069
  - # 16
    frequency:    30.9532121216
  - # 17
    frequency:    32.8886670226
  - # 18
    frequency:    32.8886670226
  - # 19
    frequency:    33.1939647926
  - # 20
    frequency:    33.1939647926
  - # 21
    frequency:    34.9927446988
  - # 22
    frequency:    35.6963459189
  - # 23
    frequency:    35.6971723207
  - # 24
    frequency:    36.0330732832

- q-position: [    0.1562500,    0.0104167,    0.0104167 ]
  distance_from_gamma:  0.042867751
  weight: 24   
  band:
  - # 1
    frequency:     4.9446515623
  - # 2
    frequency:     4.9459771735
  - # 3
    frequency:     7.0601832532
  - # 4
    frequency:    21.7103480404
  - # 5
    frequency:    21.7209420989
  - # 6
    frequency:    23.2819751479
  - # 7
    frequency:    23.2819751479
  - # 8
    frequency:    23.4434240099
  - # 9
    frequency:    23.4434240099
  - # 10
    frequency:    28.1152539087
  - # 11
    frequency:    28.1152539087
  - # 12
    frequency:    28.1635759676
  - # 13
    frequency:    28.1635759676
  - # 14
    frequency:    29.0770818733
  - # 15
    frequency:    29.0848564625
  - # 16
    frequency:    30.5246474898
  - # 17
    frequency:    32.8004640985
  - # 18
    frequency:    32.8004640985
  - # 19
    frequency:    33.1037505796
  - # 20
    frequency:    33.1037505796
  - # 21
    frequency:    35.1902687087
  - # 22
    frequency:    35.6176520934
  - # 23
    frequency:    35.6184993842
  - # 24
    frequency:    36.0626877129

- q-position: [    0.1770833,    0.0104167,    0.0104167 ]
  distance_from_gamma:  0.048536032
  weight: 24   
  band:
  - # 1
    frequency:     5.5879271317
  - # 2
    frequency:     5.5898703565
  - # 3
    frequency:     7.9739020765
  - # 4
    frequency:    21.4185332901
  - # 5
    frequency:    21.4290333877
  - # 6
    frequency:    23.4021604949
  - # 7
    frequency:    23.4021604949
  - # 8
    frequency:    23.5831621727
  - # 9
    frequency:    23.5831621727
  - # 10
    frequency:    28.0917295228
  - # 11
    frequency:    28.0917295228
  - # 12
    frequency:    28.1462807023
  - # 13
    frequency:    28.1462807023
  - # 14
    frequency:    29.2780106089
  - # 15
    frequency:    29.2920598411
  - # 16
    frequency:    30.0823617665
  - # 17
    frequency:    32.7027707218
  - # 18
    frequency:    32.7027707218
  - # 19
    frequency:    33.0034141507
  - # 20
    frequency:    33.0034141507
  - # 21
    frequency:    35.3728079531
  - # 22
    frequency:    35.5281565242
  - # 23
    frequency:    35.5290260320
  - # 24
    frequency:    36.0953522147

- q-position: [    0.1979167,    0.0104167,    0.0104167 ]
  distance_from_gamma:  0.054208961
  weight: 24   
  band:
  - # 1
    frequency:     6.2277099790
  - # 2
    frequency:     6.2302225033
  - # 3
    frequency:     8.8813835189
  - # 4
    frequency:    21.1047571038
  - # 5
    frequency:    21.1151667943
  - # 6
    frequency:    23.5353276961
  - # 7
    frequency:    23.5353276961
  - # 8
    frequency:    23.7352539097
  - # 9
    frequency:    23.7352539097
  - # 10
    frequency:    28.0648249162
  - # 11
    frequency:    28.0648249162
  - # 12
    frequency:    28.1253966687
  - # 13
    frequency:    28.1253966687
  - # 14
    frequency:    29.4406987160
  - # 15
    frequency:    29.5097474550
  - # 16
    frequency:    29.6709779994
  - # 17
    frequency:    32.5968828062
  - # 18
    frequency:    32.5968828062
  - # 19
    frequency:    32.8941062930
  - # 20
    frequency:    32.8941062930
  - # 21
    frequency:    35.4280361836
  - # 22
    frequency:    35.4289292984
  - # 23
    frequency:    35.5406709119
  - # 24
    frequency:    36.1306162234

- q-position: [    0.2187500,    0.0104167,    0.0104167 ]
  distance_from_gamma:  0.059885218
  weight: 24   
  band:
  - # 1
    frequency:     6.8633837973
  - # 2
    frequency:     6.8664282024
  - # 3
    frequency:     9.7816261937
  - # 4
    frequency:    20.7709769044
  - # 5
    frequency:    20.7812973832
  - # 6
    frequency:    23.6802320254
  - # 7
    frequency:    23.6802320254
  - # 8
    frequency:    23.8984487777
  - # 9
    frequency:    23.8984487777
  - # 10
    frequency:    28.0342306247
  - # 11
    frequency:    28.0342306247
  - # 12
    frequency:    28.1005056552
  - # 13
    frequency:    28.1005056552
  - # 14
    frequency:    29.0999715289
  - # 15
    frequency:    29.7356751180
  - # 16
    frequency:    29.7533851436
  - # 17
    frequency:    32.4842877449
  - # 18
    frequency:    32.4842877449
  - # 19
    frequency:    32.7771487093
  - # 20
    frequency:    32.7771487093
  - # 21
    frequency:    35.3174906084
  - # 22
    frequency:    35.3184086646
  - # 23
    frequency:    35.6941848632
  - # 24
    frequency:    36.1679862770

- q-position: [    0.2395833,    0.0104167,    0.0104167 ]
  distance_from_gamma:  0.065563939
  weight: 24   
  band:
  - # 1
    frequency:     7.4943852589
  - # 2
    frequency:     7.4979312222
  - # 3
    frequency:    10.6737309777
  - # 4
    frequency:    20.4187618103
  - # 5
    frequency:    20.4289915602
  - # 6
    frequency:    23.8354722914
  - # 7
    frequency:    23.8354722914
  - # 8
    frequency:    24.0713655385
  - # 9
    frequency:    24.0713655385
  - # 10
    frequency:    27.9996084311
  - # 11
    frequency:    27.9996084311
  - # 12
    frequency:    28.0711263976
  - # 13
    frequency:    28.0711263976
  - # 14
    frequency:    28.6071261037
  - # 15
    frequency:    29.9679710812
  - # 16
    frequency:    29.9763915139
  - # 17
    frequency:    32.3666703040
  - # 18
    frequency:    32.3666703040
  - # 19
    frequency:    32.6540418358
  - # 20
    frequency:    32.6540418358
  - # 21
    frequency:    35.1967419722
  - # 22
    frequency:    35.1976862035
  - # 23
    frequency:    35.8336965482
  - # 24
    frequency:    36.2069301008

- q-position: [    0.2604167,    0.0104167,    0.0104167 ]
  distance_from_gamma:  0.071244533
  weight: 24   
  band:
  - # 1
    frequency:     8.1201842405
  - # 2
    frequency:     8.1242061677
  - # 3
    frequency:    11.5568704958
  - # 4
    frequency:    20.0493676032
  - # 5
    frequency:    20.0595023726
  - # 6
    frequency:    23.9994757586
  - # 7
    frequency:    23.9994757586
  - # 8
    frequency:    24.2524822924
  - # 9
    frequency:    24.2524822924
  - # 10
    frequency:    27.9606069793
  - # 11
    frequency:    27.9606069793
  - # 12
    frequency:    28.0367241499
  - # 13
    frequency:    28.0367241499
  - # 14
    frequency:    28.0899804029
  - # 15
    frequency:    30.2050652287
  - # 16
    frequency:    30.2106054644
  - # 17
    frequency:    32.2459143621
  - # 18
    frequency:    32.2459143621
  - # 19
    frequency:    32.5264713616
  - # 20
    frequency:    32.5264713616
  - # 21
    frequency:    35.0660351239
  - # 22
    frequency:    35.0670066586
  - # 23
    frequency:    35.9595728306
  - # 24
    frequency:    36.2468809165

- q-position: [    0.2812500,    0.0104167,    0.0104167 ]
  distance_from_gamma:  0.076926587
  weight: 24   
  band:
  - # 1
    frequency:     8.7402730998
  - # 2
    frequency:     8.7447485929
  - # 3
    frequency:    12.4302726866
  - # 4
    frequency:    19.6638041269
  - # 5
    frequency:    19.6738371054
  - # 6
    frequency:    24.1704742134
  - # 7
    frequency:    24.1704742134
  - # 8
    frequency:    24.4401190381
  - # 9
    frequency:    24.4401190381
  - # 10
    frequency:    27.5534630541
  - # 11
    frequency:    27.9168902163
  - # 12
    frequency:    27.9168902163
  - # 13
    frequency:    27.9967333169
  - # 14
    frequency:    27.9967333169
  - # 15
    frequency:    30.4456258791
  - # 16
    frequency:    30.4497832827
  - # 17
    frequency:    32.1240971749
  - # 18
    frequency:    32.1240971749
  - # 19
    frequency:    32.3963118249
  - # 20
    frequency:    32.3963118249
  - # 21
    frequency:    34.9256375826
  - # 22
    frequency:    34.9266374654
  - # 23
    frequency:    36.0722013238
  - # 24
    frequency:    36.2872418914

- q-position: [    0.3020833,    0.0104167,    0.0104167 ]
  distance_from_gamma:  0.082609798
  weight: 24   
  band:
  - # 1
    frequency:     9.3541606911
  - # 2
    frequency:     9.3590695254
  - # 3
    frequency:    13.2932116373
  - # 4
    frequency:    19.2628922867
  - # 5
    frequency:    19.2728143859
  - # 6
    frequency:    24.3464673674
  - # 7
    frequency:    24.3464673674
  - # 8
    frequency:    24.6324088672
  - # 9
    frequency:    24.6324088672
  - # 10
    frequency:    26.9985318589
  - # 11
    frequency:    27.8681852547
  - # 12
    frequency:    27.8681852547
  - # 13
    frequency:    27.9506005601
  - # 14
    frequency:    27.9506005601
  - # 15
    frequency:    30.6885069527
  - # 16
    frequency:    30.6918588299
  - # 17
    frequency:    32.0034717810
  - # 18
    frequency:    32.0034717810
  - # 19
    frequency:    32.2656251271
  - # 20
    frequency:    32.2656251271
  - # 21
    frequency:    34.7758394790
  - # 22
    frequency:    34.7768687156
  - # 23
    frequency:    36.1719909588
  - # 24
    frequency:    36.3273906575

- q-position: [    0.3229167,    0.0104167,    0.0104167 ]
  distance_from_gamma:  0.088293944
  weight: 24   
  band:
  - # 1
    frequency:     9.9613690130
  - # 2
    frequency:     9.9666924341
  - # 3
    frequency:    14.1450023603
  - # 4
    frequency:    18.8473105524
  - # 5
    frequency:    18.8571107300
  - # 6
    frequency:    24.5251680818
  - # 7
    frequency:    24.5251680818
  - # 8
    frequency:    24.8272515827
  - # 9
    frequency:    24.8272515827
  - # 10
    frequency:    26.4255423802
  - # 11
    frequency:    27.8143586519
  - # 12
    frequency:    27.8143586519
  - # 13
    frequency:    27.8978587910
  - # 14
    frequency:    27.8978587910
  - # 15
    frequency:    30.9327055383
  - # 16
    frequency:    30.9355335873
  - # 17
    frequency:    31.8864323331
  - # 18
    frequency:    31.8864323331
  - # 19
    frequency:    32.1366514338
  - # 20
    frequency:    32.1366514338
  - # 21
    frequency:    34.6169534385
  - # 22
    frequency:    34.6180130575
  - # 23
    frequency:    36.2593724648
  - # 24
    frequency:    36.3666838354

- q-position: [    0.3437500,    0.0104167,    0.0104167 ]
  distance_from_gamma:  0.093978855
  weight: 24   
  band:
  - # 1
    frequency:    10.5614313861
  - # 2
    frequency:    10.5671516168
  - # 3
    frequency:    14.9849977794
  - # 4
    frequency:    18.4176320518
  - # 5
    frequency:    18.4272976428
  - # 6
    frequency:    24.7039215558
  - # 7
    frequency:    24.7039215558
  - # 8
    frequency:    25.0222392451
  - # 9
    frequency:    25.0222392451
  - # 10
    frequency:    25.8347014582
  - # 11
    frequency:    27.7555327619
  - # 12
    frequency:    27.7555327619
  - # 13
    frequency:    27.8382465249
  - # 14
    frequency:    27.8382465249
  - # 15
    frequency:    31.1773287118
  - # 16
    frequency:    31.1797910741
  - # 17
    frequency:    31.7754569894
  - # 18
    frequency:    31.7754569894
  - # 19
    frequency:    32.0117900608
  - # 20
    frequency:    32.0117900608
  - # 21
    frequency:    34.4493143982
  - # 22
    frequency:    34.4504055330
  - # 23
    frequency:    36.3347987377
  - # 24
    frequency:    36.4044615037

- q-position: [    0.3645833,    0.0104167,    0.0104167 ]
  distance_from_gamma:  0.099664400
  weight: 24   
  band:
  - # 1
    frequency:    11.1538915486
  - # 2
    frequency:    11.1599914376
  - # 3
    frequency:    15.8125869817
  - # 4
    frequency:    17.9743537165
  - # 5
    frequency:    17.9838707493
  - # 6
    frequency:    24.8795880298
  - # 7
    frequency:    24.8795880298
  - # 8
    frequency:    25.2145357291
  - # 9
    frequency:    25.2145357291
  - # 10
    frequency:    25.2261774707
  - # 11
    frequency:    27.6922559198
  - # 12
    frequency:    27.6922559198
  - # 13
    frequency:    27.7718929231
  - # 14
    frequency:    27.7718929231
  - # 15
    frequency:    31.4215680999
  - # 16
    frequency:    31.4237622848
  - # 17
    frequency:    31.6730240041
  - # 18
    frequency:    31.6730240041
  - # 19
    frequency:    31.8935690569
  - # 20
    frequency:    31.8935690569
  - # 21
    frequency:    34.2732793597
  - # 22
    frequency:    34.2744033487
  - # 23
    frequency:    36.3987450703
  - # 24
    frequency:    36.4400515613

- q-position: [    0.3854167,    0.0104167,    0.0104167 ]
  distance_from_gamma:  0.105350476
  weight: 24   
  band:
  - # 1
    frequency:    11.7383033059
  - # 2
    frequency:    11.7447660728
  - # 3
    frequency:    16.6271941925
  - # 4
    frequency:    17.5179189278
  - # 5
    frequency:    17.5272724128
  - # 6
    frequency:    24.6001369745
  - # 7
    frequency:    25.0483778281
  - # 8
    frequency:    25.0483778281
  - # 9
    frequency:    25.4006803768
  - # 10
    frequency:    25.4006803768
  - # 11
    frequency:    27.6257392393
  - # 12
    frequency:    27.6257392393
  - # 13
    frequency:    27.6995976456
  - # 14
    frequency:    27.6995976456
  - # 15
    frequency:    31.5814990001
  - # 16
    frequency:    31.5814990001
  - # 17
    frequency:    31.6646806970
  - # 18
    frequency:    31.6666709923
  - # 19
    frequency:    31.7846047987
  - # 20
    frequency:    31.7846047987
  - # 21
    frequency:    34.0892270802
  - # 22
    frequency:    34.0903855879
  - # 23
    frequency:    36.4517092178
  - # 24
    frequency:    36.4727739346

- q-position: [    0.4062500,    0.0104167,    0.0104167 ]
  distance_from_gamma:  0.111037002
  weight: 24   
  band:
  - # 1
    frequency:    12.3142304970
  - # 2
    frequency:    12.3210395500
  - # 3
    frequency:    17.0487349474
  - # 4
    frequency:    17.0579091336
  - # 5
    frequency:    17.4282781540
  - # 6
    frequency:    23.9567597545
  - # 7
    frequency:    25.2056359007
  - # 8
    frequency:    25.2056359007
  - # 9
    frequency:    25.5762702910
  - # 10
    frequency:    25.5762702910
  - # 11
    frequency:    27.5581614414
  - # 12
    frequency:    27.5581614414
  - # 13
    frequency:    27.6232457256
  - # 14
    frequency:    27.6232457256
  - # 15
    frequency:    31.5029947687
  - # 16
    frequency:    31.5029947687
  - # 17
    frequency:    31.6875570737
  - # 18
    frequency:    31.6875570737
  - # 19
    frequency:    31.9059746209
  - # 20
    frequency:    31.9078055572
  - # 21
    frequency:    33.8975577120
  - # 22
    frequency:    33.8987528742
  - # 23
    frequency:    36.4942112755
  - # 24
    frequency:    36.5019445877

- q-position: [    0.4270833,    0.0104167,    0.0104167 ]
  distance_from_gamma:  0.116723911
  weight: 24   
  band:
  - # 1
    frequency:    12.8812471127
  - # 2
    frequency:    12.8883859182
  - # 3
    frequency:    16.5671862101
  - # 4
    frequency:    16.5761648060
  - # 5
    frequency:    18.2153317101
  - # 6
    frequency:    23.2962461202
  - # 7
    frequency:    25.3456097962
  - # 8
    frequency:    25.3456097962
  - # 9
    frequency:    25.7354726110
  - # 10
    frequency:    25.7354726110
  - # 11
    frequency:    27.4930025074
  - # 12
    frequency:    27.4930025074
  - # 13
    frequency:    27.5463965158
  - # 14
    frequency:    27.5463965158
  - # 15
    frequency:    31.4392093429
  - # 16
    frequency:    31.4392093429
  - # 17
    frequency:    31.6050889509
  - # 18
    frequency:    31.6050889509
  - # 19
    frequency:    32.1447987081
  - # 20
    frequency:    32.1465022843
  - # 21
    frequency:    33.6986924104
  - # 22
    frequency:    33.6999270075
  - # 23
    frequency:    36.5267933439
  - # 24
    frequency:    36.5268793016

- q-position: [    0.4479167,    0.0104167,    0.0104167 ]
  distance_from_gamma:  0.122411152
  weight: 24   
  band:
  - # 1
    frequency:    13.4389374309
  - # 2
    frequency:    13.4463894256
  - # 3
    frequency:    16.0736443522
  - # 4
    frequency:    16.0824107121
  - # 5
    frequency:    18.9878814733
  - # 6
    frequency:    22.6188209762
  - # 7
    frequency:    25.4613385759
  - # 8
    frequency:    25.4613385759
  - # 9
    frequency:    25.8704002803
  - # 10
    frequency:    25.8704002803
  - # 11
    frequency:    27.4352599822
  - # 12
    frequency:    27.4352599822
  - # 13
    frequency:    27.4750012767
  - # 14
    frequency:    27.4750012767
  - # 15
    frequency:    31.3912587322
  - # 16
    frequency:    31.3912587322
  - # 17
    frequency:    31.5398358100
  - # 18
    frequency:    31.5398358100
  - # 19
    frequency:    32.3805350589
  - # 20
    frequency:    32.3821348983
  - # 21
    frequency:    33.4930729390
  - # 22
    frequency:    33.4943506056
  - # 23
    frequency:    36.5468971918
  - # 24
    frequency:    36.5500189593

- q-position: [    0.4687500,    0.0104167,    0.0104167 ]
  distance_from_gamma:  0.128098678
  weight: 24   
  band:
  - # 1
    frequency:    13.9868960483
  - # 2
    frequency:    13.9946445855
  - # 3
    frequency:    15.5684756797
  - # 4
    frequency:    15.5770129558
  - # 5
    frequency:    19.7454874936
  - # 6
    frequency:    21.9247363773
  - # 7
    frequency:    25.5449980751
  - # 8
    frequency:    25.5449980751
  - # 9
    frequency:    25.9707654223
  - # 10
    frequency:    25.9707654223
  - # 11
    frequency:    27.3912007173
  - # 12
    frequency:    27.3912007173
  - # 13
    frequency:    27.4178263103
  - # 14
    frequency:    27.4178263103
  - # 15
    frequency:    31.3595587831
  - # 16
    frequency:    31.3595587831
  - # 17
    frequency:    31.4943500113
  - # 18
    frequency:    31.4943500113
  - # 19
    frequency:    32.6125938257
  - # 20
    frequency:    32.6141077056
  - # 21
    frequency:    33.2811613179
  - # 22
    frequency:    33.2824867979
  - # 23
    frequency:    36.5613239443
  - # 24
    frequency:    36.5644722695

- q-position: [    0.4895833,    0.0104167,    0.0104167 ]
  distance_from_gamma:  0.133786455
  weight: 24   
  band:
  - # 1
    frequency:    14.5247276852
  - # 2
    frequency:    14.5327560120
  - # 3
    frequency:    15.0520466319
  - # 4
    frequency:    15.0603378945
  - # 5
    frequency:    20.4877428732
  - # 6
    frequency:    21.2142732875
  - # 7
    frequency:    25.5891845950
  - # 8
    frequency:    25.5891845950
  - # 9
    frequency:    26.0251090031
  - # 10
    frequency:    26.0251090031
  - # 11
    frequency:    27.3671348824
  - # 12
    frequency:    27.3671348824
  - # 13
    frequency:    27.3852991184
  - # 14
    frequency:    27.3852991184
  - # 15
    frequency:    31.3439023323
  - # 16
    frequency:    31.3439023323
  - # 17
    frequency:    31.4708901134
  - # 18
    frequency:    31.4708901134
  - # 19
    frequency:    32.8404096869
  - # 20
    frequency:    32.8418511578
  - # 21
    frequency:    33.0634395749
  - # 22
    frequency:    33.0648190423
  - # 23
    frequency:    36.5694947511
  - # 24
    frequency:    36.5707569367

- q-position: [    0.0312500,    0.0312500,    0.0104167 ]
  distance_from_gamma:  0.012402081
  weight: 24   
  band:
  - # 1
    frequency:     1.4129921240
  - # 2
    frequency:     1.4362231471
  - # 3
    frequency:     2.0786363048
  - # 4
    frequency:    22.8374551923
  - # 5
    frequency:    22.8374551923
  - # 6
    frequency:    22.8690703113
  - # 7
    frequency:    22.8709447217
  - # 8
    frequency:    22.8709447217
  - # 9
    frequency:    22.9696112222
  - # 10
    frequency:    28.1861952579
  - # 11
    frequency:    28.2152329943
  - # 12
    frequency:    28.2351793515
  - # 13
    frequency:    28.2351793515
  - # 14
    frequency:    28.2449759419
  - # 15
    frequency:    28.2449759419
  - # 16
    frequency:    32.8294509645
  - # 17
    frequency:    32.8294509645
  - # 18
    frequency:    33.1374880048
  - # 19
    frequency:    33.4531338974
  - # 20
    frequency:    33.7558115982
  - # 21
    frequency:    33.7558115982
  - # 22
    frequency:    35.9120267605
  - # 23
    frequency:    35.9159182099
  - # 24
    frequency:    35.9440895323

- q-position: [    0.0520833,    0.0312500,    0.0104167 ]
  distance_from_gamma:  0.016832623
  weight: 48   
  band:
  - # 1
    frequency:     1.9234694275
  - # 2
    frequency:     1.9514786647
  - # 3
    frequency:     2.8120762847
  - # 4
    frequency:    22.7441698589
  - # 5
    frequency:    22.7775089366
  - # 6
    frequency:    22.8615242607
  - # 7
    frequency:    22.8708659890
  - # 8
    frequency:    22.9172923886
  - # 9
    frequency:    23.0378888864
  - # 10
    frequency:    28.1721004083
  - # 11
    frequency:    28.2205187405
  - # 12
    frequency:    28.2272850718
  - # 13
    frequency:    28.2436340295
  - # 14
    frequency:    28.3075755428
  - # 15
    frequency:    28.3176726260
  - # 16
    frequency:    32.4875953400
  - # 17
    frequency:    32.8048945630
  - # 18
    frequency:    33.1040241887
  - # 19
    frequency:    33.4314590871
  - # 20
    frequency:    33.7259519750
  - # 21
    frequency:    34.0316095765
  - # 22
    frequency:    35.8894041318
  - # 23
    frequency:    35.8951116982
  - # 24
    frequency:    35.9513460028

- q-position: [    0.0729167,    0.0312500,    0.0104167 ]
  distance_from_gamma:  0.021854646
  weight: 48   
  band: