       N       E                     dE             d eps       ncg     rms          rms(c)
DAV:   1     0.497855182794E+03    0.49786E+03   -0.11228E+05  7680   0.105E+03
DAV:   2    -0.552865064170E+03   -0.10507E+04   -0.10009E+04 10144   0.226E+02
DAV:   3    -0.594690647289E+03   -0.41826E+02   -0.41572E+02 10240   0.425E+01
DAV:   4    -0.595194691645E+03   -0.50404E+00   -0.50320E+00 10432   0.506E+00
DAV:   5    -0.595203411495E+03   -0.87199E-02   -0.87171E-02  9664   0.647E-01    0.244E+01
DAV:   6    -0.583403451749E+03    0.11800E+02   -0.79414E+00  9120   0.553E+00    0.136E+01
DAV:   7    -0.579410337986E+03    0.39931E+01   -0.92962E+00  9184   0.617E+00    0.189E+00
DAV:   8    -0.579462563390E+03   -0.52225E-01   -0.21441E-01  9728   0.914E-01    0.204E-01
DAV:   9    -0.579464759151E+03   -0.21958E-02   -0.36512E-03  9856   0.142E-01    0.764E-02
DAV:  10    -0.579465234188E+03   -0.47504E-03   -0.45376E-04  9408   0.551E-02    0.785E-03
DAV:  11    -0.579465237655E+03   -0.34676E-05   -0.11965E-05 10080   0.778E-03    0.209E-03
DAV:  12    -0.579465238024E+03   -0.36882E-06   -0.58840E-07  9824   0.181E-03    0.175E-04
DAV:  13    -0.579465238150E+03   -0.12586E-06   -0.88675E-09  7456   0.230E-04    0.473E-05
DAV:  14    -0.579465238159E+03   -0.88767E-08   -0.13578E-09  6624   0.847E-05
   1 F= -.57946524E+03 E0= -.57946524E+03  d E =-.635231E-17
 Linear response reoptimize wavefunctions
DAV:   1    -0.579465238158E+03    0.51750E-09   -0.35851E-10  5952   0.415E-05
DAV:   2    -0.579465238158E+03    0.28649E-09   -0.84319E-11  5696   0.209E-05
DAV:   3    -0.579465238158E+03   -0.60027E-10   -0.97269E-12  5760   0.110E-05
 Linear response DOF=           1
 Linear response progress:
  Degree of freedom:   1/  1
       N       E                     dE             d eps       ncg     rms          rms(c)
RMM:   1    -0.140550949694E+00   -0.14055E+00    0.85466E-03 55546   0.709E-01
RMM:   2    -0.121131312268E+00    0.19420E-01   -0.70778E-03 34035   0.181E-01    0.161E-01
RMM:   3    -0.121045863676E+00    0.85449E-04   -0.70410E-04 35673   0.443E-02    0.835E-02
RMM:   4    -0.121254696303E+00   -0.20883E-03   -0.18600E-04 35899   0.239E-02    0.259E-02
RMM:   5    -0.121319546814E+00   -0.64851E-04   -0.12139E-05 36263   0.689E-03    0.624E-03
RMM:   6    -0.121302855257E+00    0.16692E-04   -0.78261E-06 36845   0.188E-03    0.132E-03
RMM:   7    -0.121295171090E+00    0.76842E-05   -0.14688E-05 37270   0.628E-04    0.364E-04
RMM:   8    -0.121294171787E+00    0.99930E-06   -0.86031E-06 38372   0.270E-04    0.884E-05
RMM:   9    -0.121293668910E+00    0.50288E-06   -0.59876E-06 39887   0.175E-04    0.383E-05
RMM:  10    -0.121293652676E+00    0.16233E-07   -0.49280E-06 41506   0.164E-04    0.119E-05
RMM:  11    -0.121293517947E+00    0.13473E-06   -0.35287E-06 42074   0.161E-04    0.511E-06
 Linear response finished
