 vasp.5.4.4.18Apr17-6-g9f103f2a35 (build Mar 12 2022 03:36:41) complex          
  
 executed on IFC19.0.3.199_CrayMP date 2022.12.02  02:25:22
 running on   32 total cores
 distrk:  each k-point on   32 cores,    1 groups
 distr:  one band on NCORES_PER_BAND=   1 cores,   32 groups


--------------------------------------------------------------------------------------------------------


 INCAR:
 POTCAR:   PAW_PBE C 08Apr2002                    

 ----------------------------------------------------------------------------- 
|                                                                             |
|           W    W    AA    RRRRR   N    N  II  N    N   GGGG   !!!           |
|           W    W   A  A   R    R  NN   N  II  NN   N  G    G  !!!           |
|           W    W  A    A  R    R  N N  N  II  N N  N  G       !!!           |
|           W WW W  AAAAAA  RRRRR   N  N N  II  N  N N  G  GGG   !            |
|           WW  WW  A    A  R   R   N   NN  II  N   NN  G    G                |
|           W    W  A    A  R    R  N    N  II  N    N   GGGG   !!!           |
|                                                                             |
|      For optimal performance we recommend to set                            |
|        NCORE= 4 - approx SQRT( number of cores)                             |
|      NCORE specifies how many cores store one orbital (NPAR=cpu/NCORE).     |
|      This setting can  greatly improve the performance of VASP for DFT.     |
|      The default,   NCORE=1            might be grossly inefficient         |
|      on modern multi-core architectures or massively parallel machines.     |
|      Do your own testing !!!!                                               |
|      Unfortunately you need to use the default for GW and RPA calculations. |
|      (for HF NCORE is supported but not extensively tested yet)             |
|                                                                             |
 ----------------------------------------------------------------------------- 

 POTCAR:   PAW_PBE C 08Apr2002                    
   VRHFIN =C: s2p2                                                              
   LEXCH  = PE                                                                  
   EATOM  =   147.1560 eV,   10.8157 Ry                                         
                                                                                
   TITEL  = PAW_PBE C 08Apr2002                                                 
   LULTRA =        F    use ultrasoft PP ?                                      
   IUNSCR =        0    unscreen: 0-lin 1-nonlin 2-no                           
   RPACOR =     .000    partial core radius                                     
   POMASS =   12.011; ZVAL   =    4.000    mass and valenz                      
   RCORE  =    1.500    outmost cutoff radius                                   
   RWIGS  =    1.630; RWIGS  =     .863    wigner-seitz radius (au A)           
   ENMAX  =  400.000; ENMIN  =  300.000 eV                                      
   ICORE  =        2    local potential                                         
   LCOR   =        T    correct aug charges                                     
   LPAW   =        T    paw PP                                                  
   EAUG   =  644.873                                                            
   DEXC   =     .000                                                            
   RMAX   =    2.266    core radius for proj-oper                               
   RAUG   =    1.300    factor for augmentation sphere                          
   RDEP   =    1.501    radius for radial grids                                 
   RDEPT  =    1.300    core radius for aug-charge                              
   QCUT   =   -5.516; QGAM   =   11.032    optimization parameters              
                                                                                
   Description                                                                  
     l     E      TYP  RCUT    TYP  RCUT                                        
     0   .000     23  1.200                                                     
     0   .000     23  1.200                                                     
     1   .000     23  1.500                                                     
     1  2.500     23  1.500                                                     
     2   .000      7  1.500                                                     
  local pseudopotential read in
  atomic valenz-charges read in
  non local Contribution for L=           0  read in
    real space projection operators read in
  non local Contribution for L=           0  read in
    real space projection operators read in
  non local Contribution for L=           1  read in
    real space projection operators read in
  non local Contribution for L=           1  read in
    real space projection operators read in
    PAW grid and wavefunctions read in
 
   number of l-projection  operators is LMAX  =           4
   number of lm-projection operators is LMMAX =           8
 

 ----------------------------------------------------------------------------- 
|                                                                             |
|  ADVICE TO THIS USER RUNNING 'VASP/VAMP'   (HEAR YOUR MASTER'S VOICE ...):  |
|                                                                             |
|      You have a (more or less) 'large supercell' and for larger cells       |
|      it might be more efficient to use real space projection operators      |
|      So try LREAL= Auto  in the INCAR   file.                               |
|      Mind: If you want to do a very accurate calculations keep the          |
|      reciprocal projection scheme          (i.e. LREAL=.FALSE.)             |
|                                                                             |
 ----------------------------------------------------------------------------- 

 PAW_PBE C 08Apr2002                    :
 energy of atom  1       EATOM= -147.1560
 kinetic energy error for atom=    0.0288 (will be added to EATOM!!)
 
 
 POSCAR: generated by phonopy                    
  positions in direct lattice
  No initial velocities read in
 exchange correlation table for  LEXCH =        8
   RHO(1)=    0.500       N(1)  =     2000
   RHO(2)=  100.500       N(2)  =     4000
 


--------------------------------------------------------------------------------------------------------


 ion  position               nearest neighbor table
   1  0.125  0.375  0.125-  11 1.59  25 1.59  43 1.59  57 1.59
   2  0.625  0.375  0.125-  12 1.59  26 1.59  44 1.59  58 1.59
   3  0.125  0.875  0.125-   9 1.59  27 1.59  41 1.59  59 1.59
   4  0.625  0.875  0.125-  10 1.59  28 1.59  42 1.59  60 1.59
   5  0.125  0.375  0.625-  15 1.59  29 1.59  47 1.59  61 1.59
   6  0.625  0.375  0.625-  16 1.59  30 1.59  48 1.59  62 1.59
   7  0.125  0.875  0.625-  13 1.59  31 1.59  45 1.59  63 1.59
   8  0.625  0.875  0.625-  14 1.59  32 1.59  46 1.59  64 1.59
   9  0.000  0.000  0.250-   3 1.59  17 1.59  36 1.59  50 1.59
  10  0.500  0.000  0.250-   4 1.59  18 1.59  35 1.59  49 1.59
  11  0.000  0.500  0.250-   1 1.59  19 1.59  34 1.59  52 1.59
  12  0.500  0.500  0.250-   2 1.59  20 1.59  33 1.59  51 1.59
  13  0.000  0.000  0.750-   7 1.59  21 1.59  40 1.59  54 1.59
  14  0.500  0.000  0.750-   8 1.59  22 1.59  39 1.59  53 1.59
  15  0.000  0.500  0.750-   5 1.59  23 1.59  38 1.59  56 1.59
  16  0.500  0.500  0.750-   6 1.59  24 1.59  37 1.59  55 1.59
  17  0.125  0.125  0.375-   9 1.59  29 1.59  45 1.59  57 1.59
  18  0.625  0.125  0.375-  10 1.59  30 1.59  46 1.59  58 1.59
  19  0.125  0.625  0.375-  11 1.59  31 1.59  47 1.59  59 1.59
  20  0.625  0.625  0.375-  12 1.59  32 1.59  48 1.59  60 1.59
  21  0.125  0.125  0.875-  13 1.59  25 1.59  41 1.59  61 1.59
  22  0.625  0.125  0.875-  14 1.59  26 1.59  42 1.59  62 1.59
  23  0.125  0.625  0.875-  15 1.59  27 1.59  43 1.59  63 1.59
  24  0.625  0.625  0.875-  16 1.59  28 1.59  44 1.59  64 1.59
  25  0.000  0.250  0.000-   1 1.59  21 1.59  38 1.59  50 1.59
  26  0.500  0.250  0.000-   2 1.59  22 1.59  37 1.59  49 1.59
  27  0.000  0.750  0.000-   3 1.59  23 1.59  40 1.59  52 1.59
  28  0.500  0.750  0.000-   4 1.59  24 1.59  39 1.59  51 1.59
  29  0.000  0.250  0.500-   5 1.59  17 1.59  34 1.59  54 1.59
  30  0.500  0.250  0.500-   6 1.59  18 1.59  33 1.59  53 1.59
  31  0.000  0.750  0.500-   7 1.59  19 1.59  36 1.59  56 1.59
  32  0.500  0.750  0.500-   8 1.59  20 1.59  35 1.59  55 1.59
  33  0.375  0.375  0.375-  12 1.59  30 1.59  47 1.59  57 1.59
  34  0.875  0.375  0.375-  11 1.59  29 1.59  48 1.59  58 1.59
  35  0.375  0.875  0.375-  10 1.59  32 1.59  45 1.59  59 1.59
  36  0.875  0.875  0.375-   9 1.59  31 1.59  46 1.59  60 1.59
  37  0.375  0.375  0.875-  16 1.59  26 1.59  43 1.59  61 1.59
  38  0.875  0.375  0.875-  15 1.59  25 1.59  44 1.59  62 1.59
  39  0.375  0.875  0.875-  14 1.59  28 1.59  41 1.59  63 1.59
  40  0.875  0.875  0.875-  13 1.59  27 1.59  42 1.59  64 1.59
  41  0.250  0.000  0.000-   3 1.59  21 1.59  39 1.59  49 1.59
  42  0.750  0.000  0.000-   4 1.59  22 1.59  40 1.59  50 1.59
  43  0.250  0.500  0.000-   1 1.59  23 1.59  37 1.59  51 1.59
  44  0.750  0.500  0.000-   2 1.59  24 1.59  38 1.59  52 1.59
  45  0.250  0.000  0.500-   7 1.59  17 1.59  35 1.59  53 1.59
  46  0.750  0.000  0.500-   8 1.59  18 1.59  36 1.59  54 1.59
  47  0.250  0.500  0.500-   5 1.59  19 1.59  33 1.59  55 1.59
  48  0.750  0.500  0.500-   6 1.59  20 1.59  34 1.59  56 1.59
  49  0.375  0.125  0.125-  10 1.59  26 1.59  41 1.59  57 1.59
  50  0.875  0.125  0.125-   9 1.59  25 1.59  42 1.59  58 1.59
  51  0.375  0.625  0.125-  12 1.59  28 1.59  43 1.59  59 1.59
  52  0.875  0.625  0.125-  11 1.59  27 1.59  44 1.59  60 1.59
  53  0.375  0.125  0.625-  14 1.59  30 1.59  45 1.59  61 1.59
  54  0.875  0.125  0.625-  13 1.59  29 1.59  46 1.59  62 1.59
  55  0.375  0.625  0.625-  16 1.59  32 1.59  47 1.59  63 1.59
  56  0.875  0.625  0.625-  15 1.59  31 1.59  48 1.59  64 1.59
  57  0.250  0.250  0.250-   1 1.59  17 1.59  33 1.59  49 1.59
  58  0.750  0.250  0.250-   2 1.59  18 1.59  34 1.59  50 1.59
  59  0.250  0.750  0.250-   3 1.59  19 1.59  35 1.59  51 1.59
  60  0.750  0.750  0.250-   4 1.59  20 1.59  36 1.59  52 1.59
  61  0.250  0.250  0.750-   5 1.59  21 1.59  37 1.59  53 1.59
  62  0.750  0.250  0.750-   6 1.59  22 1.59  38 1.59  54 1.59
  63  0.250  0.750  0.750-   7 1.59  23 1.59  39 1.59  55 1.59
  64  0.750  0.750  0.750-   8 1.59  24 1.59  40 1.59  56 1.59
 
  LATTYP: Found a simple cubic cell.
 ALAT       =     7.3221899000
  
  Lattice vectors:
  
 A1 = (   7.3221899000,   0.0000000000,   0.0000000000)
 A2 = (   0.0000000000,   7.3221899000,   0.0000000000)
 A3 = (   0.0000000000,   0.0000000000,   7.3221899000)


Analysis of symmetry for initial positions (statically):
=====================================================================
 Subroutine PRICEL returns following result:
 
  LATTYP: Found a face centered cubic cell.
 ALAT       =     3.6610949500
  
  Lattice vectors:
  
 A1 = (   1.8305474750,   1.8305474750,   0.0000000000)
 A2 = (   1.8305474750,   0.0000000000,  -1.8305474750)
 A3 = (   0.0000000000,   1.8305474750,  -1.8305474750)
 
  32 primitive cells build up your supercell.
 

 Routine SETGRP: Setting up the symmetry group for a 
 simple cubic supercell.


 Subroutine GETGRP returns: Found 48 space group operations
 (whereof 24 operations were pure point group operations)
 out of a pool of 48 trial point group operations.


The static configuration has the point symmetry T_d .
 The point group associated with its full space group is O_h .


Analysis of symmetry for dynamics (positions and initial velocities):
=====================================================================
 Subroutine PRICEL returns following result:
 
  LATTYP: Found a face centered cubic cell.
 ALAT       =     3.6610949500
  
  Lattice vectors:
  
 A1 = (   1.8305474750,   1.8305474750,   0.0000000000)
 A2 = (   1.8305474750,   0.0000000000,  -1.8305474750)
 A3 = (   0.0000000000,   1.8305474750,  -1.8305474750)
 
  32 primitive cells build up your supercell.
 

 Routine SETGRP: Setting up the symmetry group for a 
 simple cubic supercell.


 Subroutine GETGRP returns: Found 48 space group operations
 (whereof 24 operations were pure point group operations)
 out of a pool of 48 trial point group operations.


The dynamic configuration has the point symmetry T_d .
 The point group associated with its full space group is O_h .


 Subroutine INISYM returns: Found 48 space group operations
 (whereof 24 operations are pure point group operations),
 and found    32 'primitive' translations

 
 
 KPOINTS: kpt_density=3000                        

Automatic generation of k-mesh.
Space group operators:
 irot       det(A)        alpha          n_x          n_y          n_z        tau_x        tau_y        tau_z
    1     1.000000     0.000000     1.000000     0.000000     0.000000     0.000000     0.000000     0.000000
    2     1.000000   120.000000    -0.577350    -0.577350    -0.577350     0.000000     0.000000     0.000000
    3     1.000000   120.000000     0.577350     0.577350     0.577350     0.000000     0.000000     0.000000
    4    -1.000000    90.000000     0.000000     0.000000    -1.000000     0.000000     0.000000     0.000000
    5    -1.000000   180.000000     0.000000     0.707107     0.707107     0.000000     0.000000     0.000000
    6    -1.000000    90.000000     0.000000     1.000000     0.000000     0.000000     0.000000     0.000000
    7     1.000000   180.000000     0.000000     0.000000     1.000000     0.000000     0.000000     0.000000
    8     1.000000   120.000000    -0.577350     0.577350     0.577350     0.000000     0.000000     0.000000
    9     1.000000   120.000000    -0.577350     0.577350    -0.577350     0.000000     0.000000     0.000000
   10    -1.000000    90.000000     0.000000     0.000000     1.000000     0.000000     0.000000     0.000000
   11    -1.000000    90.000000    -1.000000     0.000000     0.000000     0.000000     0.000000     0.000000
   12    -1.000000   180.000000     0.707107     0.000000     0.707107     0.000000     0.000000     0.000000
   13     1.000000   120.000000     0.577350    -0.577350     0.577350     0.000000     0.000000     0.000000
   14     1.000000   120.000000    -0.577350    -0.577350     0.577350     0.000000     0.000000     0.000000
   15     1.000000   180.000000     1.000000     0.000000     0.000000     0.000000     0.000000     0.000000
   16    -1.000000    90.000000     0.000000    -1.000000     0.000000     0.000000     0.000000     0.000000
   17    -1.000000   180.000000     0.707107     0.707107     0.000000     0.000000     0.000000     0.000000
   18    -1.000000    90.000000     1.000000     0.000000     0.000000     0.000000     0.000000     0.000000
   19     1.000000   120.000000     0.577350    -0.577350    -0.577350     0.000000     0.000000     0.000000
   20     1.000000   180.000000     0.000000     1.000000     0.000000     0.000000     0.000000     0.000000
   21     1.000000   120.000000     0.577350     0.577350    -0.577350     0.000000     0.000000     0.000000
   22    -1.000000   180.000000     0.000000    -0.707107     0.707107     0.000000     0.000000     0.000000
   23    -1.000000   180.000000     0.707107    -0.707107     0.000000     0.000000     0.000000     0.000000
   24    -1.000000   180.000000     0.707107     0.000000    -0.707107     0.000000     0.000000     0.000000
   25    -1.000000     0.000000     1.000000     0.000000     0.000000     0.375000     0.375000    -0.375000
   26    -1.000000   120.000000    -0.577350    -0.577350    -0.577350     0.375000     0.375000    -0.375000
   27    -1.000000   120.000000     0.577350     0.577350     0.577350     0.375000     0.375000    -0.375000
   28     1.000000    90.000000     0.000000     0.000000    -1.000000     0.375000     0.375000    -0.375000
   29     1.000000   180.000000     0.000000     0.707107     0.707107     0.375000     0.375000    -0.375000
   30     1.000000    90.000000     0.000000     1.000000     0.000000     0.375000     0.375000    -0.375000
   31    -1.000000   180.000000     0.000000     0.000000     1.000000     0.375000     0.375000    -0.375000
   32    -1.000000   120.000000    -0.577350     0.577350     0.577350     0.375000     0.375000    -0.375000
   33    -1.000000   120.000000    -0.577350     0.577350    -0.577350     0.375000     0.375000    -0.375000
   34     1.000000    90.000000     0.000000     0.000000     1.000000     0.375000     0.375000    -0.375000
   35     1.000000    90.000000    -1.000000     0.000000     0.000000     0.375000     0.375000    -0.375000
   36     1.000000   180.000000     0.707107     0.000000     0.707107     0.375000     0.375000    -0.375000
   37    -1.000000   120.000000     0.577350    -0.577350     0.577350     0.375000     0.375000    -0.375000
   38    -1.000000   120.000000    -0.577350    -0.577350     0.577350     0.375000     0.375000    -0.375000
   39    -1.000000   180.000000     1.000000     0.000000     0.000000     0.375000     0.375000    -0.375000
   40     1.000000    90.000000     0.000000    -1.000000     0.000000     0.375000     0.375000    -0.375000
   41     1.000000   180.000000     0.707107     0.707107     0.000000     0.375000     0.375000    -0.375000
   42     1.000000    90.000000     1.000000     0.000000     0.000000     0.375000     0.375000    -0.375000
   43    -1.000000   120.000000     0.577350    -0.577350    -0.577350     0.375000     0.375000    -0.375000
   44    -1.000000   180.000000     0.000000     1.000000     0.000000     0.375000     0.375000    -0.375000
   45    -1.000000   120.000000     0.577350     0.577350    -0.577350     0.375000     0.375000    -0.375000
   46     1.000000   180.000000     0.000000    -0.707107     0.707107     0.375000     0.375000    -0.375000
   47     1.000000   180.000000     0.707107    -0.707107     0.000000     0.375000     0.375000    -0.375000
   48     1.000000   180.000000     0.707107     0.000000    -0.707107     0.375000     0.375000    -0.375000
 
 Subroutine IBZKPT returns following result:
 ===========================================
 
 Found     20 irreducible k-points:
 
 Following reciprocal coordinates:
            Coordinates               Weight
  0.000000  0.000000  0.000000      1.000000
  0.166667  0.000000  0.000000      6.000000
  0.333333  0.000000  0.000000      6.000000
  0.500000  0.000000  0.000000      3.000000
  0.166667  0.166667  0.000000     12.000000
  0.333333  0.166667  0.000000     24.000000
  0.500000  0.166667  0.000000     12.000000
  0.333333  0.333333  0.000000     12.000000
  0.500000  0.333333  0.000000     12.000000
  0.500000  0.500000  0.000000      3.000000
  0.166667  0.166667  0.166667      8.000000
  0.333333  0.166667  0.166667     24.000000
  0.500000  0.166667  0.166667     12.000000
  0.333333  0.333333  0.166667     24.000000
  0.500000  0.333333  0.166667     24.000000
  0.500000  0.500000  0.166667      6.000000
  0.333333  0.333333  0.333333      8.000000
  0.500000  0.333333  0.333333     12.000000
  0.500000  0.500000  0.333333      6.000000
  0.500000  0.500000  0.500000      1.000000
 
 Following cartesian coordinates:
            Coordinates               Weight
  0.000000  0.000000  0.000000      1.000000
  0.022762  0.000000  0.000000      6.000000
  0.045524  0.000000  0.000000      6.000000
  0.068286  0.000000  0.000000      3.000000
  0.022762  0.022762  0.000000     12.000000
  0.045524  0.022762  0.000000     24.000000
  0.068286  0.022762  0.000000     12.000000
  0.045524  0.045524  0.000000     12.000000
  0.068286  0.045524  0.000000     12.000000
  0.068286  0.068286  0.000000      3.000000
  0.022762  0.022762  0.022762      8.000000
  0.045524  0.022762  0.022762     24.000000
  0.068286  0.022762  0.022762     12.000000
  0.045524  0.045524  0.022762     24.000000
  0.068286  0.045524  0.022762     24.000000
  0.068286  0.068286  0.022762      6.000000
  0.045524  0.045524  0.045524      8.000000
  0.068286  0.045524  0.045524     12.000000
  0.068286  0.068286  0.045524      6.000000
  0.068286  0.068286  0.068286      1.000000
 
 
 Subroutine IBZKPT_HF returns following result:
 ==============================================
 
 Found    216 k-points in 1st BZ
 the following    216 k-points will be used (e.g. in the exchange kernel)
 Following reciprocal coordinates:   # in IRBZ
  0.000000  0.000000  0.000000    0.00462963   1 t-inv F
  0.166667  0.000000  0.000000    0.00462963   2 t-inv F
  0.333333  0.000000  0.000000    0.00462963   3 t-inv F
  0.500000  0.000000  0.000000    0.00462963   4 t-inv F
  0.166667  0.166667  0.000000    0.00462963   5 t-inv F
  0.333333  0.166667  0.000000    0.00462963   6 t-inv F
  0.500000  0.166667  0.000000    0.00462963   7 t-inv F
  0.333333  0.333333  0.000000    0.00462963   8 t-inv F
  0.500000  0.333333  0.000000    0.00462963   9 t-inv F
  0.500000  0.500000  0.000000    0.00462963  10 t-inv F
  0.166667  0.166667  0.166667    0.00462963  11 t-inv F
  0.333333  0.166667  0.166667    0.00462963  12 t-inv F
  0.500000  0.166667  0.166667    0.00462963  13 t-inv F
  0.333333  0.333333  0.166667    0.00462963  14 t-inv F
  0.500000  0.333333  0.166667    0.00462963  15 t-inv F
  0.500000  0.500000  0.166667    0.00462963  16 t-inv F
  0.333333  0.333333  0.333333    0.00462963  17 t-inv F
  0.500000  0.333333  0.333333    0.00462963  18 t-inv F
  0.500000  0.500000  0.333333    0.00462963  19 t-inv F
  0.500000  0.500000  0.500000    0.00462963  20 t-inv F
  0.000000  0.166667  0.000000    0.00462963   2 t-inv F
  0.000000  0.000000  0.166667    0.00462963   2 t-inv F
  0.000000 -0.166667  0.000000    0.00462963   2 t-inv F
  0.000000  0.000000 -0.166667    0.00462963   2 t-inv F
 -0.166667  0.000000  0.000000    0.00462963   2 t-inv F
  0.000000  0.333333  0.000000    0.00462963   3 t-inv F
  0.000000  0.000000  0.333333    0.00462963   3 t-inv F
  0.000000 -0.333333  0.000000    0.00462963   3 t-inv F
  0.000000  0.000000 -0.333333    0.00462963   3 t-inv F
 -0.333333  0.000000  0.000000    0.00462963   3 t-inv F
  0.000000  0.500000  0.000000    0.00462963   4 t-inv F
  0.000000  0.000000  0.500000    0.00462963   4 t-inv F
  0.000000  0.166667  0.166667    0.00462963   5 t-inv F
  0.166667  0.000000  0.166667    0.00462963   5 t-inv F
  0.166667 -0.166667  0.000000    0.00462963   5 t-inv F
  0.166667  0.000000 -0.166667    0.00462963   5 t-inv F
  0.000000 -0.166667 -0.166667    0.00462963   5 t-inv F
 -0.166667 -0.166667  0.000000    0.00462963   5 t-inv F
  0.000000 -0.166667  0.166667    0.00462963   5 t-inv F
 -0.166667  0.000000  0.166667    0.00462963   5 t-inv F
 -0.166667  0.166667  0.000000    0.00462963   5 t-inv F
 -0.166667  0.000000 -0.166667    0.00462963   5 t-inv F
  0.000000  0.166667 -0.166667    0.00462963   5 t-inv F
  0.000000  0.333333  0.166667    0.00462963   6 t-inv F
  0.166667  0.000000  0.333333    0.00462963   6 t-inv F
  0.166667 -0.333333  0.000000    0.00462963   6 t-inv F
  0.333333  0.000000 -0.166667    0.00462963   6 t-inv F
  0.000000 -0.166667 -0.333333    0.00462963   6 t-inv F
 -0.333333 -0.166667  0.000000    0.00462963   6 t-inv F
  0.000000 -0.333333  0.166667    0.00462963   6 t-inv F
 -0.166667  0.000000  0.333333    0.00462963   6 t-inv F
 -0.166667  0.333333  0.000000    0.00462963   6 t-inv F
 -0.333333  0.000000 -0.166667    0.00462963   6 t-inv F
  0.000000  0.166667 -0.333333    0.00462963   6 t-inv F
  0.000000 -0.333333 -0.166667    0.00462963   6 t-inv F
  0.166667  0.000000 -0.333333    0.00462963   6 t-inv F
  0.333333 -0.166667  0.000000    0.00462963   6 t-inv F
  0.000000 -0.166667  0.333333    0.00462963   6 t-inv F
 -0.166667 -0.333333  0.000000    0.00462963   6 t-inv F
 -0.333333  0.000000  0.166667    0.00462963   6 t-inv F
 -0.166667  0.000000 -0.333333    0.00462963   6 t-inv F
 -0.333333  0.166667  0.000000    0.00462963   6 t-inv F
  0.000000  0.333333 -0.166667    0.00462963   6 t-inv F
  0.333333  0.000000  0.166667    0.00462963   6 t-inv F
  0.166667  0.333333  0.000000    0.00462963   6 t-inv F
  0.000000  0.166667  0.333333    0.00462963   6 t-inv F
  0.000000  0.500000  0.166667    0.00462963   7 t-inv F
  0.166667  0.000000  0.500000    0.00462963   7 t-inv F
  0.166667 -0.500000  0.000000    0.00462963   7 t-inv F
  0.500000  0.000000 -0.166667    0.00462963   7 t-inv F
  0.000000 -0.166667 -0.500000    0.00462963   7 t-inv F
 -0.500000 -0.166667  0.000000    0.00462963   7 t-inv F
 -0.166667  0.000000  0.500000    0.00462963   7 t-inv F
 -0.166667  0.500000  0.000000    0.00462963   7 t-inv F
  0.000000  0.166667 -0.500000    0.00462963   7 t-inv F
  0.000000 -0.500000 -0.166667    0.00462963   7 t-inv F
 -0.500000  0.000000  0.166667    0.00462963   7 t-inv F
  0.000000  0.333333  0.333333    0.00462963   8 t-inv F
  0.333333  0.000000  0.333333    0.00462963   8 t-inv F
  0.333333 -0.333333  0.000000    0.00462963   8 t-inv F
  0.333333  0.000000 -0.333333    0.00462963   8 t-inv F
  0.000000 -0.333333 -0.333333    0.00462963   8 t-inv F
 -0.333333 -0.333333  0.000000    0.00462963   8 t-inv F
  0.000000 -0.333333  0.333333    0.00462963   8 t-inv F
 -0.333333  0.000000  0.333333    0.00462963   8 t-inv F
 -0.333333  0.333333  0.000000    0.00462963   8 t-inv F
 -0.333333  0.000000 -0.333333    0.00462963   8 t-inv F
  0.000000  0.333333 -0.333333    0.00462963   8 t-inv F
  0.000000  0.500000  0.333333    0.00462963   9 t-inv F
  0.333333  0.000000  0.500000    0.00462963   9 t-inv F
  0.333333 -0.500000  0.000000    0.00462963   9 t-inv F
  0.500000  0.000000 -0.333333    0.00462963   9 t-inv F
  0.000000 -0.333333 -0.500000    0.00462963   9 t-inv F
 -0.500000 -0.333333  0.000000    0.00462963   9 t-inv F
 -0.333333  0.000000  0.500000    0.00462963   9 t-inv F
 -0.333333  0.500000  0.000000    0.00462963   9 t-inv F
  0.000000  0.333333 -0.500000    0.00462963   9 t-inv F
  0.000000 -0.500000 -0.333333    0.00462963   9 t-inv F
 -0.500000  0.000000  0.333333    0.00462963   9 t-inv F
  0.000000  0.500000  0.500000    0.00462963  10 t-inv F
  0.500000  0.000000  0.500000    0.00462963  10 t-inv F
  0.166667 -0.166667 -0.166667    0.00462963  11 t-inv F
 -0.166667 -0.166667  0.166667    0.00462963  11 t-inv F
 -0.166667  0.166667 -0.166667    0.00462963  11 t-inv F
 -0.166667 -0.166667 -0.166667    0.00462963  11 t-inv F
 -0.166667  0.166667  0.166667    0.00462963  11 t-inv F
  0.166667  0.166667 -0.166667    0.00462963  11 t-inv F
  0.166667 -0.166667  0.166667    0.00462963  11 t-inv F
  0.166667  0.333333  0.166667    0.00462963  12 t-inv F
  0.166667  0.166667  0.333333    0.00462963  12 t-inv F
  0.166667 -0.333333 -0.166667    0.00462963  12 t-inv F
  0.333333 -0.166667 -0.166667    0.00462963  12 t-inv F
  0.166667 -0.166667 -0.333333    0.00462963  12 t-inv F
 -0.333333 -0.166667  0.166667    0.00462963  12 t-inv F
 -0.166667 -0.333333  0.166667    0.00462963  12 t-inv F
 -0.166667 -0.166667  0.333333    0.00462963  12 t-inv F
 -0.166667  0.333333 -0.166667    0.00462963  12 t-inv F
 -0.333333  0.166667 -0.166667    0.00462963  12 t-inv F
 -0.166667  0.166667 -0.333333    0.00462963  12 t-inv F
 -0.333333 -0.166667 -0.166667    0.00462963  12 t-inv F
 -0.166667 -0.333333 -0.166667    0.00462963  12 t-inv F
 -0.166667 -0.166667 -0.333333    0.00462963  12 t-inv F
 -0.166667  0.333333  0.166667    0.00462963  12 t-inv F
 -0.333333  0.166667  0.166667    0.00462963  12 t-inv F
 -0.166667  0.166667  0.333333    0.00462963  12 t-inv F
  0.333333  0.166667 -0.166667    0.00462963  12 t-inv F
  0.166667  0.333333 -0.166667    0.00462963  12 t-inv F
  0.166667  0.166667 -0.333333    0.00462963  12 t-inv F
  0.166667 -0.333333  0.166667    0.00462963  12 t-inv F
  0.333333 -0.166667  0.166667    0.00462963  12 t-inv F
  0.166667 -0.166667  0.333333    0.00462963  12 t-inv F
  0.166667  0.500000  0.166667    0.00462963  13 t-inv F
  0.166667  0.166667  0.500000    0.00462963  13 t-inv F
  0.166667 -0.500000 -0.166667    0.00462963  13 t-inv F
  0.500000 -0.166667 -0.166667    0.00462963  13 t-inv F
  0.166667 -0.166667 -0.500000    0.00462963  13 t-inv F
 -0.500000 -0.166667  0.166667    0.00462963  13 t-inv F
 -0.166667 -0.500000  0.166667    0.00462963  13 t-inv F
 -0.166667 -0.166667  0.500000    0.00462963  13 t-inv F
 -0.166667  0.500000 -0.166667    0.00462963  13 t-inv F
 -0.500000  0.166667 -0.166667    0.00462963  13 t-inv F
 -0.166667  0.166667 -0.500000    0.00462963  13 t-inv F
  0.166667  0.333333  0.333333    0.00462963  14 t-inv F
  0.333333  0.166667  0.333333    0.00462963  14 t-inv F
  0.333333 -0.333333 -0.166667    0.00462963  14 t-inv F
  0.333333 -0.166667 -0.333333    0.00462963  14 t-inv F
  0.166667 -0.333333 -0.333333    0.00462963  14 t-inv F
 -0.333333 -0.333333  0.166667    0.00462963  14 t-inv F
 -0.166667 -0.333333  0.333333    0.00462963  14 t-inv F
 -0.333333 -0.166667  0.333333    0.00462963  14 t-inv F
 -0.333333  0.333333 -0.166667    0.00462963  14 t-inv F
 -0.333333  0.166667 -0.333333    0.00462963  14 t-inv F
 -0.166667  0.333333 -0.333333    0.00462963  14 t-inv F
 -0.333333 -0.333333 -0.166667    0.00462963  14 t-inv F
 -0.166667 -0.333333 -0.333333    0.00462963  14 t-inv F
 -0.333333 -0.166667 -0.333333    0.00462963  14 t-inv F
 -0.333333  0.333333  0.166667    0.00462963  14 t-inv F
 -0.333333  0.166667  0.333333    0.00462963  14 t-inv F
 -0.166667  0.333333  0.333333    0.00462963  14 t-inv F
  0.333333  0.333333 -0.166667    0.00462963  14 t-inv F
  0.166667  0.333333 -0.333333    0.00462963  14 t-inv F
  0.333333  0.166667 -0.333333    0.00462963  14 t-inv F
  0.333333 -0.333333  0.166667    0.00462963  14 t-inv F
  0.333333 -0.166667  0.333333    0.00462963  14 t-inv F
  0.166667 -0.333333  0.333333    0.00462963  14 t-inv F
  0.166667  0.500000  0.333333    0.00462963  15 t-inv F
  0.333333  0.166667  0.500000    0.00462963  15 t-inv F
  0.333333 -0.500000 -0.166667    0.00462963  15 t-inv F
  0.500000 -0.166667 -0.333333    0.00462963  15 t-inv F
  0.166667 -0.333333 -0.500000    0.00462963  15 t-inv F
 -0.500000 -0.333333  0.166667    0.00462963  15 t-inv F
 -0.166667 -0.500000  0.333333    0.00462963  15 t-inv F
 -0.333333 -0.166667  0.500000    0.00462963  15 t-inv F
 -0.333333  0.500000 -0.166667    0.00462963  15 t-inv F
 -0.500000  0.166667 -0.333333    0.00462963  15 t-inv F
 -0.166667  0.333333 -0.500000    0.00462963  15 t-inv F
  0.166667 -0.500000 -0.333333    0.00462963  15 t-inv F
  0.333333 -0.166667 -0.500000    0.00462963  15 t-inv F
  0.500000 -0.333333 -0.166667    0.00462963  15 t-inv F
 -0.166667 -0.333333  0.500000    0.00462963  15 t-inv F
 -0.333333 -0.500000  0.166667    0.00462963  15 t-inv F
 -0.500000 -0.166667  0.333333    0.00462963  15 t-inv F
 -0.333333  0.166667 -0.500000    0.00462963  15 t-inv F
 -0.500000  0.333333 -0.166667    0.00462963  15 t-inv F
 -0.166667  0.500000 -0.333333    0.00462963  15 t-inv F
  0.500000  0.166667  0.333333    0.00462963  15 t-inv F
  0.333333  0.500000  0.166667    0.00462963  15 t-inv F
  0.166667  0.333333  0.500000    0.00462963  15 t-inv F
  0.166667  0.500000  0.500000    0.00462963  16 t-inv F
  0.500000  0.166667  0.500000    0.00462963  16 t-inv F
  0.500000 -0.500000 -0.166667    0.00462963  16 t-inv F
  0.500000 -0.166667 -0.500000    0.00462963  16 t-inv F
 -0.166667 -0.500000  0.500000    0.00462963  16 t-inv F
  0.333333 -0.333333 -0.333333    0.00462963  17 t-inv F
 -0.333333 -0.333333  0.333333    0.00462963  17 t-inv F
 -0.333333  0.333333 -0.333333    0.00462963  17 t-inv F
 -0.333333 -0.333333 -0.333333    0.00462963  17 t-inv F
 -0.333333  0.333333  0.333333    0.00462963  17 t-inv F
  0.333333  0.333333 -0.333333    0.00462963  17 t-inv F
  0.333333 -0.333333  0.333333    0.00462963  17 t-inv F
  0.333333  0.500000  0.333333    0.00462963  18 t-inv F
  0.333333  0.333333  0.500000    0.00462963  18 t-inv F
  0.333333 -0.500000 -0.333333    0.00462963  18 t-inv F
  0.500000 -0.333333 -0.333333    0.00462963  18 t-inv F
  0.333333 -0.333333 -0.500000    0.00462963  18 t-inv F
 -0.500000 -0.333333  0.333333    0.00462963  18 t-inv F
 -0.333333 -0.500000  0.333333    0.00462963  18 t-inv F
 -0.333333 -0.333333  0.500000    0.00462963  18 t-inv F
 -0.333333  0.500000 -0.333333    0.00462963  18 t-inv F
 -0.500000  0.333333 -0.333333    0.00462963  18 t-inv F
 -0.333333  0.333333 -0.500000    0.00462963  18 t-inv F
  0.333333  0.500000  0.500000    0.00462963  19 t-inv F
  0.500000  0.333333  0.500000    0.00462963  19 t-inv F
  0.500000 -0.500000 -0.333333    0.00462963  19 t-inv F
  0.500000 -0.333333 -0.500000    0.00462963  19 t-inv F
 -0.333333 -0.500000  0.500000    0.00462963  19 t-inv F


--------------------------------------------------------------------------------------------------------




 Dimension of arrays:
   k-points           NKPTS =     20   k-points in BZ     NKDIM =     20   number of bands    NBANDS=    192
   number of dos      NEDOS =    301   number of ions     NIONS =     64
   non local maximal  LDIM  =      4   non local SUM 2l+1 LMDIM =      8
   total plane-waves  NPLWV = 110592
   max r-space proj   IRMAX =      1   max aug-charges    IRDMAX=  26792
   dimension x,y,z NGX =    48 NGY =   48 NGZ =   48
   dimension x,y,z NGXF=    96 NGYF=   96 NGZF=   96
   support grid    NGXF=   192 NGYF=  192 NGZF=  192
   ions per type =              64
   NGX,Y,Z   is equivalent  to a cutoff of  10.90, 10.90, 10.90 a.u.
   NGXF,Y,Z  is equivalent  to a cutoff of  21.80, 21.80, 21.80 a.u.

 SYSTEM =  unknown system                          
 POSCAR =  generated by phonopy                    

 Startparameter for this run:
   NWRITE =      2    write-flag & timer
   PREC   = accura    normal or accurate (medium, high low for compatibility)
   ISTART =      0    job   : 0-new  1-cont  2-samecut
   ICHARG =      2    charge: 1-file 2-atom 10-const
   ISPIN  =      1    spin polarized calculation?
   LNONCOLLINEAR =      F non collinear calculations
   LSORBIT =      F    spin-orbit coupling
   INIWAV =      1    electr: 0-lowe 1-rand  2-diag
   LASPH  =      F    aspherical Exc in radial PAW
   METAGGA=      F    non-selfconsistent MetaGGA calc.

 Electronic Relaxation 1
   ENCUT  =  400.0 eV  29.40 Ry    5.42 a.u.  11.94 11.94 11.94*2*pi/ulx,y,z
   ENINI  =  400.0     initial cutoff
   ENAUG  =  644.9 eV  augmentation charge cutoff
   NELM   =     60;   NELMIN=  2; NELMDL= -5     # of ELM steps 
   EDIFF  = 0.1E-07   stopping-criterion for ELM
   LREAL  =      F    real-space projection
   NLSPLINE    = F    spline interpolate recip. space projectors
   LCOMPAT=      F    compatible to vasp.4.4
   GGA_COMPAT  = T    GGA compatible to vasp.4.4-vasp.4.6
   LMAXPAW     = -100 max onsite density
   LMAXMIX     =    2 max onsite mixed and CHGCAR
   VOSKOWN=      0    Vosko Wilk Nusair interpolation
   ROPT   =    0.00000
 Ionic relaxation
   EDIFFG = 0.1E-06   stopping-criterion for IOM
   NSW    =      1    number of steps for IOM
   NBLOCK =      1;   KBLOCK =      1    inner block; outer block 
   IBRION =      8    ionic relax: 0-MD 1-quasi-New 2-CG
   NFREE  =      0    steps in history (QN), initial steepest desc. (CG)
   ISIF   =      2    stress and relaxation
   IWAVPR =     11    prediction:  0-non 1-charg 2-wave 3-comb
   ISYM   =      2    0-nonsym 1-usesym 2-fastsym
   LCORR  =      T    Harris-Foulkes like correction to forces

   POTIM  = 0.5000    time-step for ionic-motion
   TEIN   =    0.0    initial temperature
   TEBEG  =    0.0;   TEEND  =   0.0 temperature during run
   SMASS  =  -3.00    Nose mass-parameter (am)
   estimated Nose-frequenzy (Omega)   =  0.10E-29 period in steps =****** mass=  -0.123E-26a.u.
   SCALEE = 1.0000    scale energy and forces
   NPACO  =    256;   APACO  = 16.0  distance and # of slots for P.C.
   PSTRESS=    0.0 pullay stress

  Mass of Ions in am
   POMASS =  12.01
  Ionic Valenz
   ZVAL   =   4.00
  Atomic Wigner-Seitz radii
   RWIGS  =  -1.00
  virtual crystal weights 
   VCA    =   1.00
   NELECT =     256.0000    total number of electrons
   NUPDOWN=      -1.0000    fix difference up-down

 DOS related values:
   EMIN   =  10.00;   EMAX   =-10.00  energy-range for DOS
   EFERMI =   0.00
   ISMEAR =     0;   SIGMA  =   0.06  broadening in eV -4-tet -1-fermi 0-gaus

 Electronic relaxation 2 (details)
   IALGO  =     38    algorithm
   LDIAG  =      T    sub-space diagonalisation (order eigenvalues)
   LSUBROT=      F    optimize rotation matrix (better conditioning)
   TURBO    =      0    0=normal 1=particle mesh
   IRESTART =      0    0=no restart 2=restart with 2 vectors
   NREBOOT  =      0    no. of reboots
   NMIN     =      0    reboot dimension
   EREF     =   0.00    reference energy to select bands
   IMIX   =      4    mixing-type and parameters
     AMIX     =   0.40;   BMIX     =  1.00
     AMIX_MAG =   1.60;   BMIX_MAG =  1.00
     AMIN     =   0.10
     WC   =   100.;   INIMIX=   1;  MIXPRE=   1;  MAXMIX= -45

 Intra band minimization:
   WEIMIN = 0.0010     energy-eigenvalue tresh-hold
   EBREAK =  0.13E-10  absolut break condition
   DEPER  =   0.30     relativ break condition  

   TIME   =   0.40     timestep for ELM

  volume/ion in A,a.u.               =       6.13        41.39
  Fermi-wavevector in a.u.,A,eV,Ry     =   1.419647  2.682745 27.421165  2.015399
  Thomas-Fermi vector in A             =   2.540646
 
 Write flags
   LWAVE        =      F    write WAVECAR
   LDOWNSAMPLE  =      F    k-point downsampling of WAVECAR
   LCHARG       =      F    write CHGCAR
   LVTOT        =      F    write LOCPOT, total local potential
   LVHAR        =      F    write LOCPOT, Hartree potential only
   LELF         =      F    write electronic localiz. function (ELF)
   LORBIT       =      0    0 simple, 1 ext, 2 COOP (PROOUT), +10 PAW based schemes


 Dipole corrections
   LMONO  =      F    monopole corrections only (constant potential shift)
   LDIPOL =      F    correct potential (dipole corrections)
   IDIPOL =      0    1-x, 2-y, 3-z, 4-all directions 
   EPSILON=  1.0000000 bulk dielectric constant

 Exchange correlation treatment:
   GGA     =    --    GGA type
   LEXCH   =     8    internal setting for exchange type
   VOSKOWN=      0    Vosko Wilk Nusair interpolation
   LHFCALC =     F    Hartree Fock is set to
   LHFONE  =     F    Hartree Fock one center treatment
   AEXX    =    0.0000 exact exchange contribution

 Linear response parameters
   LEPSILON=     F    determine dielectric tensor
   LRPA    =     F    only Hartree local field effects (RPA)
   LNABLA  =     F    use nabla operator in PAW spheres
   LVEL    =     F    velocity operator in full k-point grid
   LINTERFAST=   F  fast interpolation
   KINTER  =     0    interpolate to denser k-point grid
   CSHIFT  =0.1000    complex shift for real part using Kramers Kronig
   OMEGAMAX=  -1.0    maximum frequency
   DEG_THRESHOLD= 0.2000000E-02 threshold for treating states as degnerate
   RTIME   =   -0.100 relaxation time in fs
  (WPLASMAI=    0.000 imaginary part of plasma frequency in eV, 0.658/RTIME)
   DFIELD  = 0.0000000 0.0000000 0.0000000 field for delta impulse in time
 
 Orbital magnetization related:
   ORBITALMAG=     F  switch on orbital magnetization
   LCHIMAG   =     F  perturbation theory with respect to B field
   DQ        =  0.001000  dq finite difference perturbation B field
   LLRAUG    =     F  two centre corrections for induced B field



--------------------------------------------------------------------------------------------------------


 linear response using symmetry
 charge density and potential will be updated during run
 non-spin polarized calculation
 Variant of blocked Davidson
 Davidson routine will perform the subspace rotation
 perform sub-space diagonalisation
    after iterative eigenvector-optimisation
 modified Broyden-mixing scheme, WC =      100.0
 initial mixing is a Kerker type mixing with AMIX =  0.4000 and BMIX =      1.0000
 Hartree-type preconditioning will be used
 using additional bands           64
 reciprocal scheme for non local part
 calculate Harris-corrections to forces 
   (improved forces if not selfconsistent)
 use gradient corrections 
 use of overlap-Matrix (Vanderbilt PP)
 Gauss-broadening in eV      SIGMA  =   0.06


--------------------------------------------------------------------------------------------------------


  energy-cutoff  :      400.00
  volume of cell :      392.58
      direct lattice vectors                 reciprocal lattice vectors
     7.322189900  0.000000000  0.000000000     0.136571164  0.000000000  0.000000000
     0.000000000  7.322189900  0.000000000     0.000000000  0.136571164  0.000000000
     0.000000000  0.000000000  7.322189900     0.000000000  0.000000000  0.136571164

  length of vectors
     7.322189900  7.322189900  7.322189900     0.136571164  0.136571164  0.136571164


 
 k-points in units of 2pi/SCALE and weight: kpt_density=3000                        
   0.00000000  0.00000000  0.00000000       0.005
   0.02276186  0.00000000  0.00000000       0.028
   0.04552372  0.00000000  0.00000000       0.028
   0.06828558  0.00000000  0.00000000       0.014
   0.02276186  0.02276186  0.00000000       0.056
   0.04552372  0.02276186  0.00000000       0.111
   0.06828558  0.02276186  0.00000000       0.056
   0.04552372  0.04552372  0.00000000       0.056
   0.06828558  0.04552372  0.00000000       0.056
   0.06828558  0.06828558  0.00000000       0.014
   0.02276186  0.02276186  0.02276186       0.037
   0.04552372  0.02276186  0.02276186       0.111
   0.06828558  0.02276186  0.02276186       0.056
   0.04552372  0.04552372  0.02276186       0.111
   0.06828558  0.04552372  0.02276186       0.111
   0.06828558  0.06828558  0.02276186       0.028
   0.04552372  0.04552372  0.04552372       0.037
   0.06828558  0.04552372  0.04552372       0.056
   0.06828558  0.06828558  0.04552372       0.028
   0.06828558  0.06828558  0.06828558       0.005
 
 k-points in reciprocal lattice and weights: kpt_density=3000                        
   0.00000000  0.00000000  0.00000000       0.005
   0.16666667  0.00000000  0.00000000       0.028
   0.33333333  0.00000000  0.00000000       0.028
   0.50000000  0.00000000  0.00000000       0.014
   0.16666667  0.16666667  0.00000000       0.056
   0.33333333  0.16666667  0.00000000       0.111
   0.50000000  0.16666667  0.00000000       0.056
   0.33333333  0.33333333  0.00000000       0.056
   0.50000000  0.33333333  0.00000000       0.056
   0.50000000  0.50000000  0.00000000       0.014
   0.16666667  0.16666667  0.16666667       0.037
   0.33333333  0.16666667  0.16666667       0.111
   0.50000000  0.16666667  0.16666667       0.056
   0.33333333  0.33333333  0.16666667       0.111
   0.50000000  0.33333333  0.16666667       0.111
   0.50000000  0.50000000  0.16666667       0.028
   0.33333333  0.33333333  0.33333333       0.037
   0.50000000  0.33333333  0.33333333       0.056
   0.50000000  0.50000000  0.33333333       0.028
   0.50000000  0.50000000  0.50000000       0.005
 
 position of ions in fractional coordinates (direct lattice) 
   0.12500000  0.37500000  0.12500000
   0.62500000  0.37500000  0.12500000
   0.12500000  0.87500000  0.12500000
   0.62500000  0.87500000  0.12500000
   0.12500000  0.37500000  0.62500000
   0.62500000  0.37500000  0.62500000
   0.12500000  0.87500000  0.62500000
   0.62500000  0.87500000  0.62500000
   0.00000000  0.00000000  0.25000000
   0.50000000  0.00000000  0.25000000
   0.00000000  0.50000000  0.25000000
   0.50000000  0.50000000  0.25000000
   0.00000000  0.00000000  0.75000000
   0.50000000  0.00000000  0.75000000
   0.00000000  0.50000000  0.75000000
   0.50000000  0.50000000  0.75000000
   0.12500000  0.12500000  0.37500000
   0.62500000  0.12500000  0.37500000
   0.12500000  0.62500000  0.37500000
   0.62500000  0.62500000  0.37500000
   0.12500000  0.12500000  0.87500000
   0.62500000  0.12500000  0.87500000
   0.12500000  0.62500000  0.87500000
   0.62500000  0.62500000  0.87500000
   0.00000000  0.25000000  0.00000000
   0.50000000  0.25000000  0.00000000
   0.00000000  0.75000000  0.00000000
   0.50000000  0.75000000  0.00000000
   0.00000000  0.25000000  0.50000000
   0.50000000  0.25000000  0.50000000
   0.00000000  0.75000000  0.50000000
   0.50000000  0.75000000  0.50000000
   0.37500000  0.37500000  0.37500000
   0.87500000  0.37500000  0.37500000
   0.37500000  0.87500000  0.37500000
   0.87500000  0.87500000  0.37500000
   0.37500000  0.37500000  0.87500000
   0.87500000  0.37500000  0.87500000
   0.37500000  0.87500000  0.87500000
   0.87500000  0.87500000  0.87500000
   0.25000000  0.00000000  0.00000000
   0.75000000  0.00000000  0.00000000
   0.25000000  0.50000000  0.00000000
   0.75000000  0.50000000  0.00000000
   0.25000000  0.00000000  0.50000000
   0.75000000  0.00000000  0.50000000
   0.25000000  0.50000000  0.50000000
   0.75000000  0.50000000  0.50000000
   0.37500000  0.12500000  0.12500000
   0.87500000  0.12500000  0.12500000
   0.37500000  0.62500000  0.12500000
   0.87500000  0.62500000  0.12500000
   0.37500000  0.12500000  0.62500000
   0.87500000  0.12500000  0.62500000
   0.37500000  0.62500000  0.62500000
   0.87500000  0.62500000  0.62500000
   0.25000000  0.25000000  0.25000000
   0.75000000  0.25000000  0.25000000
   0.25000000  0.75000000  0.25000000
   0.75000000  0.75000000  0.25000000
   0.25000000  0.25000000  0.75000000
   0.75000000  0.25000000  0.75000000
   0.25000000  0.75000000  0.75000000
   0.75000000  0.75000000  0.75000000
 
 position of ions in cartesian coordinates  (Angst):
   0.91527374  2.74582121  0.91527374
   4.57636869  2.74582121  0.91527374
   0.91527374  6.40691616  0.91527374
   4.57636869  6.40691616  0.91527374
   0.91527374  2.74582121  4.57636869
   4.57636869  2.74582121  4.57636869
   0.91527374  6.40691616  4.57636869
   4.57636869  6.40691616  4.57636869
   0.00000000  0.00000000  1.83054747
   3.66109495  0.00000000  1.83054747
   0.00000000  3.66109495  1.83054747
   3.66109495  3.66109495  1.83054747
   0.00000000  0.00000000  5.49164242
   3.66109495  0.00000000  5.49164242
   0.00000000  3.66109495  5.49164242
   3.66109495  3.66109495  5.49164242
   0.91527374  0.91527374  2.74582121
   4.57636869  0.91527374  2.74582121
   0.91527374  4.57636869  2.74582121
   4.57636869  4.57636869  2.74582121
   0.91527374  0.91527374  6.40691616
   4.57636869  0.91527374  6.40691616
   0.91527374  4.57636869  6.40691616
   4.57636869  4.57636869  6.40691616
   0.00000000  1.83054747  0.00000000
   3.66109495  1.83054747  0.00000000
   0.00000000  5.49164242  0.00000000
   3.66109495  5.49164242  0.00000000
   0.00000000  1.83054747  3.66109495
   3.66109495  1.83054747  3.66109495
   0.00000000  5.49164242  3.66109495
   3.66109495  5.49164242  3.66109495
   2.74582121  2.74582121  2.74582121
   6.40691616  2.74582121  2.74582121
   2.74582121  6.40691616  2.74582121
   6.40691616  6.40691616  2.74582121
   2.74582121  2.74582121  6.40691616
   6.40691616  2.74582121  6.40691616
   2.74582121  6.40691616  6.40691616
   6.40691616  6.40691616  6.40691616
   1.83054747  0.00000000  0.00000000
   5.49164242  0.00000000  0.00000000
   1.83054747  3.66109495  0.00000000
   5.49164242  3.66109495  0.00000000
   1.83054747  0.00000000  3.66109495
   5.49164242  0.00000000  3.66109495
   1.83054747  3.66109495  3.66109495
   5.49164242  3.66109495  3.66109495
   2.74582121  0.91527374  0.91527374
   6.40691616  0.91527374  0.91527374
   2.74582121  4.57636869  0.91527374
   6.40691616  4.57636869  0.91527374
   2.74582121  0.91527374  4.57636869
   6.40691616  0.91527374  4.57636869
   2.74582121  4.57636869  4.57636869
   6.40691616  4.57636869  4.57636869
   1.83054747  1.83054747  1.83054747
   5.49164242  1.83054747  1.83054747
   1.83054747  5.49164242  1.83054747
   5.49164242  5.49164242  1.83054747
   1.83054747  1.83054747  5.49164242
   5.49164242  1.83054747  5.49164242
   1.83054747  5.49164242  5.49164242
   5.49164242  5.49164242  5.49164242
 


--------------------------------------------------------------------------------------------------------


 k-point  1 :   0.0000 0.0000 0.0000  plane waves:    7123
 k-point  2 :   0.1667 0.0000 0.0000  plane waves:    7108
 k-point  3 :   0.3333 0.0000 0.0000  plane waves:    7100
 k-point  4 :   0.5000 0.0000 0.0000  plane waves:    7160
 k-point  5 :   0.1667 0.1667 0.0000  plane waves:    7109
 k-point  6 :   0.3333 0.1667 0.0000  plane waves:    7134
 k-point  7 :   0.5000 0.1667 0.0000  plane waves:    7108
 k-point  8 :   0.3333 0.3333 0.0000  plane waves:    7125
 k-point  9 :   0.5000 0.3333 0.0000  plane waves:    7142
 k-point 10 :   0.5000 0.5000 0.0000  plane waves:    7184
 k-point 11 :   0.1667 0.1667 0.1667  plane waves:    7103
 k-point 12 :   0.3333 0.1667 0.1667  plane waves:    7141
 k-point 13 :   0.5000 0.1667 0.1667  plane waves:    7154
 k-point 14 :   0.3333 0.3333 0.1667  plane waves:    7126
 k-point 15 :   0.5000 0.3333 0.1667  plane waves:    7140
 k-point 16 :   0.5000 0.5000 0.1667  plane waves:    7152
 k-point 17 :   0.3333 0.3333 0.3333  plane waves:    7151
 k-point 18 :   0.5000 0.3333 0.3333  plane waves:    7148
 k-point 19 :   0.5000 0.5000 0.3333  plane waves:    7108
 k-point 20 :   0.5000 0.5000 0.5000  plane waves:    7088

 maximum and minimum number of plane-waves per node :      7184     7088

 maximum number of plane-waves:      7184
 maximum index in each direction: 
   IXMAX=   11   IYMAX=   11   IZMAX=   11
   IXMIN=  -12   IYMIN=  -12   IZMIN=  -12


 serial   3D FFT for wavefunctions
 parallel 3D FFT for charge:
    minimum data exchange during FFTs selected (reduces bandwidth)


 total amount of memory used by VASP MPI-rank0    71934. kBytes
=======================================================================

   base      :      30000. kBytes
   nonl-proj :      16588. kBytes
   fftplans  :       4537. kBytes
   grid      :       5806. kBytes
   one-center:        196. kBytes
   wavefun   :      14807. kBytes
 
     INWAV:  cpu time    0.0004: real time    0.0005
 Broyden mixing: mesh for mixing (old mesh)
   NGX = 23   NGY = 23   NGZ = 23
  (NGX  = 96   NGY  = 96   NGZ  = 96)
  gives a total of  12167 points

 initial charge density was supplied:
 charge density of overlapping atoms calculated
 number of electron     256.0000000 magnetization 
 keeping initial charge density in first step


--------------------------------------------------------------------------------------------------------


 Maximum index for augmentation-charges         1049 (set IRDMAX)


--------------------------------------------------------------------------------------------------------


 First call to EWALD:  gamma=   0.242
 Maximum number of real-space cells 3x 3x 3
 Maximum number of reciprocal cells 3x 3x 3

    FEWALD:  cpu time    0.0087: real time    0.0087


--------------------------------------- Iteration      1(   1)  ---------------------------------------


    POTLOK:  cpu time    0.0668: real time    0.0939
    SETDIJ:  cpu time    0.0393: real time    0.0395
     EDDAV:  cpu time   14.2950: real time   14.3048
       DOS:  cpu time    0.0065: real time    0.0065
    --------------------------------------------
      LOOP:  cpu time   14.4076: real time   14.4448

 eigenvalue-minimisations  :  7680
 total energy-change (2. order) : 0.4978552E+03  (-0.1122788E+05)
 number of electron     256.0000000 magnetization 
 augmentation part      256.0000000 magnetization 

 Free energy of the ion-electron system (eV)
  ---------------------------------------------------
  alpha Z        PSCENC =       850.13692194
  Ewald energy   TEWEN  =    -10847.90348818
  -Hartree energ DENC   =      -620.03631813
  -exchange      EXHF   =         0.00000000
  -V(xc)+E(xc)   XCENC  =       899.55181882
  PAW double counting   =      2421.21235816    -2494.84305711
  entropy T*S    EENTRO =        -0.00867011
  eigenvalues    EBANDS =       873.60328963
  atomic energy  EATOM  =      9416.14232778
  Solvation  Ediel_sol  =         0.00000000
  ---------------------------------------------------
  free energy    TOTEN  =       497.85518279 eV

  energy without entropy =      497.86385290  energy(sigma->0) =      497.85951785


--------------------------------------------------------------------------------------------------------




--------------------------------------- Iteration      1(   2)  ---------------------------------------


     EDDAV:  cpu time   18.3081: real time   18.3100
       DOS:  cpu time    0.0030: real time    0.0030
    --------------------------------------------
      LOOP:  cpu time   18.3111: real time   18.3130

 eigenvalue-minimisations  : 10144
 total energy-change (2. order) :-0.1050720E+04  (-0.1000877E+04)
 number of electron     256.0000000 magnetization 
 augmentation part      256.0000000 magnetization 

 Free energy of the ion-electron system (eV)
  ---------------------------------------------------
  alpha Z        PSCENC =       850.13692194
  Ewald energy   TEWEN  =    -10847.90348818
  -Hartree energ DENC   =      -620.03631813
  -exchange      EXHF   =         0.00000000
  -V(xc)+E(xc)   XCENC  =       899.55181882
  PAW double counting   =      2421.21235816    -2494.84305711
  entropy T*S    EENTRO =        -0.00000000
  eigenvalues    EBANDS =      -177.12562744
  atomic energy  EATOM  =      9416.14232778
  Solvation  Ediel_sol  =         0.00000000
  ---------------------------------------------------
  free energy    TOTEN  =      -552.86506417 eV

  energy without entropy =     -552.86506417  energy(sigma->0) =     -552.86506417


--------------------------------------------------------------------------------------------------------




--------------------------------------- Iteration      1(   3)  ---------------------------------------


     EDDAV:  cpu time   17.5671: real time   17.5690
       DOS:  cpu time    0.0029: real time    0.0029
    --------------------------------------------
      LOOP:  cpu time   17.5700: real time   17.5718

 eigenvalue-minimisations  : 10240
 total energy-change (2. order) :-0.4182558E+02  (-0.4157233E+02)
 number of electron     256.0000000 magnetization 
 augmentation part      256.0000000 magnetization 

 Free energy of the ion-electron system (eV)
  ---------------------------------------------------
  alpha Z        PSCENC =       850.13692194
  Ewald energy   TEWEN  =    -10847.90348818
  -Hartree energ DENC   =      -620.03631813
  -exchange      EXHF   =         0.00000000
  -V(xc)+E(xc)   XCENC  =       899.55181882
  PAW double counting   =      2421.21235816    -2494.84305711
  entropy T*S    EENTRO =        -0.00000000
  eigenvalues    EBANDS =      -218.95121056
  atomic energy  EATOM  =      9416.14232778
  Solvation  Ediel_sol  =         0.00000000
  ---------------------------------------------------
  free energy    TOTEN  =      -594.69064729 eV

  energy without entropy =     -594.69064729  energy(sigma->0) =     -594.69064729


--------------------------------------------------------------------------------------------------------




--------------------------------------- Iteration      1(   4)  ---------------------------------------


     EDDAV:  cpu time   17.4692: real time   17.4711
       DOS:  cpu time    0.0032: real time    0.0032
    --------------------------------------------
      LOOP:  cpu time   17.4724: real time   17.4744

 eigenvalue-minimisations  : 10432
 total energy-change (2. order) :-0.5040444E+00  (-0.5031950E+00)
 number of electron     256.0000000 magnetization 
 augmentation part      256.0000000 magnetization 

 Free energy of the ion-electron system (eV)
  ---------------------------------------------------
  alpha Z        PSCENC =       850.13692194
  Ewald energy   TEWEN  =    -10847.90348818
  -Hartree energ DENC   =      -620.03631813
  -exchange      EXHF   =         0.00000000
  -V(xc)+E(xc)   XCENC  =       899.55181882
  PAW double counting   =      2421.21235816    -2494.84305711
  entropy T*S    EENTRO =        -0.00000000
  eigenvalues    EBANDS =      -219.45525491
  atomic energy  EATOM  =      9416.14232778
  Solvation  Ediel_sol  =         0.00000000
  ---------------------------------------------------
  free energy    TOTEN  =      -595.19469164 eV

  energy without entropy =     -595.19469164  energy(sigma->0) =     -595.19469164


--------------------------------------------------------------------------------------------------------




--------------------------------------- Iteration      1(   5)  ---------------------------------------


     EDDAV:  cpu time   16.2468: real time   16.2484
       DOS:  cpu time    0.0034: real time    0.0034
    CHARGE:  cpu time    0.5178: real time    0.5181
    MIXING:  cpu time    0.0042: real time    0.0042
    --------------------------------------------
      LOOP:  cpu time   16.7722: real time   16.7741

 eigenvalue-minimisations  :  9664
 total energy-change (2. order) :-0.8719851E-02  (-0.8717066E-02)
 number of electron     256.0000004 magnetization 
 augmentation part        5.8120334 magnetization 

 Broyden mixing:
  rms(total) = 0.24430E+01    rms(broyden)= 0.24425E+01
  rms(prec ) = 0.35357E+01
  weight for this iteration     100.00

 Free energy of the ion-electron system (eV)
  ---------------------------------------------------
  alpha Z        PSCENC =       850.13692194
  Ewald energy   TEWEN  =    -10847.90348818
  -Hartree energ DENC   =      -620.03631813
  -exchange      EXHF   =         0.00000000
  -V(xc)+E(xc)   XCENC  =       899.55181882
  PAW double counting   =      2421.21235816    -2494.84305711
  entropy T*S    EENTRO =        -0.00000000
  eigenvalues    EBANDS =      -219.46397476
  atomic energy  EATOM  =      9416.14232778
  Solvation  Ediel_sol  =         0.00000000
  ---------------------------------------------------
  free energy    TOTEN  =      -595.20341150 eV

  energy without entropy =     -595.20341150  energy(sigma->0) =     -595.20341150


--------------------------------------------------------------------------------------------------------




--------------------------------------- Iteration      1(   6)  ---------------------------------------


    POTLOK:  cpu time    0.0570: real time    0.0573
    SETDIJ:  cpu time    0.0386: real time    0.0386
     EDDAV:  cpu time   17.0219: real time   17.0234
       DOS:  cpu time    0.0123: real time    0.0123
    CHARGE:  cpu time    0.5297: real time    0.5297
    MIXING:  cpu time    0.0083: real time    0.0083
    --------------------------------------------
      LOOP:  cpu time   17.6679: real time   17.6697

 eigenvalue-minimisations  :  9120
 total energy-change (2. order) : 0.1179996E+02  (-0.7941420E+00)
 number of electron     256.0000004 magnetization 
 augmentation part        5.6865827 magnetization 

 Broyden mixing:
  rms(total) = 0.13578E+01    rms(broyden)= 0.13577E+01
  rms(prec ) = 0.19441E+01
  weight for this iteration     100.00

 eigenvalues of (default mixing * dielectric matrix)
  average eigenvalue GAMMA=   2.1987
  2.1987

 Free energy of the ion-electron system (eV)
  ---------------------------------------------------
  alpha Z        PSCENC =       850.13692194
  Ewald energy   TEWEN  =    -10847.90348818
  -Hartree energ DENC   =      -732.58585583
  -exchange      EXHF   =         0.00000000
  -V(xc)+E(xc)   XCENC  =       910.00376476
  PAW double counting   =      3040.12028573    -3117.29321018
  entropy T*S    EENTRO =        -0.00000000
  eigenvalues    EBANDS =      -102.02419776
  atomic energy  EATOM  =      9416.14232778
  Solvation  Ediel_sol  =         0.00000000
  ---------------------------------------------------
  free energy    TOTEN  =      -583.40345175 eV

  energy without entropy =     -583.40345175  energy(sigma->0) =     -583.40345175


--------------------------------------------------------------------------------------------------------




--------------------------------------- Iteration      1(   7)  ---------------------------------------


    POTLOK:  cpu time    0.0736: real time    0.0740
    SETDIJ:  cpu time    0.0445: real time    0.0445
     EDDAV:  cpu time   16.4462: real time   16.4476
       DOS:  cpu time    0.0029: real time    0.0029
    CHARGE:  cpu time    0.5110: real time    0.5110
    MIXING:  cpu time    0.0111: real time    0.0110
    --------------------------------------------
      LOOP:  cpu time   17.0893: real time   17.0911

 eigenvalue-minimisations  :  9184
 total energy-change (2. order) : 0.3993114E+01  (-0.9296207E+00)
 number of electron     256.0000004 magnetization 
 augmentation part        5.5552937 magnetization 

 Broyden mixing:
  rms(total) = 0.18864E+00    rms(broyden)= 0.18772E+00
  rms(prec ) = 0.23089E+00
  weight for this iteration     100.00

 eigenvalues of (default mixing * dielectric matrix)
  average eigenvalue GAMMA=   2.2713
  2.0091  2.5335

 Free energy of the ion-electron system (eV)
  ---------------------------------------------------
  alpha Z        PSCENC =       850.13692194
  Ewald energy   TEWEN  =    -10847.90348818
  -Hartree energ DENC   =      -877.51820592
  -exchange      EXHF   =         0.00000000
  -V(xc)+E(xc)   XCENC  =       923.66814231
  PAW double counting   =      3875.27570575    -3955.79900646
  entropy T*S    EENTRO =        -0.00000000
  eigenvalues    EBANDS =        36.58726480
  atomic energy  EATOM  =      9416.14232778
  Solvation  Ediel_sol  =         0.00000000
  ---------------------------------------------------
  free energy    TOTEN  =      -579.41033799 eV

  energy without entropy =     -579.41033799  energy(sigma->0) =     -579.41033799


--------------------------------------------------------------------------------------------------------




--------------------------------------- Iteration      1(   8)  ---------------------------------------


    POTLOK:  cpu time    0.0578: real time    0.0583
    SETDIJ:  cpu time    0.0383: real time    0.0383
     EDDAV:  cpu time   16.2722: real time   16.2736
       DOS:  cpu time    0.0029: real time    0.0029
    CHARGE:  cpu time    0.5101: real time    0.5101
    MIXING:  cpu time    0.0046: real time    0.0046
    --------------------------------------------
      LOOP:  cpu time   16.8860: real time   16.8879

 eigenvalue-minimisations  :  9728
 total energy-change (2. order) :-0.5222540E-01  (-0.2144060E-01)
 number of electron     256.0000004 magnetization 
 augmentation part        5.5650249 magnetization 

 Broyden mixing:
  rms(total) = 0.20361E-01    rms(broyden)= 0.20098E-01
  rms(prec ) = 0.24740E-01
  weight for this iteration     100.00

 eigenvalues of (default mixing * dielectric matrix)
  average eigenvalue GAMMA=   2.1064
  1.4646  2.6828  2.1719

 Free energy of the ion-electron system (eV)
  ---------------------------------------------------
  alpha Z        PSCENC =       850.13692194
  Ewald energy   TEWEN  =    -10847.90348818
  -Hartree energ DENC   =      -879.84134001
  -exchange      EXHF   =         0.00000000
  -V(xc)+E(xc)   XCENC  =       923.90469101
  PAW double counting   =      3918.05840887    -3997.58133572
  entropy T*S    EENTRO =        -0.00000000
  eigenvalues    EBANDS =        37.62125093
  atomic energy  EATOM  =      9416.14232778
  Solvation  Ediel_sol  =         0.00000000
  ---------------------------------------------------
  free energy    TOTEN  =      -579.46256339 eV

  energy without entropy =     -579.46256339  energy(sigma->0) =     -579.46256339


--------------------------------------------------------------------------------------------------------




--------------------------------------- Iteration      1(   9)  ---------------------------------------


    POTLOK:  cpu time    0.0648: real time    0.0651
    SETDIJ:  cpu time    0.0420: real time    0.0420
     EDDAV:  cpu time   16.6691: real time   16.6705
       DOS:  cpu time    0.0029: real time    0.0029
    CHARGE:  cpu time    0.5176: real time    0.5177
    MIXING:  cpu time    0.0046: real time    0.0046
    --------------------------------------------
      LOOP:  cpu time   17.3009: real time   17.3028

 eigenvalue-minimisations  :  9856
 total energy-change (2. order) :-0.2195761E-02  (-0.3651214E-03)
 number of electron     256.0000004 magnetization 
 augmentation part        5.5639521 magnetization 

 Broyden mixing:
  rms(total) = 0.76444E-02    rms(broyden)= 0.76259E-02
  rms(prec ) = 0.97991E-02
  weight for this iteration     100.00

 eigenvalues of (default mixing * dielectric matrix)
  average eigenvalue GAMMA=   2.0535
  0.9683  2.7753  2.4863  1.9841

 Free energy of the ion-electron system (eV)
  ---------------------------------------------------
  alpha Z        PSCENC =       850.13692194
  Ewald energy   TEWEN  =    -10847.90348818
  -Hartree energ DENC   =      -879.35473631
  -exchange      EXHF   =         0.00000000
  -V(xc)+E(xc)   XCENC  =       923.85674502
  PAW double counting   =      3913.08971268    -3992.51760850
  entropy T*S    EENTRO =        -0.00000000
  eigenvalues    EBANDS =        37.08536642
  atomic energy  EATOM  =      9416.14232778
  Solvation  Ediel_sol  =         0.00000000
  ---------------------------------------------------
  free energy    TOTEN  =      -579.46475915 eV

  energy without entropy =     -579.46475915  energy(sigma->0) =     -579.46475915


--------------------------------------------------------------------------------------------------------




--------------------------------------- Iteration      1(  10)  ---------------------------------------


    POTLOK:  cpu time    0.0578: real time    0.0581
    SETDIJ:  cpu time    0.0389: real time    0.0389
     EDDAV:  cpu time   15.8244: real time   15.8258
       DOS:  cpu time    0.0032: real time    0.0032
    CHARGE:  cpu time    0.5215: real time    0.5215
    MIXING:  cpu time    0.0054: real time    0.0054
    --------------------------------------------
      LOOP:  cpu time   16.4511: real time   16.4529

 eigenvalue-minimisations  :  9408
 total energy-change (2. order) :-0.4750368E-03  (-0.4537560E-04)
 number of electron     256.0000004 magnetization 
 augmentation part        5.5636568 magnetization 

 Broyden mixing:
  rms(total) = 0.78451E-03    rms(broyden)= 0.76978E-03
  rms(prec ) = 0.11607E-02
  weight for this iteration     100.00

 eigenvalues of (default mixing * dielectric matrix)
  average eigenvalue GAMMA=   1.9704
  2.9614  2.5533  2.0710  0.9814  1.2849

 Free energy of the ion-electron system (eV)
  ---------------------------------------------------
  alpha Z        PSCENC =       850.13692194
  Ewald energy   TEWEN  =    -10847.90348818
  -Hartree energ DENC   =      -879.77539341
  -exchange      EXHF   =         0.00000000
  -V(xc)+E(xc)   XCENC  =       923.89374165
  PAW double counting   =      3910.11706220    -3989.56054545
  entropy T*S    EENTRO =        -0.00000000
  eigenvalues    EBANDS =        37.48413928
  atomic energy  EATOM  =      9416.14232778
  Solvation  Ediel_sol  =         0.00000000
  ---------------------------------------------------
  free energy    TOTEN  =      -579.46523419 eV

  energy without entropy =     -579.46523419  energy(sigma->0) =     -579.46523419


--------------------------------------------------------------------------------------------------------




--------------------------------------- Iteration      1(  11)  ---------------------------------------


    POTLOK:  cpu time    0.0569: real time    0.0573
    SETDIJ:  cpu time    0.0406: real time    0.0406
     EDDAV:  cpu time   18.2497: real time   18.2513
       DOS:  cpu time    0.0029: real time    0.0028
    CHARGE:  cpu time    0.5159: real time    0.5160
    MIXING:  cpu time    0.0056: real time    0.0056
    --------------------------------------------
      LOOP:  cpu time   18.8716: real time   18.8736

 eigenvalue-minimisations  : 10080
 total energy-change (2. order) :-0.3467647E-05  (-0.1196484E-05)
 number of electron     256.0000004 magnetization 
 augmentation part        5.5634481 magnetization 

 Broyden mixing:
  rms(total) = 0.20920E-03    rms(broyden)= 0.20320E-03
  rms(prec ) = 0.28087E-03
  weight for this iteration     100.00

 eigenvalues of (default mixing * dielectric matrix)
  average eigenvalue GAMMA=   1.9956
  3.0087  2.5844  2.3780  2.0171  0.9926  0.9926

 Free energy of the ion-electron system (eV)
  ---------------------------------------------------
  alpha Z        PSCENC =       850.13692194
  Ewald energy   TEWEN  =    -10847.90348818
  -Hartree energ DENC   =      -879.89658928
  -exchange      EXHF   =         0.00000000
  -V(xc)+E(xc)   XCENC  =       923.90506547
  PAW double counting   =      3910.51858207    -3989.96692324
  entropy T*S    EENTRO =        -0.00000000
  eigenvalues    EBANDS =        37.59886579
  atomic energy  EATOM  =      9416.14232778
  Solvation  Ediel_sol  =         0.00000000
  ---------------------------------------------------
  free energy    TOTEN  =      -579.46523766 eV

  energy without entropy =     -579.46523766  energy(sigma->0) =     -579.46523766


--------------------------------------------------------------------------------------------------------




--------------------------------------- Iteration      1(  12)  ---------------------------------------


    POTLOK:  cpu time    0.0581: real time    0.0584
    SETDIJ:  cpu time    0.0394: real time    0.0394
     EDDAV:  cpu time   16.4986: real time   16.5001
       DOS:  cpu time    0.0028: real time    0.0028
    CHARGE:  cpu time    0.5107: real time    0.5107
    MIXING:  cpu time    0.0053: real time    0.0053
    --------------------------------------------
      LOOP:  cpu time   17.1149: real time   17.1167

 eigenvalue-minimisations  :  9824
 total energy-change (2. order) :-0.3688201E-06  (-0.5884001E-07)
 number of electron     256.0000004 magnetization 
 augmentation part        5.5634723 magnetization 

 Broyden mixing:
  rms(total) = 0.17468E-04    rms(broyden)= 0.16023E-04
  rms(prec ) = 0.19357E-04
  weight for this iteration     100.00

 eigenvalues of (default mixing * dielectric matrix)
  average eigenvalue GAMMA=   1.8806
  2.9568  2.6458  2.4998  2.0334  0.9669  1.0308  1.0308

 Free energy of the ion-electron system (eV)
  ---------------------------------------------------
  alpha Z        PSCENC =       850.13692194
  Ewald energy   TEWEN  =    -10847.90348818
  -Hartree energ DENC   =      -879.87744209
  -exchange      EXHF   =         0.00000000
  -V(xc)+E(xc)   XCENC  =       923.90329421
  PAW double counting   =      3910.56899308    -3990.01524844
  entropy T*S    EENTRO =        -0.00000000
  eigenvalues    EBANDS =        37.57940367
  atomic energy  EATOM  =      9416.14232778
  Solvation  Ediel_sol  =         0.00000000
  ---------------------------------------------------
  free energy    TOTEN  =      -579.46523802 eV

  energy without entropy =     -579.46523802  energy(sigma->0) =     -579.46523802


--------------------------------------------------------------------------------------------------------




--------------------------------------- Iteration      1(  13)  ---------------------------------------


    POTLOK:  cpu time    0.0572: real time    0.0575
    SETDIJ:  cpu time    0.0388: real time    0.0388
     EDDAV:  cpu time   14.4266: real time   14.4279
       DOS:  cpu time    0.0029: real time    0.0029
    CHARGE:  cpu time    0.5136: real time    0.5136
    MIXING:  cpu time    0.0056: real time    0.0056
    --------------------------------------------
      LOOP:  cpu time   15.0448: real time   15.0464

 eigenvalue-minimisations  :  7456
 total energy-change (2. order) :-0.1258595E-06  (-0.8867519E-09)
 number of electron     256.0000004 magnetization 
 augmentation part        5.5634682 magnetization 

 Broyden mixing:
  rms(total) = 0.47253E-05    rms(broyden)= 0.44717E-05
  rms(prec ) = 0.56004E-05
  weight for this iteration     100.00

 eigenvalues of (default mixing * dielectric matrix)
  average eigenvalue GAMMA=   2.0226
  3.0125  3.0125  2.0350  2.6232  2.5021  1.0131  1.0131  0.9690

 Free energy of the ion-electron system (eV)
  ---------------------------------------------------
  alpha Z        PSCENC =       850.13692194
  Ewald energy   TEWEN  =    -10847.90348818
  -Hartree energ DENC   =      -879.87691703
  -exchange      EXHF   =         0.00000000
  -V(xc)+E(xc)   XCENC  =       923.90324414
  PAW double counting   =      3910.57055021    -3990.01681404
  entropy T*S    EENTRO =        -0.00000000
  eigenvalues    EBANDS =        37.57893704
  atomic energy  EATOM  =      9416.14232778
  Solvation  Ediel_sol  =         0.00000000
  ---------------------------------------------------
  free energy    TOTEN  =      -579.46523815 eV

  energy without entropy =     -579.46523815  energy(sigma->0) =     -579.46523815


--------------------------------------------------------------------------------------------------------




--------------------------------------- Iteration      1(  14)  ---------------------------------------


    POTLOK:  cpu time    0.0573: real time    0.0577
    SETDIJ:  cpu time    0.0384: real time    0.0384
     EDDAV:  cpu time   12.7887: real time   12.7898
       DOS:  cpu time    0.0032: real time    0.0032
    --------------------------------------------
      LOOP:  cpu time   12.8876: real time   12.8891

 eigenvalue-minimisations  :  6624
 total energy-change (2. order) :-0.8876668E-08  (-0.1357787E-09)
 number of electron     256.0000004 magnetization 
 augmentation part        5.5634682 magnetization 

 Free energy of the ion-electron system (eV)
  ---------------------------------------------------
  alpha Z        PSCENC =       850.13692194
  Ewald energy   TEWEN  =    -10847.90348818
  -Hartree energ DENC   =      -879.87650075
  -exchange      EXHF   =         0.00000000
  -V(xc)+E(xc)   XCENC  =       923.90320505
  PAW double counting   =      3910.56455019    -3990.01080544
  entropy T*S    EENTRO =        -0.00000000
  eigenvalues    EBANDS =        37.57855125
  atomic energy  EATOM  =      9416.14232778
  Solvation  Ediel_sol  =         0.00000000
  ---------------------------------------------------
  free energy    TOTEN  =      -579.46523816 eV

  energy without entropy =     -579.46523816  energy(sigma->0) =     -579.46523816


--------------------------------------------------------------------------------------------------------




 average (electrostatic) potential at core
  the test charge radii are     0.6991
  (the norm of the test charge is              1.0000)
       1 -46.4986       2 -46.4986       3 -46.4986       4 -46.4986       5 -46.4986
       6 -46.4986       7 -46.4986       8 -46.4986       9 -46.4986      10 -46.4986
      11 -46.4986      12 -46.4986      13 -46.4986      14 -46.4986      15 -46.4986
      16 -46.4986      17 -46.4986      18 -46.4986      19 -46.4986      20 -46.4986
      21 -46.4986      22 -46.4986      23 -46.4986      24 -46.4986      25 -46.4986
      26 -46.4986      27 -46.4986      28 -46.4986      29 -46.4986      30 -46.4986
      31 -46.4986      32 -46.4986      33 -46.4986      34 -46.4986      35 -46.4986
      36 -46.4986      37 -46.4986      38 -46.4986      39 -46.4986      40 -46.4986
      41 -46.4986      42 -46.4986      43 -46.4986      44 -46.4986      45 -46.4986
      46 -46.4986      47 -46.4986      48 -46.4986      49 -46.4986      50 -46.4986
      51 -46.4986      52 -46.4986      53 -46.4986      54 -46.4986      55 -46.4986
      56 -46.4986      57 -46.4986      58 -46.4986      59 -46.4986      60 -46.4986
      61 -46.4986      62 -46.4986      63 -46.4986      64 -46.4986
 
 
 
 E-fermi :   9.0136     XC(G=0): -12.8349     alpha+bet :-16.3662


 k-point     1 :       0.0000    0.0000    0.0000
  band No.  band energies     occupation 
      1     -11.8009      2.00000
      2      -9.6394      2.00000
      3      -9.6394      2.00000
      4      -9.6394      2.00000
      5      -9.6394      2.00000
      6      -9.6394      2.00000
      7      -9.6394      2.00000
      8      -7.5908      2.00000
      9      -7.5908      2.00000
     10      -7.5908      2.00000
     11      -7.5908      2.00000
     12      -7.5908      2.00000
     13      -7.5908      2.00000
     14      -7.5908      2.00000
     15      -7.5908      2.00000
     16      -7.5908      2.00000
     17      -7.5908      2.00000
     18      -7.5908      2.00000
     19      -7.5908      2.00000
     20      -6.4624      2.00000
     21      -6.4624      2.00000
     22      -6.4624      2.00000
     23      -6.4624      2.00000
     24      -3.8827      2.00000
     25      -3.8827      2.00000
     26      -3.8827      2.00000
     27      -3.8827      2.00000
     28      -3.5792      2.00000
     29      -3.5792      2.00000
     30      -3.5792      2.00000
     31      -3.5792      2.00000
     32      -3.5792      2.00000
     33      -3.5792      2.00000
     34      -2.9080      2.00000
     35      -2.9080      2.00000
     36      -2.9080      2.00000
     37      -2.9080      2.00000
     38      -2.9080      2.00000
     39      -2.9080      2.00000
     40      -2.9080      2.00000
     41      -2.9080      2.00000
     42      -2.9080      2.00000
     43      -2.9080      2.00000
     44      -2.9080      2.00000
     45      -2.9080      2.00000
     46       0.3246      2.00000
     47       0.3246      2.00000
     48       0.3246      2.00000
     49       0.3246      2.00000
     50       0.3246      2.00000
     51       0.3246      2.00000
     52       0.3246      2.00000
     53       0.3246      2.00000
     54       0.3246      2.00000
     55       0.3246      2.00000
     56       0.3246      2.00000
     57       0.3246      2.00000
     58       0.9864      2.00000
     59       0.9864      2.00000
     60       0.9864      2.00000
     61       0.9864      2.00000
     62       0.9864      2.00000
     63       0.9864      2.00000
     64       0.9864      2.00000
     65       0.9864      2.00000
     66       0.9864      2.00000
     67       0.9864      2.00000
     68       0.9864      2.00000
     69       0.9864      2.00000
     70       1.5765      2.00000
     71       1.5765      2.00000
     72       1.5765      2.00000
     73       1.5765      2.00000
     74       1.5765      2.00000
     75       1.5765      2.00000
     76       1.5765      2.00000
     77       1.5765      2.00000
     78       1.5765      2.00000
     79       1.5765      2.00000
     80       1.5765      2.00000
     81       1.5765      2.00000
     82       2.8181      2.00000
     83       2.8181      2.00000
     84       2.8181      2.00000
     85       2.8181      2.00000
     86       2.8181      2.00000
     87       2.8181      2.00000
     88       4.2201      2.00000
     89       4.2201      2.00000
     90       4.2201      2.00000
     91       4.2201      2.00000
     92       4.2201      2.00000
     93       4.2201      2.00000
     94       4.8552      2.00000
     95       4.8552      2.00000
     96       4.8552      2.00000
     97       4.8552      2.00000
     98       4.8552      2.00000
     99       4.8552      2.00000
    100       4.8552      2.00000
    101       4.8552      2.00000
    102       4.8552      2.00000
    103       4.8552      2.00000
    104       4.8552      2.00000
    105       4.8552      2.00000
    106       5.8688      2.00000
    107       5.8688      2.00000
    108       5.8688      2.00000
    109       5.8688      2.00000
    110       5.8688      2.00000
[...]
      4.576369  0.915274  6.406916     0.073789    0.043029    0.028206  
      0.915274  4.576369  6.406916    -0.007150   -0.195110   -0.028206  
      4.576369  4.576369  6.406916    -0.007150    0.043029   -0.065760  
      0.000000  1.830547  0.000000     0.086524   -0.118656    0.058006  
      3.661095  1.830547  0.000000     0.086524    0.024595   -0.022997  
      0.000000  5.491642  0.000000     0.038982   -0.118656    0.022997  
      3.661095  5.491642  0.000000     0.038982    0.024595   -0.058006  
      0.000000  1.830547  3.661095    -0.038982   -0.024595    0.058006  
      3.661095  1.830547  3.661095    -0.038982    0.118656   -0.022997  
      0.000000  5.491642  3.661095    -0.086524   -0.024595    0.022997  
      3.661095  5.491642  3.661095    -0.086524    0.118656   -0.058006  
      2.745821  2.745821  2.745821    -0.032622    0.054821   -0.072361  
      6.406916  2.745821  2.745821    -0.032622    0.097259    0.037265  
      2.745821  6.406916  2.745821    -0.034018    0.054821   -0.037265  
      6.406916  6.406916  2.745821    -0.034018    0.097259    0.072361  
      2.745821  2.745821  6.406916     0.034018   -0.097259   -0.072361  
      6.406916  2.745821  6.406916     0.034018   -0.054821    0.037265  
      2.745821  6.406916  6.406916     0.032622   -0.097259   -0.037265  
      6.406916  6.406916  6.406916     0.032622   -0.054821    0.072361  
      1.830547  0.000000  0.000000     0.093046   -0.151471    0.031122  
      5.491642  0.000000  0.000000     0.093046    0.057410    0.066131  
      1.830547  3.661095  0.000000     0.032460   -0.151471   -0.066131  
      5.491642  3.661095  0.000000     0.032460    0.057410   -0.031122  
      1.830547  0.000000  3.661095    -0.032460   -0.057410    0.031122  
      5.491642  0.000000  3.661095    -0.032460    0.151471    0.066131  
      1.830547  3.661095  3.661095    -0.093046   -0.057410   -0.066131  
      5.491642  3.661095  3.661095    -0.093046    0.151471   -0.031122  
      2.745821  0.915274  0.915274     0.086960   -0.013615   -0.007830  
      6.406916  0.915274  0.915274     0.086960    0.028823    0.101796  
      2.745821  4.576369  0.915274     0.006021   -0.013615   -0.101796  
      6.406916  4.576369  0.915274     0.006021    0.028823    0.007830  
      2.745821  0.915274  4.576369    -0.006021   -0.028823   -0.007830  
      6.406916  0.915274  4.576369    -0.006021    0.013615    0.101796  
      2.745821  4.576369  4.576369    -0.086960   -0.028823   -0.101796  
      6.406916  4.576369  4.576369    -0.086960    0.013615    0.007830  
      1.830547  1.830547  1.830547     0.038490   -0.052047   -0.000000  
      5.491642  1.830547  1.830547     0.038490    0.156835    0.035009  
      1.830547  5.491642  1.830547    -0.009052   -0.052047   -0.035009  
      5.491642  5.491642  1.830547    -0.009052    0.156835   -0.000000  
      1.830547  1.830547  5.491642     0.009052   -0.156835    0.000000  
      5.491642  1.830547  5.491642     0.009052    0.052047    0.035009  
      1.830547  5.491642  5.491642    -0.038490   -0.156835   -0.035009  
      5.491642  5.491642  5.491642    -0.038490    0.052047    0.000000  
 
 190 f/i=    0.000002 THz     0.000015 2PiTHz    0.000077 cm-1     0.000010 meV
             X         Y         Z           dx          dy          dz
      0.915274  2.745821  0.915274     0.000409   -0.001189    0.124994  
      4.576369  2.745821  0.915274     0.000409   -0.001189    0.124994  
      0.915274  6.406916  0.915274     0.000409   -0.001189    0.124994  
      4.576369  6.406916  0.915274     0.000409   -0.001189    0.124994  
      0.915274  2.745821  4.576369     0.000409   -0.001189    0.124994  
      4.576369  2.745821  4.576369     0.000409   -0.001189    0.124994  
      0.915274  6.406916  4.576369     0.000409   -0.001189    0.124994  
      4.576369  6.406916  4.576369     0.000409   -0.001189    0.124994  
      0.000000  0.000000  1.830547     0.000409   -0.001189    0.124994  
      3.661095  0.000000  1.830547     0.000409   -0.001189    0.124994  
      0.000000  3.661095  1.830547     0.000409   -0.001189    0.124994  
      3.661095  3.661095  1.830547     0.000409   -0.001189    0.124994  
      0.000000  0.000000  5.491642     0.000409   -0.001189    0.124994  
      3.661095  0.000000  5.491642     0.000409   -0.001189    0.124994  
      0.000000  3.661095  5.491642     0.000409   -0.001189    0.124994  
      3.661095  3.661095  5.491642     0.000409   -0.001189    0.124994  
      0.915274  0.915274  2.745821     0.000409   -0.001189    0.124994  
      4.576369  0.915274  2.745821     0.000409   -0.001189    0.124994  
      0.915274  4.576369  2.745821     0.000409   -0.001189    0.124994  
      4.576369  4.576369  2.745821     0.000409   -0.001189    0.124994  
      0.915274  0.915274  6.406916     0.000409   -0.001189    0.124994  
      4.576369  0.915274  6.406916     0.000409   -0.001189    0.124994  
      0.915274  4.576369  6.406916     0.000409   -0.001189    0.124994  
      4.576369  4.576369  6.406916     0.000409   -0.001189    0.124994  
      0.000000  1.830547  0.000000     0.000409   -0.001189    0.124994  
      3.661095  1.830547  0.000000     0.000409   -0.001189    0.124994  
      0.000000  5.491642  0.000000     0.000409   -0.001189    0.124994  
      3.661095  5.491642  0.000000     0.000409   -0.001189    0.124994  
      0.000000  1.830547  3.661095     0.000409   -0.001189    0.124994  
      3.661095  1.830547  3.661095     0.000409   -0.001189    0.124994  
      0.000000  5.491642  3.661095     0.000409   -0.001189    0.124994  
      3.661095  5.491642  3.661095     0.000409   -0.001189    0.124994  
      2.745821  2.745821  2.745821     0.000409   -0.001189    0.124994  
      6.406916  2.745821  2.745821     0.000409   -0.001189    0.124994  
      2.745821  6.406916  2.745821     0.000409   -0.001189    0.124994  
      6.406916  6.406916  2.745821     0.000409   -0.001189    0.124994  
      2.745821  2.745821  6.406916     0.000409   -0.001189    0.124994  
      6.406916  2.745821  6.406916     0.000409   -0.001189    0.124994  
      2.745821  6.406916  6.406916     0.000409   -0.001189    0.124994  
      6.406916  6.406916  6.406916     0.000409   -0.001189    0.124994  
      1.830547  0.000000  0.000000     0.000409   -0.001189    0.124994  
      5.491642  0.000000  0.000000     0.000409   -0.001189    0.124994  
      1.830547  3.661095  0.000000     0.000409   -0.001189    0.124994  
      5.491642  3.661095  0.000000     0.000409   -0.001189    0.124994  
      1.830547  0.000000  3.661095     0.000409   -0.001189    0.124994  
      5.491642  0.000000  3.661095     0.000409   -0.001189    0.124994  
      1.830547  3.661095  3.661095     0.000409   -0.001189    0.124994  
      5.491642  3.661095  3.661095     0.000409   -0.001189    0.124994  
      2.745821  0.915274  0.915274     0.000409   -0.001189    0.124994  
      6.406916  0.915274  0.915274     0.000409   -0.001189    0.124994  
      2.745821  4.576369  0.915274     0.000409   -0.001189    0.124994  
      6.406916  4.576369  0.915274     0.000409   -0.001189    0.124994  
      2.745821  0.915274  4.576369     0.000409   -0.001189    0.124994  
      6.406916  0.915274  4.576369     0.000409   -0.001189    0.124994  
      2.745821  4.576369  4.576369     0.000409   -0.001189    0.124994  
      6.406916  4.576369  4.576369     0.000409   -0.001189    0.124994  
      1.830547  1.830547  1.830547     0.000409   -0.001189    0.124994  
      5.491642  1.830547  1.830547     0.000409   -0.001189    0.124994  
      1.830547  5.491642  1.830547     0.000409   -0.001189    0.124994  
      5.491642  5.491642  1.830547     0.000409   -0.001189    0.124994  
      1.830547  1.830547  5.491642     0.000409   -0.001189    0.124994  
      5.491642  1.830547  5.491642     0.000409   -0.001189    0.124994  
      1.830547  5.491642  5.491642     0.000409   -0.001189    0.124994  
      5.491642  5.491642  5.491642     0.000409   -0.001189    0.124994  
 
 191 f/i=    0.000002 THz     0.000015 2PiTHz    0.000079 cm-1     0.000010 meV
             X         Y         Z           dx          dy          dz
      0.915274  2.745821  0.915274    -0.109116   -0.060981   -0.000223  
      4.576369  2.745821  0.915274    -0.109116   -0.060981   -0.000223  
      0.915274  6.406916  0.915274    -0.109116   -0.060981   -0.000223  
      4.576369  6.406916  0.915274    -0.109116   -0.060981   -0.000223  
      0.915274  2.745821  4.576369    -0.109116   -0.060981   -0.000223  
      4.576369  2.745821  4.576369    -0.109116   -0.060981   -0.000223  
      0.915274  6.406916  4.576369    -0.109116   -0.060981   -0.000223  
      4.576369  6.406916  4.576369    -0.109116   -0.060981   -0.000223  
      0.000000  0.000000  1.830547    -0.109116   -0.060981   -0.000223  
      3.661095  0.000000  1.830547    -0.109116   -0.060981   -0.000223  
      0.000000  3.661095  1.830547    -0.109116   -0.060981   -0.000223  
      3.661095  3.661095  1.830547    -0.109116   -0.060981   -0.000223  
      0.000000  0.000000  5.491642    -0.109116   -0.060981   -0.000223  
      3.661095  0.000000  5.491642    -0.109116   -0.060981   -0.000223  
      0.000000  3.661095  5.491642    -0.109116   -0.060981   -0.000223  
      3.661095  3.661095  5.491642    -0.109116   -0.060981   -0.000223  
      0.915274  0.915274  2.745821    -0.109116   -0.060981   -0.000223  
      4.576369  0.915274  2.745821    -0.109116   -0.060981   -0.000223  
      0.915274  4.576369  2.745821    -0.109116   -0.060981   -0.000223  
      4.576369  4.576369  2.745821    -0.109116   -0.060981   -0.000223  
      0.915274  0.915274  6.406916    -0.109116   -0.060981   -0.000223  
      4.576369  0.915274  6.406916    -0.109116   -0.060981   -0.000223  
      0.915274  4.576369  6.406916    -0.109116   -0.060981   -0.000223  
      4.576369  4.576369  6.406916    -0.109116   -0.060981   -0.000223  
      0.000000  1.830547  0.000000    -0.109116   -0.060981   -0.000223  
      3.661095  1.830547  0.000000    -0.109116   -0.060981   -0.000223  
      0.000000  5.491642  0.000000    -0.109116   -0.060981   -0.000223  
      3.661095  5.491642  0.000000    -0.109116   -0.060981   -0.000223  
      0.000000  1.830547  3.661095    -0.109116   -0.060981   -0.000223  
      3.661095  1.830547  3.661095    -0.109116   -0.060981   -0.000223  
      0.000000  5.491642  3.661095    -0.109116   -0.060981   -0.000223  
      3.661095  5.491642  3.661095    -0.109116   -0.060981   -0.000223  
      2.745821  2.745821  2.745821    -0.109116   -0.060981   -0.000223  
      6.406916  2.745821  2.745821    -0.109116   -0.060981   -0.000223  
      2.745821  6.406916  2.745821    -0.109116   -0.060981   -0.000223  
      6.406916  6.406916  2.745821    -0.109116   -0.060981   -0.000223  
      2.745821  2.745821  6.406916    -0.109116   -0.060981   -0.000223  
      6.406916  2.745821  6.406916    -0.109116   -0.060981   -0.000223  
      2.745821  6.406916  6.406916    -0.109116   -0.060981   -0.000223  
      6.406916  6.406916  6.406916    -0.109116   -0.060981   -0.000223  
      1.830547  0.000000  0.000000    -0.109116   -0.060981   -0.000223  
      5.491642  0.000000  0.000000    -0.109116   -0.060981   -0.000223  
      1.830547  3.661095  0.000000    -0.109116   -0.060981   -0.000223  
      5.491642  3.661095  0.000000    -0.109116   -0.060981   -0.000223  
      1.830547  0.000000  3.661095    -0.109116   -0.060981   -0.000223  
      5.491642  0.000000  3.661095    -0.109116   -0.060981   -0.000223  
      1.830547  3.661095  3.661095    -0.109116   -0.060981   -0.000223  
      5.491642  3.661095  3.661095    -0.109116   -0.060981   -0.000223  
      2.745821  0.915274  0.915274    -0.109116   -0.060981   -0.000223  
      6.406916  0.915274  0.915274    -0.109116   -0.060981   -0.000223  
      2.745821  4.576369  0.915274    -0.109116   -0.060981   -0.000223  
      6.406916  4.576369  0.915274    -0.109116   -0.060981   -0.000223  
      2.745821  0.915274  4.576369    -0.109116   -0.060981   -0.000223  
      6.406916  0.915274  4.576369    -0.109116   -0.060981   -0.000223  
      2.745821  4.576369  4.576369    -0.109116   -0.060981   -0.000223  
      6.406916  4.576369  4.576369    -0.109116   -0.060981   -0.000223  
      1.830547  1.830547  1.830547    -0.109116   -0.060981   -0.000223  
      5.491642  1.830547  1.830547    -0.109116   -0.060981   -0.000223  
      1.830547  5.491642  1.830547    -0.109116   -0.060981   -0.000223  
      5.491642  5.491642  1.830547    -0.109116   -0.060981   -0.000223  
      1.830547  1.830547  5.491642    -0.109116   -0.060981   -0.000223  
      5.491642  1.830547  5.491642    -0.109116   -0.060981   -0.000223  
      1.830547  5.491642  5.491642    -0.109116   -0.060981   -0.000223  
      5.491642  5.491642  5.491642    -0.109116   -0.060981   -0.000223  
 
 192 f/i=    0.000003 THz     0.000017 2PiTHz    0.000093 cm-1     0.000011 meV
             X         Y         Z           dx          dy          dz
      0.915274  2.745821  0.915274     0.060981   -0.109109   -0.001237  
      4.576369  2.745821  0.915274     0.060981   -0.109109   -0.001237  
      0.915274  6.406916  0.915274     0.060981   -0.109109   -0.001237  
      4.576369  6.406916  0.915274     0.060981   -0.109109   -0.001237  
      0.915274  2.745821  4.576369     0.060981   -0.109109   -0.001237  
      4.576369  2.745821  4.576369     0.060981   -0.109109   -0.001237  
      0.915274  6.406916  4.576369     0.060981   -0.109109   -0.001237  
      4.576369  6.406916  4.576369     0.060981   -0.109109   -0.001237  
      0.000000  0.000000  1.830547     0.060981   -0.109109   -0.001237  
      3.661095  0.000000  1.830547     0.060981   -0.109109   -0.001237  
      0.000000  3.661095  1.830547     0.060981   -0.109109   -0.001237  
      3.661095  3.661095  1.830547     0.060981   -0.109109   -0.001237  
      0.000000  0.000000  5.491642     0.060981   -0.109109   -0.001237  
      3.661095  0.000000  5.491642     0.060981   -0.109109   -0.001237  
      0.000000  3.661095  5.491642     0.060981   -0.109109   -0.001237  
      3.661095  3.661095  5.491642     0.060981   -0.109109   -0.001237  
      0.915274  0.915274  2.745821     0.060981   -0.109109   -0.001237  
      4.576369  0.915274  2.745821     0.060981   -0.109109   -0.001237  
      0.915274  4.576369  2.745821     0.060981   -0.109109   -0.001237  
      4.576369  4.576369  2.745821     0.060981   -0.109109   -0.001237  
      0.915274  0.915274  6.406916     0.060981   -0.109109   -0.001237  
      4.576369  0.915274  6.406916     0.060981   -0.109109   -0.001237  
      0.915274  4.576369  6.406916     0.060981   -0.109109   -0.001237  
      4.576369  4.576369  6.406916     0.060981   -0.109109   -0.001237  
      0.000000  1.830547  0.000000     0.060981   -0.109109   -0.001237  
      3.661095  1.830547  0.000000     0.060981   -0.109109   -0.001237  
      0.000000  5.491642  0.000000     0.060981   -0.109109   -0.001237  
      3.661095  5.491642  0.000000     0.060981   -0.109109   -0.001237  
      0.000000  1.830547  3.661095     0.060981   -0.109109   -0.001237  
      3.661095  1.830547  3.661095     0.060981   -0.109109   -0.001237  
      0.000000  5.491642  3.661095     0.060981   -0.109109   -0.001237  
      3.661095  5.491642  3.661095     0.060981   -0.109109   -0.001237  
      2.745821  2.745821  2.745821     0.060981   -0.109109   -0.001237  
      6.406916  2.745821  2.745821     0.060981   -0.109109   -0.001237  
      2.745821  6.406916  2.745821     0.060981   -0.109109   -0.001237  
      6.406916  6.406916  2.745821     0.060981   -0.109109   -0.001237  
      2.745821  2.745821  6.406916     0.060981   -0.109109   -0.001237  
      6.406916  2.745821  6.406916     0.060981   -0.109109   -0.001237  
      2.745821  6.406916  6.406916     0.060981   -0.109109   -0.001237  
      6.406916  6.406916  6.406916     0.060981   -0.109109   -0.001237  
      1.830547  0.000000  0.000000     0.060981   -0.109109   -0.001237  
      5.491642  0.000000  0.000000     0.060981   -0.109109   -0.001237  
      1.830547  3.661095  0.000000     0.060981   -0.109109   -0.001237  
      5.491642  3.661095  0.000000     0.060981   -0.109109   -0.001237  
      1.830547  0.000000  3.661095     0.060981   -0.109109   -0.001237  
      5.491642  0.000000  3.661095     0.060981   -0.109109   -0.001237  
      1.830547  3.661095  3.661095     0.060981   -0.109109   -0.001237  
      5.491642  3.661095  3.661095     0.060981   -0.109109   -0.001237  
      2.745821  0.915274  0.915274     0.060981   -0.109109   -0.001237  
      6.406916  0.915274  0.915274     0.060981   -0.109109   -0.001237  
      2.745821  4.576369  0.915274     0.060981   -0.109109   -0.001237  
      6.406916  4.576369  0.915274     0.060981   -0.109109   -0.001237  
      2.745821  0.915274  4.576369     0.060981   -0.109109   -0.001237  
      6.406916  0.915274  4.576369     0.060981   -0.109109   -0.001237  
      2.745821  4.576369  4.576369     0.060981   -0.109109   -0.001237  
      6.406916  4.576369  4.576369     0.060981   -0.109109   -0.001237  
      1.830547  1.830547  1.830547     0.060981   -0.109109   -0.001237  
      5.491642  1.830547  1.830547     0.060981   -0.109109   -0.001237  
      1.830547  5.491642  1.830547     0.060981   -0.109109   -0.001237  
      5.491642  5.491642  1.830547     0.060981   -0.109109   -0.001237  
      1.830547  1.830547  5.491642     0.060981   -0.109109   -0.001237  
      5.491642  1.830547  5.491642     0.060981   -0.109109   -0.001237  
      1.830547  5.491642  5.491642     0.060981   -0.109109   -0.001237  
      5.491642  5.491642  5.491642     0.060981   -0.109109   -0.001237  
 


--------------------------------------------------------------------------------------------------------



 ELASTIC MODULI CONTR FROM IONIC RELAXATION (kBar)
 Direction    XX          YY          ZZ          XY          YZ          ZX
 --------------------------------------------------------------------------------
 XX          -0.0000     -0.0000     -0.0000     -0.0000     -0.0000      0.0000
 YY          -0.0000     -0.0000     -0.0000     -0.0000     -0.0000     -0.0000
 ZZ          -0.0000     -0.0000     -0.0000     -0.0000     -0.0000      0.0000
 XY          -0.0000     -0.0000     -0.0000     -1.3531      0.0000     -0.0000
 YZ          -0.0000     -0.0000     -0.0000      0.0000     -1.3531      0.0000
 ZX           0.0000     -0.0000      0.0000     -0.0000      0.0000     -1.3531
 --------------------------------------------------------------------------------



--------------------------------------------------------------------------------------------------------


     LOOP+:  cpu time  880.6971: real time  880.9996
    4ORBIT:  cpu time    0.0000: real time    0.0000

 total amount of memory used by VASP MPI-rank0    71934. kBytes
=======================================================================

   base      :      30000. kBytes
   nonl-proj :      16588. kBytes
   fftplans  :       4537. kBytes
   grid      :       5806. kBytes
   one-center:        196. kBytes
   wavefun   :      14807. kBytes
 
  
  
 General timing and accounting informations for this job:
 ========================================================
  
                  Total CPU time used (sec):      889.703
                            User time (sec):      884.908
                          System time (sec):        4.796
                         Elapsed time (sec):      890.029
  
                   Maximum memory used (kb):      399540.
                   Average memory used (kb):           0.
  
                          Minor page faults:        39321
                          Major page faults:           35
                 Voluntary context switches:          847
