# Thermal properties / unit cell (natom)

unit:
  temperature:   K
  free_energy:   kJ/mol
  entropy:       J/K/mol
  heat_capacity: J/K/mol

natom: 8    
cutoff_frequency:    0.000
num_modes: 2654208
num_integrated_modes: 2654208

zero_point_energy:     128.3841707
high_T_entropy:        447.7732850

thermal_properties:
- temperature:         0.0000000
  free_energy:       128.3841707
  entropy:             0.0000000
  heat_capacity:       0.0000000
  energy:            128.3841707

- temperature:         2.0000000
  free_energy:       128.3841707
  entropy:             0.0000000
  heat_capacity:       0.0000000
  energy:            128.3841707

- temperature:         4.0000000
  free_energy:       128.3841707
  entropy:             0.0000111
  heat_capacity:       0.0000672
  energy:            128.3841708

- temperature:         6.0000000
  free_energy:       128.3841707
  entropy:             0.0000856
  heat_capacity:       0.0003614
  energy:            128.3841712

- temperature:         8.0000000
  free_energy:       128.3841703
  entropy:             0.0002595
  heat_capacity:       0.0009239
  energy:            128.3841724

- temperature:        10.0000000
  free_energy:       128.3841695
  entropy:             0.0005556
  heat_capacity:       0.0018290
  energy:            128.3841751

- temperature:        12.0000000
  free_energy:       128.3841680
  entropy:             0.0010003
  heat_capacity:       0.0031706
  energy:            128.3841800

- temperature:        14.0000000
  free_energy:       128.3841654
  entropy:             0.0016223
  heat_capacity:       0.0050424
  energy:            128.3841881

- temperature:        16.0000000
  free_energy:       128.3841614
  entropy:             0.0024510
  heat_capacity:       0.0075370
  energy:            128.3842006

- temperature:        18.0000000
  free_energy:       128.3841555
  entropy:             0.0035166
  heat_capacity:       0.0107472
  energy:            128.3842188

- temperature:        20.0000000
  free_energy:       128.3841471
  entropy:             0.0048494
  heat_capacity:       0.0147666
  energy:            128.3842441

- temperature:        22.0000000
  free_energy:       128.3841359
  entropy:             0.0064802
  heat_capacity:       0.0196904
  energy:            128.3842784

- temperature:        24.0000000
  free_energy:       128.3841210
  entropy:             0.0084399
  heat_capacity:       0.0256154
  energy:            128.3843236

- temperature:        26.0000000
  free_energy:       128.3841019
  entropy:             0.0107600
  heat_capacity:       0.0326404
  energy:            128.3843816

- temperature:        28.0000000
  free_energy:       128.3840777
  entropy:             0.0134722
  heat_capacity:       0.0408666
  energy:            128.3844549

- temperature:        30.0000000
  free_energy:       128.3840477
  entropy:             0.0166089
  heat_capacity:       0.0503975
  energy:            128.3845460

- temperature:        32.0000000
  free_energy:       128.3840110
  entropy:             0.0202029
  heat_capacity:       0.0613402
  energy:            128.3846575

- temperature:        34.0000000
  free_energy:       128.3839666
  entropy:             0.0242877
  heat_capacity:       0.0738046
  energy:            128.3847923

- temperature:        36.0000000
  free_energy:       128.3839135
  entropy:             0.0288973
  heat_capacity:       0.0879051
  energy:            128.3849538

- temperature:        38.0000000
  free_energy:       128.3838506
  entropy:             0.0340667
  heat_capacity:       0.1037604
  energy:            128.3851451

- temperature:        40.0000000
  free_energy:       128.3837768
  entropy:             0.0398315
  heat_capacity:       0.1214947
  energy:            128.3853701

- temperature:        42.0000000
  free_energy:       128.3836908
  entropy:             0.0462285
  heat_capacity:       0.1412382
  energy:            128.3856324

- temperature:        44.0000000
  free_energy:       128.3835914
  entropy:             0.0532956
  heat_capacity:       0.1631283
  energy:            128.3859364

- temperature:        46.0000000
  free_energy:       128.3834772
  entropy:             0.0610716
  heat_capacity:       0.1873105
  energy:            128.3862865

- temperature:        48.0000000
  free_energy:       128.3833466
  entropy:             0.0695972
  heat_capacity:       0.2139393
  energy:            128.3866873

- temperature:        50.0000000
  free_energy:       128.3831983
  entropy:             0.0789142
  heat_capacity:       0.2431790
  energy:            128.3871440

- temperature:        52.0000000
  free_energy:       128.3830304
  entropy:             0.0890663
  heat_capacity:       0.2752048
  energy:            128.3876619

- temperature:        54.0000000
  free_energy:       128.3828414
  entropy:             0.1000993
  heat_capacity:       0.3102031
  energy:            128.3882468

- temperature:        56.0000000
  free_energy:       128.3826294
  entropy:             0.1120606
  heat_capacity:       0.3483719
  energy:            128.3889048

- temperature:        58.0000000
  free_energy:       128.3823925
  entropy:             0.1249999
  heat_capacity:       0.3899213
  energy:            128.3896425

- temperature:        60.0000000
  free_energy:       128.3821287
  entropy:             0.1389694
  heat_capacity:       0.4350726
  energy:            128.3904669

- temperature:        62.0000000
  free_energy:       128.3818359
  entropy:             0.1540233
  heat_capacity:       0.4840585
  energy:            128.3913854

- temperature:        64.0000000
  free_energy:       128.3815119
  entropy:             0.1702183
  heat_capacity:       0.5371221
  energy:            128.3924058

- temperature:        66.0000000
  free_energy:       128.3811543
  entropy:             0.1876135
  heat_capacity:       0.5945159
  energy:            128.3935367

- temperature:        68.0000000
  free_energy:       128.3807606
  entropy:             0.2062704
  heat_capacity:       0.6565004
  energy:            128.3947870

- temperature:        70.0000000
  free_energy:       128.3803283
  entropy:             0.2262528
  heat_capacity:       0.7233432
  energy:            128.3961660

- temperature:        72.0000000
  free_energy:       128.3798546
  entropy:             0.2476267
  heat_capacity:       0.7953169
  energy:            128.3976838

- temperature:        74.0000000
  free_energy:       128.3793368
  entropy:             0.2704601
  heat_capacity:       0.8726979
  energy:            128.3993509

- temperature:        76.0000000
  free_energy:       128.3787718
  entropy:             0.2948232
  heat_capacity:       0.9557644
  energy:            128.4011783

- temperature:        78.0000000
  free_energy:       128.3781564
  entropy:             0.3207877
  heat_capacity:       1.0447950
  energy:            128.4031779

- temperature:        80.0000000
  free_energy:       128.3774875
  entropy:             0.3484272
  heat_capacity:       1.1400667
  energy:            128.4053617

- temperature:        82.0000000
  free_energy:       128.3767616
  entropy:             0.3778162
  heat_capacity:       1.2418538
  energy:            128.4077425

- temperature:        84.0000000
  free_energy:       128.3759750
  entropy:             0.4090309
  heat_capacity:       1.3504258
  energy:            128.4103336

- temperature:        86.0000000
  free_energy:       128.3751242
  entropy:             0.4421480
  heat_capacity:       1.4660466
  energy:            128.4131489

- temperature:        88.0000000
  free_energy:       128.3742051
  entropy:             0.4772450
  heat_capacity:       1.5889730
  energy:            128.4162027

- temperature:        90.0000000
  free_energy:       128.3732138
  entropy:             0.5144000
  heat_capacity:       1.7194533
  energy:            128.4195098

- temperature:        92.0000000
  free_energy:       128.3721461
  entropy:             0.5536912
  heat_capacity:       1.8577267
  energy:            128.4230857

- temperature:        94.0000000
  free_energy:       128.3709976
  entropy:             0.5951968
  heat_capacity:       2.0040225
  energy:            128.4269461

- temperature:        96.0000000
  free_energy:       128.3697638
  entropy:             0.6389947
  heat_capacity:       2.1585590
  energy:            128.4311073

- temperature:        98.0000000
  free_energy:       128.3684400
  entropy:             0.6851625
  heat_capacity:       2.3215432
  energy:            128.4355860

- temperature:       100.0000000
  free_energy:       128.3670215
  entropy:             0.7337771
  heat_capacity:       2.4931704
  energy:            128.4403992

- temperature:       102.0000000
  free_energy:       128.3655032
  entropy:             0.7849146
  heat_capacity:       2.6736238
  energy:            128.4455645

- temperature:       104.0000000
  free_energy:       128.3638801
  entropy:             0.8386499
  heat_capacity:       2.8630740
  energy:            128.4510997

- temperature:       106.0000000
  free_energy:       128.3621469
  entropy:             0.8950572
  heat_capacity:       3.0616795
  energy:            128.4570229

- temperature:       108.0000000
  free_energy:       128.3602981
  entropy:             0.9542090
  heat_capacity:       3.2695860
  energy:            128.4633526

- temperature:       110.0000000
  free_energy:       128.3583281
  entropy:             1.0161765
  heat_capacity:       3.4869268
  energy:            128.4701076

- temperature:       112.0000000
  free_energy:       128.3562314
  entropy:             1.0810293
  heat_capacity:       3.7138228
  energy:            128.4773067

- temperature:       114.0000000
  free_energy:       128.3540021
  entropy:             1.1488354
  heat_capacity:       3.9503827
  energy:            128.4849693

- temperature:       116.0000000
  free_energy:       128.3516341
  entropy:             1.2196610
  heat_capacity:       4.1967029
  energy:            128.4931147

- temperature:       118.0000000
  free_energy:       128.3491214
  entropy:             1.2935704
  heat_capacity:       4.4528681
  energy:            128.5017627

- temperature:       120.0000000
  free_energy:       128.3464577
  entropy:             1.3706261
  heat_capacity:       4.7189513
  energy:            128.5109328

- temperature:       122.0000000
  free_energy:       128.3436367
  entropy:             1.4508886
  heat_capacity:       4.9950141
  energy:            128.5206451

- temperature:       124.0000000
  free_energy:       128.3406520
  entropy:             1.5344162
  heat_capacity:       5.2811070
  energy:            128.5309196

- temperature:       126.0000000
  free_energy:       128.3374968
  entropy:             1.6212653
  heat_capacity:       5.5772697
  energy:            128.5417763

- temperature:       128.0000000
  free_energy:       128.3341646
  entropy:             1.7114901
  heat_capacity:       5.8835313
  energy:            128.5532354

- temperature:       130.0000000
  free_energy:       128.3306486
  entropy:             1.8051427
  heat_capacity:       6.1999107
  energy:            128.5653171

- temperature:       132.0000000
  free_energy:       128.3269418
  entropy:             1.9022729
  heat_capacity:       6.5264169
  energy:            128.5780418

- temperature:       134.0000000
  free_energy:       128.3230371
  entropy:             2.0029284
  heat_capacity:       6.8630491
  energy:            128.5914296

- temperature:       136.0000000
  free_energy:       128.3189277
  entropy:             2.1071548
  heat_capacity:       7.2097973
  energy:            128.6055007

- temperature:       138.0000000
  free_energy:       128.3146061
  entropy:             2.2149953
  heat_capacity:       7.5666423
  energy:            128.6202755

- temperature:       140.0000000
  free_energy:       128.3100652
  entropy:             2.3264911
  heat_capacity:       7.9335562
  energy:            128.6357740

- temperature:       142.0000000
  free_energy:       128.3052977
  entropy:             2.4416810
  heat_capacity:       8.3105024
  energy:            128.6520164

- temperature:       144.0000000
  free_energy:       128.3002960
  entropy:             2.5606016
  heat_capacity:       8.6974362
  energy:            128.6690227

- temperature:       146.0000000
  free_energy:       128.2950528
  entropy:             2.6832875
  heat_capacity:       9.0943049
  energy:            128.6868128

- temperature:       148.0000000
  free_energy:       128.2895604
  entropy:             2.8097711
  heat_capacity:       9.5010479
  energy:            128.7054065

- temperature:       150.0000000
  free_energy:       128.2838111
  entropy:             2.9400823
  heat_capacity:       9.9175974
  energy:            128.7248235

- temperature:       152.0000000
  free_energy:       128.2777975
  entropy:             3.0742493
  heat_capacity:      10.3438782
  energy:            128.7450833

- temperature:       154.0000000
  free_energy:       128.2715116
  entropy:             3.2122979
  heat_capacity:      10.7798081
  energy:            128.7662054

- temperature:       156.0000000
  free_energy:       128.2649457
  entropy:             3.3542519
  heat_capacity:      11.2252983
  energy:            128.7882090

- temperature:       158.0000000
  free_energy:       128.2580919
  entropy:             3.5001329
  heat_capacity:      11.6802536
  energy:            128.8111129

- temperature:       160.0000000
  free_energy:       128.2509425
  entropy:             3.6499607
  heat_capacity:      12.1445723
  energy:            128.8349362

- temperature:       162.0000000
  free_energy:       128.2434894
  entropy:             3.8037528
  heat_capacity:      12.6181471
  energy:            128.8596974

- temperature:       164.0000000
  free_energy:       128.2357248
  entropy:             3.9615248
  heat_capacity:      13.1008646
  energy:            128.8854149

- temperature:       166.0000000
  free_energy:       128.2276407
  entropy:             4.1232903
  heat_capacity:      13.5926061
  energy:            128.9121069

- temperature:       168.0000000
  free_energy:       128.2192290
  entropy:             4.2890610
  heat_capacity:      14.0932477
  energy:            128.9397912

- temperature:       170.0000000
  free_energy:       128.2104818
  entropy:             4.4588467
  heat_capacity:      14.6026604
  energy:            128.9684857

- temperature:       172.0000000
  free_energy:       128.2013909
  entropy:             4.6326553
  heat_capacity:      15.1207104
  energy:            128.9982076

- temperature:       174.0000000
  free_energy:       128.1919485
  entropy:             4.8104929
  heat_capacity:      15.6472594
  energy:            129.0289742

- temperature:       176.0000000
  free_energy:       128.1821463
  entropy:             4.9923636
  heat_capacity:      16.1821650
  energy:            129.0608023

- temperature:       178.0000000
  free_energy:       128.1719763
  entropy:             5.1782699
  heat_capacity:      16.7252803
  energy:            129.0937083

- temperature:       180.0000000
  free_energy:       128.1614305
  entropy:             5.3682125
  heat_capacity:      17.2764551
  energy:            129.1277088

- temperature:       182.0000000
  free_energy:       128.1505008
  entropy:             5.5621905
  heat_capacity:      17.8355353
  energy:            129.1628194

- temperature:       184.0000000
  free_energy:       128.1391790
  entropy:             5.7602011
  heat_capacity:      18.4023635
  energy:            129.1990561

- temperature:       186.0000000
  free_energy:       128.1274573
  entropy:             5.9622402
  heat_capacity:      18.9767793
  energy:            129.2364340

- temperature:       188.0000000
  free_energy:       128.1153274
  entropy:             6.1683017
  heat_capacity:      19.5586194
  energy:            129.2749681

- temperature:       190.0000000
  free_energy:       128.1027814
  entropy:             6.3783783
  heat_capacity:      20.1477178
  energy:            129.3146733

- temperature:       192.0000000
  free_energy:       128.0898112
  entropy:             6.5924609
  heat_capacity:      20.7439061
  energy:            129.3555637

- temperature:       194.0000000
  free_energy:       128.0764089
  entropy:             6.8105393
  heat_capacity:      21.3470137
  energy:            129.3976535

- temperature:       196.0000000
  free_energy:       128.0625664
  entropy:             7.0326014
  heat_capacity:      21.9568680
  energy:            129.4409563

- temperature:       198.0000000
  free_energy:       128.0482758
  entropy:             7.2586340
  heat_capacity:      22.5732948
  energy:            129.4854854

- temperature:       200.0000000
  free_energy:       128.0335292
  entropy:             7.4886224
  heat_capacity:      23.1961182
  energy:            129.5312537

- temperature:       202.0000000
  free_energy:       128.0183187
  entropy:             7.7225508
  heat_capacity:      23.8251611
  energy:            129.5782740

- temperature:       204.0000000
  free_energy:       128.0026364
  entropy:             7.9604018
  heat_capacity:      24.4602451
  energy:            129.6265584

- temperature:       206.0000000
  free_energy:       127.9864745
  entropy:             8.2021571
  heat_capacity:      25.1011911
  energy:            129.6761189

- temperature:       208.0000000
  free_energy:       127.9698252
  entropy:             8.4477969
  heat_capacity:      25.7478191
  energy:            129.7269669

- temperature:       210.0000000
  free_energy:       127.9526807
  entropy:             8.6973003
  heat_capacity:      26.3999488
  energy:            129.7791138

- temperature:       212.0000000
  free_energy:       127.9350334
  entropy:             8.9506455
  heat_capacity:      27.0573993
  energy:            129.8325703

- temperature:       214.0000000
  free_energy:       127.9168756
  entropy:             9.2078094
  heat_capacity:      27.7199898
  energy:            129.8873468

- temperature:       216.0000000
  free_energy:       127.8981997
  entropy:             9.4687680
  heat_capacity:      28.3875393
  energy:            129.9434536

- temperature:       218.0000000
  free_energy:       127.8789980
  entropy:             9.7334961
  heat_capacity:      29.0598671
  energy:            130.0009002

- temperature:       220.0000000
  free_energy:       127.8592632
  entropy:            10.0019677
  heat_capacity:      29.7367928
  energy:            130.0596961

- temperature:       222.0000000
  free_energy:       127.8389877
  entropy:            10.2741559
  heat_capacity:      30.4181368
  energy:            130.1198503

- temperature:       224.0000000
  free_energy:       127.8181641
  entropy:            10.5500328
  heat_capacity:      31.1037197
  energy:            130.1813715

- temperature:       226.0000000
  free_energy:       127.7967851
  entropy:            10.8295698
  heat_capacity:      31.7933633
  energy:            130.2442679

- temperature:       228.0000000
  free_energy:       127.7748434
  entropy:            11.1127373
  heat_capacity:      32.4868903
  energy:            130.3085475

- temperature:       230.0000000
  free_energy:       127.7523318
  entropy:            11.3995050
  heat_capacity:      33.1841243
  energy:            130.3742179

- temperature:       232.0000000
  free_energy:       127.7292430
  entropy:            11.6898420
  heat_capacity:      33.8848903
  energy:            130.4412864

- temperature:       234.0000000
  free_energy:       127.7055700
  entropy:            11.9837166
  heat_capacity:      34.5890146
  energy:            130.5097597

- temperature:       236.0000000
  free_energy:       127.6813058
  entropy:            12.2810963
  heat_capacity:      35.2963251
  energy:            130.5796445

- temperature:       238.0000000
  free_energy:       127.6564433
  entropy:            12.5819483
  heat_capacity:      36.0066511
  energy:            130.6509470

- temperature:       240.0000000
  free_energy:       127.6309757
  entropy:            12.8862388
  heat_capacity:      36.7198235
  energy:            130.7236730

- temperature:       242.0000000
  free_energy:       127.6048961
  entropy:            13.1939339
  heat_capacity:      37.4356754
  energy:            130.7978281

- temperature:       244.0000000
  free_energy:       127.5781977
  entropy:            13.5049987
  heat_capacity:      38.1540413
  energy:            130.8734174

- temperature:       246.0000000
  free_energy:       127.5508739
  entropy:            13.8193981
  heat_capacity:      38.8747579
  energy:            130.9504458

- temperature:       248.0000000
  free_energy:       127.5229179
  entropy:            14.1370966
  heat_capacity:      39.5976639
  energy:            131.0289179

- temperature:       250.0000000
  free_energy:       127.4943233
  entropy:            14.4580581
  heat_capacity:      40.3226002
  energy:            131.1088378

- temperature:       252.0000000
  free_energy:       127.4650836
  entropy:            14.7822460
  heat_capacity:      41.0494098
  energy:            131.1902096

- temperature:       254.0000000
  free_energy:       127.4351922
  entropy:            15.1096237
  heat_capacity:      41.7779379
  energy:            131.2730366

- temperature:       256.0000000
  free_energy:       127.4046430
  entropy:            15.4401539
  heat_capacity:      42.5080321
  energy:            131.3573224

- temperature:       258.0000000
  free_energy:       127.3734295
  entropy:            15.7737991
  heat_capacity:      43.2395424
  energy:            131.4430697

- temperature:       260.0000000
  free_energy:       127.3415457
  entropy:            16.1105217
  heat_capacity:      43.9723211
  energy:            131.5302814

- temperature:       262.0000000
  free_energy:       127.3089854
  entropy:            16.4502837
  heat_capacity:      44.7062231
  energy:            131.6189597

- temperature:       264.0000000
  free_energy:       127.2757426
  entropy:            16.7930467
  heat_capacity:      45.4411056
  energy:            131.7091069

- temperature:       266.0000000
  free_energy:       127.2418113
  entropy:            17.1387724
  heat_capacity:      46.1768285
  energy:            131.8007247

- temperature:       268.0000000
  free_energy:       127.2071855
  entropy:            17.4874222
  heat_capacity:      46.9132542
  energy:            131.8938147

- temperature:       270.0000000
  free_energy:       127.1718596
  entropy:            17.8389573
  heat_capacity:      47.6502478
  energy:            131.9883781

- temperature:       272.0000000
  free_energy:       127.1358278
  entropy:            18.1933388
  heat_capacity:      48.3876769
  energy:            132.0844160

- temperature:       274.0000000
  free_energy:       127.0990844
  entropy:            18.5505278
  heat_capacity:      49.1254117
  energy:            132.1819290

- temperature:       276.0000000
  free_energy:       127.0616239
  entropy:            18.9104851
  heat_capacity:      49.8633252
  energy:            132.2809177

- temperature:       278.0000000
  free_energy:       127.0234407
  entropy:            19.2731716
  heat_capacity:      50.6012929
  energy:            132.3813824

- temperature:       280.0000000
  free_energy:       126.9845294
  entropy:            19.6385482
  heat_capacity:      51.3391930
  energy:            132.4833229

- temperature:       282.0000000
  free_energy:       126.9448847
  entropy:            20.0065756
  heat_capacity:      52.0769064
  energy:            132.5867390

- temperature:       284.0000000
  free_energy:       126.9045013
  entropy:            20.3772146
  heat_capacity:      52.8143168
  energy:            132.6916303

- temperature:       286.0000000
  free_energy:       126.8633741
  entropy:            20.7504261
  heat_capacity:      53.5513104
  energy:            132.7979960

- temperature:       288.0000000
  free_energy:       126.8214979
  entropy:            21.1261710
  heat_capacity:      54.2877760
  energy:            132.9058352

- temperature:       290.0000000
  free_energy:       126.7788678
  entropy:            21.5044100
  heat_capacity:      55.0236054
  energy:            133.0151467

- temperature:       292.0000000
  free_energy:       126.7354787
  entropy:            21.8851043
  heat_capacity:      55.7586926
  energy:            133.1259291

- temperature:       294.0000000
  free_energy:       126.6913257
  entropy:            22.2682148
  heat_capacity:      56.4929345
  energy:            133.2381809

- temperature:       296.0000000
  free_energy:       126.6464042
  entropy:            22.6537027
  heat_capacity:      57.2262307
  energy:            133.3519002

- temperature:       298.0000000
  free_energy:       126.6007094
  entropy:            23.0415293
  heat_capacity:      57.9584832
  energy:            133.4670851

- temperature:       300.0000000
  free_energy:       126.5542366
  entropy:            23.4316561
  heat_capacity:      58.6895968
  energy:            133.5837334

- temperature:       302.0000000
  free_energy:       126.5069812
  entropy:            23.8240445
  heat_capacity:      59.4194786
  energy:            133.7018427

- temperature:       304.0000000
  free_energy:       126.4589389
  entropy:            24.2186563
  heat_capacity:      60.1480385
  energy:            133.8214104

- temperature:       306.0000000
  free_energy:       126.4101052
  entropy:            24.6154534
  heat_capacity:      60.8751887
  energy:            133.9424339

- temperature:       308.0000000
  free_energy:       126.3604757
  entropy:            25.0143978
  heat_capacity:      61.6008441
  energy:            134.0649102

- temperature:       310.0000000
  free_energy:       126.3100462
  entropy:            25.4154518
  heat_capacity:      62.3249221
  energy:            134.1888362

- temperature:       312.0000000
  free_energy:       126.2588125
  entropy:            25.8185778
  heat_capacity:      63.0473422
  energy:            134.3142088

- temperature:       314.0000000
  free_energy:       126.2067705
  entropy:            26.2237386
  heat_capacity:      63.7680267
  energy:            134.4410244

- temperature:       316.0000000
  free_energy:       126.1539162
  entropy:            26.6308971
  heat_capacity:      64.4869000
  energy:            134.5692797

- temperature:       318.0000000
  free_energy:       126.1002456
  entropy:            27.0400163
  heat_capacity:      65.2038891
  energy:            134.6989708

- temperature:       320.0000000
  free_energy:       126.0457548
  entropy:            27.4510596
  heat_capacity:      65.9189232
  energy:            134.8300939

- temperature:       322.0000000
  free_energy:       125.9904401
  entropy:            27.8639907
  heat_capacity:      66.6319337
  energy:            134.9626451

- temperature:       324.0000000
  free_energy:       125.9342976
  entropy:            28.2787735
  heat_capacity:      67.3428544
  energy:            135.0966203

- temperature:       326.0000000
  free_energy:       125.8773238
  entropy:            28.6953721
  heat_capacity:      68.0516212
  energy:            135.2320151

- temperature:       328.0000000
  free_energy:       125.8195150
  entropy:            29.1137509
  heat_capacity:      68.7581723
  energy:            135.3688253

- temperature:       330.0000000
  free_energy:       125.7608676
  entropy:            29.5338747
  heat_capacity:      69.4624480
  energy:            135.5070463

- temperature:       332.0000000
  free_energy:       125.7013783
  entropy:            29.9557083
  heat_capacity:      70.1643907
  energy:            135.6466735

- temperature:       334.0000000
  free_energy:       125.6410437
  entropy:            30.3792172
  heat_capacity:      70.8639448
  energy:            135.7877022

- temperature:       336.0000000
  free_energy:       125.5798604
  entropy:            30.8043669
  heat_capacity:      71.5610569
  energy:            135.9301277

- temperature:       338.0000000
  free_energy:       125.5178251
  entropy:            31.2311233
  heat_capacity:      72.2556755
  energy:            136.0739448

- temperature:       340.0000000
  free_energy:       125.4549348
  entropy:            31.6594524
  heat_capacity:      72.9477510
  energy:            136.2191487

- temperature:       342.0000000
  free_energy:       125.3911863
  entropy:            32.0893210
  heat_capacity:      73.6372361
  energy:            136.3657341

- temperature:       344.0000000
  free_energy:       125.3265765
  entropy:            32.5206957
  heat_capacity:      74.3240848
  energy:            136.5136958

- temperature:       346.0000000
  free_energy:       125.2611025
  entropy:            32.9535436
  heat_capacity:      75.0082534
  energy:            136.6630286

- temperature:       348.0000000
  free_energy:       125.1947614
  entropy:            33.3878323
  heat_capacity:      75.6897000
  energy:            136.8137270

- temperature:       350.0000000
  free_energy:       125.1275503
  entropy:            33.8235295
  heat_capacity:      76.3683842
  energy:            136.9657856

- temperature:       352.0000000
  free_energy:       125.0594664
  entropy:            34.2606033
  heat_capacity:      77.0442675
  energy:            137.1191987

- temperature:       354.0000000
  free_energy:       124.9905070
  entropy:            34.6990221
  heat_capacity:      77.7173132
  energy:            137.2739608

- temperature:       356.0000000
  free_energy:       124.9206694
  entropy:            35.1387546