<?xml version="1.0" encoding="ISO-8859-1"?>
<modeling>
 <generator>
  <i name="program" type="string">vasp </i>
  <i name="version" type="string">5.4.4.18Apr17-6-g9f103f2a35  </i>
  <i name="subversion" type="string">(build Mar 12 2022 03:36:41) complex            parallel </i>
  <i name="platform" type="string">IFC19.0.3.199_CrayMPICH7.7.19 </i>
  <i name="date" type="string">2022 12 02 </i>
  <i name="time" type="string">02:25:22 </i>
 </generator>
 <incar>
  <i type="string" name="PREC">accurate</i>
  <i type="int" name="IALGO">    38</i>
  <i type="logical" name="ADDGRID"> T  </i>
  <i type="int" name="IBRION">     8</i>
  <i name="EDIFF">      0.00000001</i>
  <i type="logical" name="LREAL"> F  </i>
  <i type="int" name="ISMEAR">     0</i>
  <i name="SIGMA">      0.06000000</i>
  <i type="logical" name="LWAVE"> F  </i>
  <i type="logical" name="LCHARG"> F  </i>
  <v type="int" name="KPOINT_BSE">    -1     0     0     0</v>
 </incar>
 <structure name="primitive_cell" >
  <crystal>
   <varray name="basis" >
    <v>       1.83054747       1.83054747       0.00000000 </v>
    <v>       1.83054747       0.00000000      -1.83054747 </v>
    <v>       0.00000000       1.83054747      -1.83054747 </v>
   </varray>
   <i name="volume">     12.26797793 </i>
   <varray name="rec_basis" >
    <v>       0.27314233       0.27314233       0.27314233 </v>
    <v>       0.27314233      -0.27314233      -0.27314233 </v>
    <v>      -0.27314233       0.27314233      -0.27314233 </v>
   </varray>
  </crystal>
  <varray name="positions" >
   <v>       0.25000000       0.25000000       0.25000000 </v>
   <v>      -0.50000000      -0.50000000      -0.50000000 </v>
  </varray>
 </structure>
 <varray name="primitive_index" >
  <v type="int" >        1 </v>
  <v type="int" >       11 </v>
 </varray>
 <kpoints>
  <generation param="Gamma">
   <v type="int" name="divisions">       6        6        6 </v>
   <v name="usershift">      0.00000000       0.00000000       0.00000000 </v>
   <v name="genvec1">      0.16666667       0.00000000       0.00000000 </v>
   <v name="genvec2">      0.00000000       0.16666667       0.00000000 </v>
   <v name="genvec3">      0.00000000       0.00000000       0.16666667 </v>
   <v name="shift">      0.00000000       0.00000000       0.00000000 </v>
  </generation>
  <varray name="kpointlist" >
   <v>       0.00000000       0.00000000       0.00000000 </v>
   <v>       0.16666667       0.00000000       0.00000000 </v>
   <v>       0.33333333       0.00000000       0.00000000 </v>
   <v>       0.50000000       0.00000000       0.00000000 </v>
   <v>       0.16666667       0.16666667       0.00000000 </v>
   <v>       0.33333333       0.16666667       0.00000000 </v>
   <v>       0.50000000       0.16666667       0.00000000 </v>
   <v>       0.33333333       0.33333333       0.00000000 </v>
   <v>       0.50000000       0.33333333       0.00000000 </v>
   <v>       0.50000000       0.50000000       0.00000000 </v>
   <v>       0.16666667       0.16666667       0.16666667 </v>
   <v>       0.33333333       0.16666667       0.16666667 </v>
   <v>       0.50000000       0.16666667       0.16666667 </v>
   <v>       0.33333333       0.33333333       0.16666667 </v>
   <v>       0.50000000       0.33333333       0.16666667 </v>
   <v>       0.50000000       0.50000000       0.16666667 </v>
   <v>       0.33333333       0.33333333       0.33333333 </v>
   <v>       0.50000000       0.33333333       0.33333333 </v>
   <v>       0.50000000       0.50000000       0.33333333 </v>
   <v>       0.50000000       0.50000000       0.50000000 </v>
  </varray>
  <varray name="weights" >
   <v>       0.00462963 </v>
   <v>       0.02777778 </v>
   <v>       0.02777778 </v>
   <v>       0.01388889 </v>
   <v>       0.05555556 </v>
   <v>       0.11111111 </v>
   <v>       0.05555556 </v>
   <v>       0.05555556 </v>
   <v>       0.05555556 </v>
   <v>       0.01388889 </v>
   <v>       0.03703704 </v>
   <v>       0.11111111 </v>
   <v>       0.05555556 </v>
   <v>       0.11111111 </v>
   <v>       0.11111111 </v>
   <v>       0.02777778 </v>
   <v>       0.03703704 </v>
   <v>       0.05555556 </v>
   <v>       0.02777778 </v>
   <v>       0.00462963 </v>
  </varray>
 </kpoints>
 <parameters>
  <separator name="general" >
   <i type="string" name="SYSTEM">unknown system</i>
   <i type="logical" name="LCOMPAT"> F  </i>
  </separator>
  <separator name="electronic" >
   <i type="string" name="PREC">accura</i>
   <i name="ENMAX">    400.00000000</i>
   <i name="ENAUG">    644.87300000</i>
   <i name="EDIFF">      0.00000001</i>
   <i type="int" name="IALGO">    38</i>
   <i type="int" name="IWAVPR">    11</i>
   <i type="int" name="NBANDS">   192</i>
   <i name="NELECT">    256.00000000</i>
   <i type="int" name="TURBO">     0</i>
   <i type="int" name="IRESTART">     0</i>
   <i type="int" name="NREBOOT">     0</i>
   <i type="int" name="NMIN">     0</i>
   <i name="EREF">      0.00000000</i>
   <separator name="electronic smearing" >
    <i type="int" name="ISMEAR">     0</i>
    <i name="SIGMA">      0.06000000</i>
    <i name="KSPACING">      0.50000000</i>
    <i type="logical" name="KGAMMA"> T  </i>
   </separator>
   <separator name="electronic projectors" >
    <i type="logical" name="LREAL"> F  </i>
    <v name="ROPT">      0.00000000</v>
    <i type="int" name="LMAXPAW">  -100</i>
    <i type="int" name="LMAXMIX">     2</i>
    <i type="logical" name="NLSPLINE"> F  </i>
   </separator>
   <separator name="electronic startup" >
    <i type="int" name="ISTART">     0</i>
    <i type="int" name="ICHARG">     2</i>
    <i type="int" name="INIWAV">     1</i>
   </separator>
   <separator name="electronic spin" >
    <i type="int" name="ISPIN">     1</i>
    <i type="logical" name="LNONCOLLINEAR"> F  </i>
    <v name="MAGMOM">      1.00000000      1.00000000      1.00000000      1.00000000      1.00000000      1.00000000      1.00000000      1.00000000      1.00000000      1.00000000      1.00000000      1.00000000      1.00000000      1.00000000      1.00000000      1.00000000      1.00000000      1.00000000      1.00000000      1.00000000
      1.00000000      1.00000000      1.00000000      1.00000000      1.00000000      1.00000000      1.00000000      1.00000000      1.00000000      1.00000000      1.00000000      1.00000000      1.00000000      1.00000000      1.00000000      1.00000000      1.00000000      1.00000000      1.00000000      1.00000000
      1.00000000      1.00000000      1.00000000      1.00000000      1.00000000      1.00000000      1.00000000      1.00000000      1.00000000      1.00000000      1.00000000      1.00000000      1.00000000      1.00000000      1.00000000      1.00000000      1.00000000      1.00000000      1.00000000      1.00000000
      1.00000000      1.00000000      1.00000000      1.00000000</v>
    <i name="NUPDOWN">     -1.00000000</i>
    <i type="logical" name="LSORBIT"> F  </i>
    <v name="SAXIS">      0.00000000      0.00000000      1.00000000</v>
    <i type="logical" name="LSPIRAL"> F  </i>
    <v name="QSPIRAL">      0.00000000      0.00000000      0.00000000</v>
    <i type="logical" name="LZEROZ"> F  </i>
   </separator>
   <separator name="electronic exchange-correlation" >
    <i type="logical" name="LASPH"> F  </i>
    <i type="logical" name="LMETAGGA"> F  </i>
   </separator>
   <separator name="electronic convergence" >
    <i type="int" name="NELM">    60</i>
    <i type="int" name="NELMDL">    -5</i>
    <i type="int" name="NELMIN">     2</i>
    <i name="ENINI">    400.00000000</i>
    <separator name="electronic convergence detail" >
     <i type="logical" name="LDIAG"> T  </i>
     <i type="logical" name="LSUBROT"> F  </i>
     <i name="WEIMIN">      0.00100000</i>
     <i name="EBREAK">      0.00000000</i>
     <i name="DEPER">      0.30000000</i>
     <i type="int" name="NRMM">     4</i>
     <i name="TIME">      0.40000000</i>
    </separator>
   </separator>
   <separator name="electronic mixer" >
    <i name="AMIX">      0.40000000</i>
    <i name="BMIX">      1.00000000</i>
    <i name="AMIN">      0.10000000</i>
    <i name="AMIX_MAG">      1.60000000</i>
    <i name="BMIX_MAG">      1.00000000</i>
    <separator name="electronic mixer details" >
     <i type="int" name="IMIX">     4</i>
     <i type="logical" name="MIXFIRST"> F  </i>
     <i type="int" name="MAXMIX">   -45</i>
     <i name="WC">    100.00000000</i>
     <i type="int" name="INIMIX">     1</i>
     <i type="int" name="MIXPRE">     1</i>
     <i type="int" name="MREMOVE">     5</i>
    </separator>
   </separator>
   <separator name="electronic dipolcorrection" >
    <i type="logical" name="LDIPOL"> F  </i>
    <i type="logical" name="LMONO"> F  </i>
    <i type="int" name="IDIPOL">     0</i>
    <i name="EPSILON">      1.00000000</i>
    <v name="DIPOL">   -100.00000000   -100.00000000   -100.00000000</v>
    <i name="EFIELD">      0.00000000</i>
   </separator>
  </separator>
  <separator name="grids" >
   <i type="int" name="NGX">    48</i>
   <i type="int" name="NGY">    48</i>
   <i type="int" name="NGZ">    48</i>
   <i type="int" name="NGXF">    96</i>
   <i type="int" name="NGYF">    96</i>
   <i type="int" name="NGZF">    96</i>
   <i type="logical" name="ADDGRID"> T  </i>
  </separator>
  <separator name="ionic" >
   <i type="int" name="NSW">     1</i>
   <i type="int" name="IBRION">     8</i>
   <i type="int" name="MDALGO">     0</i>
   <i type="int" name="ISIF">     2</i>
   <i name="PSTRESS">      0.00000000</i>
   <i name="EDIFFG">      0.00000010</i>
   <i type="int" name="NFREE">     0</i>
   <i name="POTIM">      0.50000000</i>
   <i name="SMASS">     -3.00000000</i>
   <i name="SCALEE">      1.00000000</i>
  </separator>
  <separator name="ionic md" >
   <i name="TEBEG">      0.00010000</i>
   <i name="TEEND">      0.00010000</i>
   <i type="int" name="NBLOCK">     1</i>
   <i type="int" name="KBLOCK">     1</i>
   <i type="int" name="NPACO">   256</i>
   <i name="APACO">     16.00000000</i>
  </separator>
  <separator name="symmetry" >
   <i type="int" name="ISYM">     2</i>
   <i name="SYMPREC">      0.00001000</i>
  </separator>
  <separator name="dos" >
   <i type="int" name="LORBIT">     0</i>
   <v name="RWIGS">     -1.00000000</v>
   <i type="int" name="NEDOS">   301</i>
   <i name="EMIN">     10.00000000</i>
   <i name="EMAX">    -10.00000000</i>
   <i name="EFERMI">      0.00000000</i>
  </separator>
  <separator name="writing" >
   <i type="int" name="NWRITE">     2</i>
   <i type="logical" name="LWAVE"> F  </i>
   <i type="logical" name="LDOWNSAMPLE"> F  </i>
   <i type="logical" name="LCHARG"> F  </i>
   <i type="logical" name="LPARD"> F  </i>
   <i type="logical" name="LVTOT"> F  </i>
   <i type="logical" name="LVHAR"> F  </i>
   <i type="logical" name="LELF"> F  </i>
   <i type="logical" name="LOPTICS"> F  </i>
   <v name="STM">      0.00000000      0.00000000      0.00000000      0.00000000      0.00000000      0.00000000      0.00000000</v>
  </separator>
  <separator name="performance" >
   <i type="int" name="NPAR">    32</i>
   <i type="int" name="NSIM">     4</i>
   <i type="int" name="NBLK">    -1</i>
   <i type="logical" name="LPLANE"> T  </i>
   <i type="logical" name="LSCALAPACK"> T  </i>
   <i type="logical" name="LSCAAWARE"> F  </i>
   <i type="logical" name="LSCALU"> F  </i>
   <i type="logical" name="LASYNC"> F  </i>
   <i type="logical" name="LORBITALREAL"> F  </i>
  </separator>
  <separator name="miscellaneous" >
   <i type="int" name="IDIOT">     3</i>
   <i type="int" name="ISPECIAL">     0</i>
   <i type="logical" name="LMUSIC"> F  </i>
   <v name="POMASS">     12.01100000</v>
   <v name="DARWINR">      0.00000000</v>
   <v name="DARWINV">      1.00000000</v>
   <i type="logical" name="LCORR"> T  </i>
  </separator>
  <i type="logical" name="GGA_COMPAT"> T  </i>
  <i type="logical" name="LBERRY"> F  </i>
  <i type="int" name="ICORELEVEL">     0</i>
  <i type="logical" name="LDAU"> F  </i>
  <i type="int" name="I_CONSTRAINED_M">     0</i>
  <separator name="electronic exchange-correlation" >
   <i type="string" name="GGA">--</i>
   <i type="int" name="VOSKOWN">     0</i>
   <i type="logical" name="LHFCALC"> F  </i>
   <i type="string" name="PRECFOCK"></i>
   <i type="logical" name="LSYMGRAD"> F  </i>
   <i type="logical" name="LHFONE"> F  </i>
   <i type="logical" name="LRHFCALC"> F  </i>
   <i type="logical" name="LTHOMAS"> F  </i>
   <i type="logical" name="LMODELHF"> F  </i>
   <i name="ENCUT4O">     -1.00000000</i>
   <i type="int" name="EXXOEP">     0</i>
   <i type="int" name="FOURORBIT">     0</i>
   <i name="AEXX">      0.00000000</i>
   <i name="HFALPHA">      0.00000000</i>
   <i name="MCALPHA">      0.00000000</i>
   <i name="ALDAX">      1.00000000</i>
   <i name="AGGAX">      1.00000000</i>
   <i name="ALDAC">      1.00000000</i>
   <i name="AGGAC">      1.00000000</i>
   <i type="int" name="NKREDX">     1</i>
   <i type="int" name="NKREDY">     1</i>
   <i type="int" name="NKREDZ">     1</i>
   <i type="logical" name="SHIFTRED"> F  </i>
   <i type="logical" name="ODDONLY"> F  </i>
   <i type="logical" name="EVENONLY"> F  </i>
   <i type="int" name="LMAXFOCK">     0</i>
   <i type="int" name="NMAXFOCKAE">     0</i>
   <i type="logical" name="LFOCKAEDFT"> F  </i>
   <i name="HFSCREEN">      0.00000000</i>
   <i name="HFSCREENC">      0.00000000</i>
   <i type="int" name="NBANDSGWLOW">     0</i>
  </separator>
  <separator name="vdW DFT" >
   <i type="logical" name="LUSE_VDW"> F  </i>
   <i name="Zab_VDW">     -0.84910000</i>
   <i name="PARAM1">      0.12340000</i>
   <i name="PARAM2">      1.00000000</i>
   <i name="PARAM3">      0.00000000</i>
  </separator>
  <separator name="model GW" >
   <i type="int" name="MODEL_GW">     0</i>
   <i name="MODEL_EPS0">      3.68039338</i>
   <i name="MODEL_ALPHA">      1.00000000</i>
  </separator>
  <separator name="linear response parameters" >
   <i type="logical" name="LEPSILON"> F  </i>
   <i type="logical" name="LRPA"> F  </i>
   <i type="logical" name="LNABLA"> F  </i>
   <i type="logical" name="LVEL"> F  </i>
   <i type="int" name="KINTER">     0</i>
   <i name="CSHIFT">      0.10000000</i>
   <i name="OMEGAMAX">     -1.00000000</i>
   <i name="DEG_THRESHOLD">      0.00200000</i>
   <i name="RTIME">     -0.10000000</i>
   <i name="WPLASMAI">      0.00000000</i>
   <v name="DFIELD">      0.00000000      0.00000000      0.00000000</v>
   <v name="WPLASMA">      0.00000000      0.00000000      0.00000000      0.00000000      0.00000000      0.00000000      0.00000000      0.00000000      0.00000000</v>
  </separator>
  <separator name="orbital magnetization" >
   <i type="logical" name="NUCIND"> F  </i>
   <v name="MAGPOS">      0.00000000      0.00000000      0.00000000</v>
   <i type="logical" name="LNICSALL"> T  </i>
   <i type="logical" name="ORBITALMAG"> F  </i>
   <i type="logical" name="LMAGBLOCH"> F  </i>
   <i type="logical" name="LCHIMAG"> F  </i>
   <i type="logical" name="LGAUGE"> T  </i>
   <i type="int" name="MAGATOM">     0</i>
   <v name="MAGDIPOL">      0.00000000      0.00000000      0.00000000</v>
   <v name="AVECCONST">      0.00000000      0.00000000      0.00000000</v>
  </separator>
  <separator name="response functions" >
   <i type="logical" name="LADDER"> F  </i>
   <i type="logical" name="LRPAFORCE"> F  </i>
   <i type="logical" name="LFXC"> F  </i>
   <i type="logical" name="LHARTREE"> T  </i>
   <i type="int" name="IBSE">     0</i>
   <v type="int" name="KPOINT">    -1     0     0     0</v>
   <i type="logical" name="LTCTE"> F  </i>
   <i type="logical" name="LTETE"> F  </i>
   <i type="logical" name="LTRIPLET"> F  </i>
   <i type="logical" name="LFXCEPS"> F  </i>
   <i type="logical" name="LFXHEG"> F  </i>
   <i type="int" name="NATURALO">     2</i>
   <i type="logical" name="L2ORDER"> F  </i>
   <i type="logical" name="LMP2LT"> F  </i>
   <i type="logical" name="LUSEW"> F  </i>
   <i name="ENCUTGW">     -2.00000000</i>
   <i name="ENCUTGWSOFT">     -2.00000000</i>
   <i name="ENCUTLF">     -1.00000000</i>
   <i type="int" name="LMAXMP2">    -1</i>
   <i name="SCISSOR">      0.00000000</i>
   <i type="int" name="NOMEGA">     0</i>
   <i type="int" name="NOMEGAR">     0</i>
   <i type="int" name="NBANDSGW">    -1</i>
   <i type="int" name="NBANDSO">    -1</i>
   <i type="int" name="NBANDSV">    -1</i>
   <i type="int" name="NELM">     1</i>
   <i type="int" name="NELMHF">     1</i>
   <i type="int" name="DIM">     3</i>
   <i type="int" name="ANTIRES">     0</i>
   <i name="OMEGAMAX">    -30.00000000</i>
   <i name="OMEGAMIN">    -30.00000000</i>
   <i name="OMEGATL">   -200.00000000</i>
   <i type="int" name="OMEGAGRID">   140</i>
   <i name="CSHIFT">     -0.10000000</i>
   <i type="logical" name="SELFENERGY"> F  </i>
   <i type="logical" name="LSPECTRAL"> F  </i>
   <i type="logical" name="LSPECTRALGW"> F  </i>
   <i type="logical" name="LSINGLES"> F  </i>
   <i type="logical" name="LFERMIGW"> F  </i>
   <i type="logical" name="ODDONLYGW"> F  </i>
   <i type="logical" name="EVENONLYGW"> F  </i>
   <i type="int" name="NKREDLFX">     1</i>
   <i type="int" name="NKREDLFY">     1</i>
   <i type="int" name="NKREDLFZ">     1</i>
   <i type="int" name="MAXMEM">  2800</i>
   <i type="int" name="TELESCOPE">     0</i>
   <i type="int" name="TAUPAR">     1</i>
   <i type="int" name="OMEGAPAR">    -1</i>
   <i name="LAMBDA">      1.00000000</i>
  </separator>
  <separator name="External order field" >
   <i name="OFIELD_KAPPA">      0.00000000</i>
   <v name="OFIELD_K">      0.00000000      0.00000000      0.00000000</v>
   <i name="OFIELD_Q6_NEAR">      0.00000000</i>
   <i name="OFIELD_Q6_FAR">      0.00000000</i>
   <i name="OFIELD_A">      0.00000000</i>
  </separator>
 </parameters>
 <atominfo>
  <atoms>      64 </atoms>
  <types>       1 </types>
  <array name="atoms" >
   <dimension dim="1">ion</dimension>
   <field type="string">element</field>
   <field type="int">atomtype</field>
   <set>
    <rc><c>C </c><c>   1</c></rc>
    <rc><c>C </c><c>   1</c></rc>
    <rc><c>C </c><c>   1</c></rc>
    <rc><c>C </c><c>   1</c></rc>
    <rc><c>C </c><c>   1</c></rc>
    <rc><c>C </c><c>   1</c></rc>
    <rc><c>C </c><c>   1</c></rc>
    <rc><c>C </c><c>   1</c></rc>
    <rc><c>C </c><c>   1</c></rc>
    <rc><c>C </c><c>   1</c></rc>
    <rc><c>C </c><c>   1</c></rc>
    <rc><c>C </c><c>   1</c></rc>
    <rc><c>C </c><c>   1</c></rc>
    <rc><c>C </c><c>   1</c></rc>
    <rc><c>C </c><c>   1</c></rc>
    <rc><c>C </c><c>   1</c></rc>
    <rc><c>C </c><c>   1</c></rc>
    <rc><c>C </c><c>   1</c></rc>
    <rc><c>C </c><c>   1</c></rc>
    <rc><c>C </c><c>   1</c></rc>
    <rc><c>C </c><c>   1</c></rc>
    <rc><c>C </c><c>   1</c></rc>
    <rc><c>C </c><c>   1</c></rc>
    <rc><c>C </c><c>   1</c></rc>
    <rc><c>C </c><c>   1</c></rc>
    <rc><c>C </c><c>   1</c></rc>
    <rc><c>C </c><c>   1</c></rc>
    <rc><c>C </c><c>   1</c></rc>
    <rc><c>C </c><c>   1</c></rc>
    <rc><c>C </c><c>   1</c></rc>
    <rc><c>C </c><c>   1</c></rc>
    <rc><c>C </c><c>   1</c></rc>
    <rc><c>C </c><c>   1</c></rc>
    <rc><c>C </c><c>   1</c></rc>
    <rc><c>C </c><c>   1</c></rc>
    <rc><c>C </c><c>   1</c></rc>
    <rc><c>C </c><c>   1</c></rc>
    <rc><c>C </c><c>   1</c></rc>
    <rc><c>C </c><c>   1</c></rc>
    <rc><c>C </c><c>   1</c></rc>
    <rc><c>C </c><c>   1</c></rc>
    <rc><c>C </c><c>   1</c></rc>
    <rc><c>C </c><c>   1</c></rc>
    <rc><c>C </c><c>   1</c></rc>
    <rc><c>C </c><c>   1</c></rc>
    <rc><c>C </c><c>   1</c></rc>
    <rc><c>C </c><c>   1</c></rc>
    <rc><c>C </c><c>   1</c></rc>
    <rc><c>C </c><c>   1</c></rc>
    <rc><c>C </c><c>   1</c></rc>
    <rc><c>C </c><c>   1</c></rc>
    <rc><c>C </c><c>   1</c></rc>
    <rc><c>C </c><c>   1</c></rc>
    <rc><c>C </c><c>   1</c></rc>
    <rc><c>C </c><c>   1</c></rc>
    <rc><c>C </c><c>   1</c></rc>
    <rc><c>C </c><c>   1</c></rc>
    <rc><c>C </c><c>   1</c></rc>
    <rc><c>C </c><c>   1</c></rc>
    <rc><c>C </c><c>   1</c></rc>
    <rc><c>C </c><c>   1</c></rc>
    <rc><c>C </c><c>   1</c></rc>
    <rc><c>C </c><c>   1</c></rc>
    <rc><c>C </c><c>   1</c></rc>
   </set>
  </array>
  <array name="atomtypes" >
   <dimension dim="1">type</dimension>
   <field type="int">atomspertype</field>
   <field type="string">element</field>
   <field>mass</field>
   <field>valence</field>
   <field type="string">pseudopotential</field>
   <set>
    <rc><c>  64</c><c>C </c><c>     12.01100000</c><c>      4.00000000</c><c> PAW_PBE C 08Apr2002                    </c></rc>
   </set>
  </array>
 </atominfo>
 <structure name="initialpos" >
  <crystal>
   <varray name="basis" >
    <v>       7.32218990       0.00000000       0.00000000 </v>
    <v>       0.00000000       7.32218990       0.00000000 </v>
    <v>       0.00000000       0.00000000       7.32218990 </v>
   </varray>
   <i name="volume">    392.57529362 </i>
   <varray name="rec_basis" >
    <v>       0.13657116       0.00000000       0.00000000 </v>
    <v>       0.00000000       0.13657116       0.00000000 </v>
    <v>       0.00000000       0.00000000       0.13657116 </v>
   </varray>
  </crystal>
  <varray name="positions" >
   <v>       0.12500000       0.37500000       0.12500000 </v>
   <v>       0.62500000       0.37500000       0.12500000 </v>
   <v>       0.12500000       0.87500000       0.12500000 </v>
   <v>       0.62500000       0.87500000       0.12500000 </v>
   <v>       0.12500000       0.37500000       0.62500000 </v>
   <v>       0.62500000       0.37500000       0.62500000 </v>
   <v>       0.12500000       0.87500000       0.62500000 </v>
   <v>       0.62500000       0.87500000       0.62500000 </v>
   <v>       0.00000000       0.00000000       0.25000000 </v>
   <v>       0.50000000       0.00000000       0.25000000 </v>
   <v>       0.00000000       0.50000000       0.25000000 </v>
   <v>       0.50000000       0.50000000       0.25000000 </v>
   <v>       0.00000000       0.00000000       0.75000000 </v>
   <v>       0.50000000       0.00000000       0.75000000 </v>
   <v>       0.00000000       0.50000000       0.75000000 </v>
   <v>       0.50000000       0.50000000       0.75000000 </v>
   <v>       0.12500000       0.12500000       0.37500000 </v>
   <v>       0.62500000       0.12500000       0.37500000 </v>
   <v>       0.12500000       0.62500000       0.37500000 </v>
   <v>       0.62500000       0.62500000       0.37500000 </v>
   <v>       0.12500000       0.12500000       0.87500000 </v>
   <v>       0.62500000       0.12500000       0.87500000 </v>
   <v>       0.12500000       0.62500000       0.87500000 </v>
   <v>       0.62500000       0.62500000       0.87500000 </v>
   <v>       0.00000000       0.25000000       0.00000000 </v>
   <v>       0.50000000       0.25000000       0.00000000 </v>
   <v>       0.00000000       0.75000000       0.00000000 </v>
   <v>       0.50000000       0.75000000       0.00000000 </v>
   <v>       0.00000000       0.25000000       0.50000000 </v>
   <v>       0.50000000       0.25000000       0.50000000 </v>
   <v>       0.00000000       0.75000000       0.50000000 </v>
   <v>       0.50000000       0.75000000       0.50000000 </v>
   <v>       0.37500000       0.37500000       0.37500000 </v>
   <v>       0.87500000       0.37500000       0.37500000 </v>
   <v>       0.37500000       0.87500000       0.37500000 </v>
   <v>       0.87500000       0.87500000       0.37500000 </v>
   <v>       0.37500000       0.37500000       0.87500000 </v>
   <v>       0.87500000       0.37500000       0.87500000 </v>
   <v>       0.37500000       0.87500000       0.87500000 </v>
   <v>       0.87500000       0.87500000       0.87500000 </v>
   <v>       0.25000000       0.00000000       0.00000000 </v>
   <v>       0.75000000       0.00000000       0.00000000 </v>
   <v>       0.25000000       0.50000000       0.00000000 </v>
   <v>       0.75000000       0.50000000       0.00000000 </v>
   <v>       0.25000000       0.00000000       0.50000000 </v>
   <v>       0.75000000       0.00000000       0.50000000 </v>
   <v>       0.25000000       0.50000000       0.50000000 </v>
   <v>       0.75000000       0.50000000       0.50000000 </v>
   <v>       0.37500000       0.12500000       0.12500000 </v>
   <v>       0.87500000       0.12500000       0.12500000 </v>
   <v>       0.37500000       0.62500000       0.12500000 </v>
   <v>       0.87500000       0.62500000       0.12500000 </v>
   <v>       0.37500000       0.12500000       0.62500000 </v>
   <v>       0.87500000       0.12500000       0.62500000 </v>
   <v>       0.37500000       0.62500000       0.62500000 </v>
   <v>       0.87500000       0.62500000       0.62500000 </v>
   <v>       0.25000000       0.25000000       0.25000000 </v>
   <v>       0.75000000       0.25000000       0.25000000 </v>
   <v>       0.25000000       0.75000000       0.25000000 </v>
   <v>       0.75000000       0.75000000       0.25000000 </v>
   <v>       0.25000000       0.25000000       0.75000000 </v>
   <v>       0.75000000       0.25000000       0.75000000 </v>
   <v>       0.25000000       0.75000000       0.75000000 </v>
   <v>       0.75000000       0.75000000       0.75000000 </v>
  </varray>
 </structure>
 <calculation>
  <scstep>
   <time name="dav">   14.29   14.30</time>
   <time name="total">   14.41   14.44</time>
   <energy>
    <i name="alphaZ">    850.13692194 </i>
    <i name="ewald"> -10847.90348818 </i>
    <i name="hartreedc">   -620.03631813 </i>
    <i name="XCdc">    899.55181882 </i>
    <i name="pawpsdc">   2421.21235816 </i>
    <i name="pawaedc">  -2494.84305711 </i>
    <i name="eentropy">     -0.00867011 </i>
    <i name="bandstr">    873.60328963 </i>
    <i name="atom">   9416.14232778 </i>
    <i name="e_fr_energy">    497.85518279 </i>
    <i name="e_wo_entrp">    497.86385290 </i>
    <i name="e_0_energy">    497.85951785 </i>
   </energy>
  </scstep>
  <scstep>
   <time name="dav">   18.31   18.31</time>
   <time name="total">   18.31   18.31</time>
   <energy>
    <i name="e_fr_energy">   -552.86506417 </i>
    <i name="e_wo_entrp">   -552.86506417 </i>
    <i name="e_0_energy">   -552.86506417 </i>
   </energy>
  </scstep>
  <scstep>
   <time name="dav">   17.57   17.57</time>
   <time name="total">   17.57   17.57</time>
   <energy>
    <i name="e_fr_energy">   -594.69064729 </i>
    <i name="e_wo_entrp">   -594.69064729 </i>
    <i name="e_0_energy">   -594.69064729 </i>
   </energy>
  </scstep>
  <scstep>
   <time name="dav">   17.47   17.47</time>
   <time name="total">   17.47   17.47</time>
   <energy>
    <i name="e_fr_energy">   -595.19469164 </i>
    <i name="e_wo_entrp">   -595.19469164 </i>
    <i name="e_0_energy">   -595.19469164 </i>
   </energy>
  </scstep>
  <scstep>
   <time name="dav">   16.25   16.25</time>
   <time name="total">   16.77   16.77</time>
   <energy>
    <i name="e_fr_energy">   -595.20341150 </i>
    <i name="e_wo_entrp">   -595.20341150 </i>
    <i name="e_0_energy">   -595.20341150 </i>
   </energy>
  </scstep>
  <scstep>
   <time name="dav">   17.02   17.02</time>
   <time name="total">   17.67   17.67</time>
   <energy>
    <i name="e_fr_energy">   -583.40345175 </i>
    <i name="e_wo_entrp">   -583.40345175 </i>
    <i name="e_0_energy">   -583.40345175 </i>
   </energy>
  </scstep>
  <scstep>
   <time name="dav">   16.45   16.45</time>
   <time name="total">   17.09   17.09</time>
   <energy>
    <i name="e_fr_energy">   -579.41033799 </i>
    <i name="e_wo_entrp">   -579.41033799 </i>
    <i name="e_0_energy">   -579.41033799 </i>
   </energy>
  </scstep>
  <scstep>
   <time name="dav">   16.27   16.27</time>
   <time name="total">   16.89   16.89</time>
   <energy>
    <i name="e_fr_energy">   -579.46256339 </i>
    <i name="e_wo_entrp">   -579.46256339 </i>
    <i name="e_0_energy">   -579.46256339 </i>
   </energy>
  </scstep>
  <scstep>
   <time name="dav">   16.67   16.67</time>
   <time name="total">   17.30   17.30</time>
   <energy>
    <i name="e_fr_energy">   -579.46475915 </i>
    <i name="e_wo_entrp">   -579.46475915 </i>
    <i name="e_0_energy">   -579.46475915 </i>
   </energy>
  </scstep>
  <scstep>
   <time name="dav">   15.82   15.83</time>
   <time name="total">   16.45   16.45</time>
   <energy>
    <i name="e_fr_energy">   -579.46523419 </i>
    <i name="e_wo_entrp">   -579.46523419 </i>
    <i name="e_0_energy">   -579.46523419 </i>
   </energy>
  </scstep>
  <scstep>
   <time name="dav">   18.25   18.25</time>
   <time name="total">   18.87   18.87</time>
   <energy>
    <i name="e_fr_energy">   -579.46523766 </i>
    <i name="e_wo_entrp">   -579.46523766 </i>
    <i name="e_0_energy">   -579.46523766 </i>
   </energy>
  </scstep>
  <scstep>
   <time name="dav">   16.50   16.50</time>
   <time name="total">   17.11   17.12</time>
   <energy>
    <i name="e_fr_energy">   -579.46523802 </i>
    <i name="e_wo_entrp">   -579.46523802 </i>
    <i name="e_0_energy">   -579.46523802 </i>
   </energy>
  </scstep>
  <scstep>
   <time name="dav">   14.43   14.43</time>
   <time name="total">   15.04   15.05</time>
   <energy>
    <i name="e_fr_energy">   -579.46523815 </i>
    <i name="e_wo_entrp">   -579.46523815 </i>
    <i name="e_0_energy">   -579.46523815 </i>
   </energy>
  </scstep>
  <scstep>
   <time name="dav">   12.79   12.79</time>
   <time name="total">   12.89   12.89</time>
   <energy>
    <i name="alphaZ">    850.13692194 </i>
    <i name="ewald"> -10847.90348818 </i>
    <i name="hartreedc">   -879.87650075 </i>
    <i name="XCdc">    923.90320505 </i>
    <i name="pawpsdc">   3910.56455019 </i>
    <i name="pawaedc">  -3990.01080544 </i>
    <i name="eentropy">     -0.00000000 </i>
    <i name="bandstr">     37.57855125 </i>
    <i name="atom">   9416.14232778 </i>
    <i name="e_fr_energy">   -579.46523816 </i>
    <i name="e_wo_entrp">   -579.46523816 </i>
    <i name="e_0_energy">   -579.46523816 </i>
   </energy>
  </scstep>
  <structure>
   <crystal>
    <varray name="basis" >
     <v>       7.32218990       0.00000000       0.00000000 </v>
     <v>       0.00000000       7.32218990       0.00000000 </v>
     <v>       0.00000000       0.00000000       7.32218990 </v>
    </varray>
    <i name="volume">    392.57529362 </i>
    <varray name="rec_basis" >
     <v>       0.13657116       0.00000000       0.00000000 </v>
     <v>       0.00000000       0.13657116       0.00000000 </v>
     <v>       0.00000000       0.00000000       0.13657116 </v>
    </varray>
   </crystal>
   <varray name="positions" >
    <v>       0.12500000       0.37500000       0.12500000 </v>
    <v>       0.62500000       0.37500000       0.12500000 </v>
    <v>       0.12500000       0.87500000       0.12500000 </v>
    <v>       0.62500000       0.87500000       0.12500000 </v>
    <v>       0.12500000       0.37500000       0.62500000 </v>
    <v>       0.62500000       0.37500000       0.62500000 </v>
    <v>       0.12500000       0.87500000       0.62500000 </v>
    <v>       0.62500000       0.87500000       0.62500000 </v>
    <v>       0.00000000       0.00000000       0.25000000 </v>
    <v>       0.50000000       0.00000000       0.25000000 </v>
    <v>       0.00000000       0.50000000       0.25000000 </v>
    <v>       0.50000000       0.50000000       0.25000000 </v>
    <v>       0.00000000       0.00000000       0.75000000 </v>
    <v>       0.50000000       0.00000000       0.75000000 </v>
    <v>       0.00000000       0.50000000       0.75000000 </v>
    <v>       0.50000000       0.50000000       0.75000000 </v>
    <v>       0.12500000       0.12500000       0.37500000 </v>
    <v>       0.62500000       0.12500000       0.37500000 </v>
    <v>       0.12500000       0.62500000       0.37500000 </v>
    <v>       0.62500000       0.62500000       0.37500000 </v>
    <v>       0.12500000       0.12500000       0.87500000 </v>
    <v>       0.62500000       0.12500000       0.87500000 </v>
    <v>       0.12500000       0.62500000       0.87500000 </v>
    <v>       0.62500000       0.62500000       0.87500000 </v>
    <v>       0.00000000       0.25000000       0.00000000 </v>
    <v>       0.50000000       0.25000000       0.00000000 </v>
    <v>       0.00000000       0.75000000       0.00000000 </v>
    <v>       0.50000000       0.75000000       0.00000000 </v>
    <v>       0.00000000       0.25000000       0.50000000 </v>
    <v>       0.50000000       0.25000000       0.50000000 </v>
    <v>       0.00000000       0.75000000       0.50000000 </v>
    <v>       0.50000000       0.75000000       0.50000000 </v>
    <v>       0.37500000       0.37500000       0.37500000 </v>
    <v>       0.87500000       0.37500000       0.37500000 </v>
    <v>       0.37500000       0.87500000       0.37500000 </v>
    <v>       0.87500000       0.87500000       0.37500000 </v>
    <v>       0.37500000       0.37500000       0.87500000 </v>
    <v>       0.87500000       0.37500000       0.87500000 </v>
    <v>       0.37500000       0.87500000       0.87500000 </v>
    <v>       0.87500000       0.87500000       0.87500000 </v>
    <v>       0.25000000       0.00000000       0.00000000 </v>
    <v>       0.75000000       0.00000000       0.00000000 </v>
    <v>       0.25000000       0.50000000       0.00000000 </v>
    <v>       0.75000000       0.50000000       0.00000000 </v>
    <v>       0.25000000       0.00000000       0.50000000 </v>
    <v>       0.75000000       0.00000000       0.50000000 </v>
    <v>       0.25000000       0.50000000       0.50000000 </v>
    <v>       0.75000000       0.50000000       0.50000000 </v>
    <v>       0.37500000       0.12500000       0.12500000 </v>
    <v>       0.87500000       0.12500000       0.12500000 </v>
    <v>       0.37500000       0.62500000       0.12500000 </v>
    <v>       0.87500000       0.62500000       0.12500000 </v>
    <v>       0.37500000       0.12500000       0.62500000 </v>
    <v>       0.87500000       0.12500000       0.62500000 </v>
    <v>       0.37500000       0.62500000       0.62500000 </v>
    <v>       0.87500000       0.62500000       0.62500000 </v>
    <v>       0.25000000       0.25000000       0.25000000 </v>
    <v>       0.75000000       0.25000000       0.25000000 </v>
    <v>       0.25000000       0.75000000       0.25000000 </v>
    <v>       0.75000000       0.75000000       0.25000000 </v>
    <v>       0.25000000       0.25000000       0.75000000 </v>
    <v>       0.75000000       0.25000000       0.75000000 </v>
    <v>       0.25000000       0.75000000       0.75000000 </v>
    <v>       0.75000000       0.75000000       0.75000000 </v>
   </varray>
  </structure>
  <varray name="forces" >
   <v>       0.00000000       0.00000000      -0.00000000 </v>
   <v>      -0.00000000       0.00000000       0.00000000 </v>
   <v>      -0.00000000       0.00000000      -0.00000000 </v>
   <v>      -0.00000000       0.00000000      -0.00000000 </v>
   <v>       0.00000000       0.00000000      -0.00000000 </v>
   <v>      -0.00000000       0.00000000      -0.00000000 </v>
   <v>      -0.00000000       0.00000000      -0.00000000 </v>
   <v>       0.00000000       0.00000000      -0.00000000 </v>
   <v>       0.00000000      -0.00000000      -0.00000000 </v>
   <v>       0.00000000      -0.00000000       0.00000000 </v>
   <v>       0.00000000      -0.00000000       0.00000000 </v>
   <v>       0.00000000      -0.00000000      -0.00000000 </v>
   <v>       0.00000000      -0.00000000       0.00000000 </v>
   <v>      -0.00000000      -0.00000000       0.00000000 </v>
   <v>      -0.00000000      -0.00000000       0.00000000 </v>
   <v>      -0.00000000      -0.00000000       0.00000000 </v>
   <v>      -0.00000000       0.00000000      -0.00000000 </v>
   <v>      -0.00000000       0.00000000      -0.00000000 </v>
   <v>      -0.00000000       0.00000000      -0.00000000 </v>
   <v>      -0.00000000       0.00000000      -0.00000000 </v>
   <v>      -0.00000000       0.00000000      -0.00000000 </v>
   <v>       0.00000000       0.00000000       0.00000000 </v>
   <v>       0.00000000       0.00000000       0.00000000 </v>
   <v>      -0.00000000       0.00000000       0.00000000 </v>
   <v>       0.00000000      -0.00000000       0.00000000 </v>
   <v>       0.00000000      -0.00000000       0.00000000 </v>
   <v>      -0.00000000      -0.00000000       0.00000000 </v>
   <v>       0.00000000      -0.00000000       0.00000000 </v>
   <v>       0.00000000       0.00000000      -0.00000000 </v>
   <v>       0.00000000      -0.00000000       0.00000000 </v>
   <v>       0.00000000      -0.00000000       0.00000000 </v>
   <v>       0.00000000       0.00000000      -0.00000000 </v>
   <v>      -0.00000000       0.00000000       0.00000000 </v>
   <v>      -0.00000000       0.00000000      -0.00000000 </v>
   <v>      -0.00000000       0.00000000      -0.00000000 </v>
   <v>      -0.00000000       0.00000000      -0.00000000 </v>
   <v>      -0.00000000       0.00000000      -0.00000000 </v>
   <v>      -0.00000000       0.00000000       0.00000000 </v>
   <v>      -0.00000000       0.00000000       0.00000000 </v>
   <v>      -0.00000000       0.00000000       0.00000000 </v>
   <v>       0.00000000      -0.00000000       0.00000000 </v>
   <v>       0.00000000      -0.00000000      -0.00000000 </v>
   <v>       0.00000000      -0.00000000      -0.00000000 </v>
   <v>      -0.00000000      -0.00000000       0.00000000 </v>
   <v>       0.00000000      -0.00000000       0.00000000 </v>
   <v>       0.00000000      -0.00000000      -0.00000000 </v>
   <v>       0.00000000      -0.00000000       0.00000000 </v>
   <v>       0.00000000      -0.00000000       0.00000000 </v>
   <v>      -0.00000000       0.00000000       0.00000000 </v>
   <v>       0.00000000       0.00000000      -0.00000000 </v>
   <v>       0.00000000       0.00000000      -0.00000000 </v>
   <v>      -0.00000000      -0.00000000       0.00000000 </v>
   <v>      -0.00000000       0.00000000      -0.00000000 </v>
   <v>       0.00000000       0.00000000      -0.00000000 </v>
   <v>       0.00000000       0.00000000      -0.00000000 </v>
   <v>      -0.00000000       0.00000000      -0.00000000 </v>
   <v>       0.00000000      -0.00000000      -0.00000000 </v>
   <v>       0.00000000      -0.00000000       0.00000000 </v>
   <v>       0.00000000      -0.00000000       0.00000000 </v>
   <v>       0.00000000      -0.00000000       0.00000000 </v>
   <v>       0.00000000      -0.00000000       0.00000000 </v>
   <v>      -0.00000000       0.00000000       0.00000000 </v>
   <v>      -0.00000000      -0.00000000       0.00000000 </v>
   <v>      -0.00000000      -0.00000000       0.00000000 </v>
  </varray>
  <varray name="stress" >
   <v>    -316.93612936       0.00000000       0.00000000 </v>
   <v>       0.00000000    -316.93612936       0.00000000 </v>
   <v>      -0.00000000       0.00000000    -316.93612936 </v>
  </varray>
  <energy>
   <i name="e_fr_energy">   -579.46523816 </i>
   <i name="e_wo_entrp">   -579.46523816 </i>
   <i name="e_0_energy">     -0.00000000 </i>
  </energy>
  <kpoints>
   <generation param="Gamma">
    <v type="int" name="divisions">       6        6        6 </v>
    <v name="usershift">      0.00000000       0.00000000       0.00000000 </v>
    <v name="genvec1">      0.16666667       0.00000000       0.00000000 </v>
    <v name="genvec2">      0.00000000       0.16666667       0.00000000 </v>
    <v name="genvec3">      0.00000000       0.00000000       0.16666667 </v>
    <v name="shift">      0.00000000       0.00000000       0.00000000 </v>
   </generation>
   <varray name="kpointlist" >
    <v>       0.00000000       0.00000000       0.00000000 </v>
    <v>       0.16666667       0.00000000       0.00000000 </v>
    <v>       0.33333333       0.00000000       0.00000000 </v>
    <v>       0.50000000       0.00000000       0.00000000 </v>
    <v>       0.00000000       0.16666667       0.00000000 </v>
    <v>       0.16666667       0.16666667       0.00000000 </v>
    <v>       0.33333333       0.16666667       0.00000000 </v>
    <v>       0.50000000       0.16666667       0.00000000 </v>
    <v>       0.00000000       0.33333333       0.00000000 </v>
    <v>       0.16666667       0.33333333       0.00000000 </v>
    <v>       0.33333333       0.33333333       0.00000000 </v>
    <v>       0.50000000       0.33333333       0.00000000 </v>
    <v>       0.00000000       0.50000000       0.00000000 </v>
    <v>       0.16666667       0.50000000       0.00000000 </v>
    <v>       0.33333333       0.50000000       0.00000000 </v>
    <v>       0.50000000       0.50000000       0.00000000 </v>
    <v>       0.00000000       0.16666667       0.16666667 </v>
    <v>       0.16666667       0.16666667       0.16666667 </v>
    <v>       0.33333333       0.16666667       0.16666667 </v>
    <v>       0.50000000       0.16666667       0.16666667 </v>
    <v>       0.00000000       0.33333333       0.16666667 </v>
    <v>       0.16666667       0.33333333       0.16666667 </v>
    <v>       0.33333333       0.33333333       0.16666667 </v>
    <v>       0.50000000       0.33333333       0.16666667 </v>
    <v>       0.00000000       0.50000000       0.16666667 </v>
    <v>       0.16666667       0.50000000       0.16666667 </v>
    <v>       0.33333333       0.50000000       0.16666667 </v>
    <v>       0.50000000       0.50000000       0.16666667 </v>
    <v>       0.00000000      -0.33333333       0.16666667 </v>
    <v>       0.16666667      -0.33333333       0.16666667 </v>
    <v>       0.33333333      -0.33333333       0.16666667 </v>
    <v>       0.50000000      -0.33333333       0.16666667 </v>
    <v>       0.00000000      -0.16666667       0.16666667 </v>
    <v>       0.16666667      -0.16666667       0.16666667 </v>
    <v>       0.33333333      -0.16666667       0.16666667 </v>
    <v>       0.50000000      -0.16666667       0.16666667 </v>
    <v>       0.00000000       0.33333333       0.33333333 </v>
    <v>       0.16666667       0.33333333       0.33333333 </v>
    <v>       0.33333333       0.33333333       0.33333333 </v>
    <v>       0.50000000       0.33333333       0.33333333 </v>
    <v>       0.00000000       0.50000000       0.33333333 </v>
    <v>       0.16666667       0.50000000       0.33333333 </v>
    <v>       0.33333333       0.50000000       0.33333333 </v>
    <v>       0.50000000       0.50000000       0.33333333 </v>
    <v>       0.00000000      -0.33333333       0.33333333 </v>
    <v>       0.16666667      -0.33333333       0.33333333 </v>
    <v>       0.33333333      -0.33333333       0.33333333 </v>
    <v>       0.50000000      -0.33333333       0.33333333 </v>
    <v>       0.00000000       0.50000000       0.50000000 </v>
    <v>       0.16666667       0.50000000       0.50000000 </v>
    <v>       0.33333333       0.50000000       0.50000000 </v>
    <v>       0.50000000       0.50000000       0.50000000 </v>
   </varray>
   <varray name="weights" >
    <v>       0.00462963 </v>
    <v>       0.00925926 </v>
    <v>       0.00925926 </v>
    <v>       0.00462963 </v>
    <v>       0.01851852 </v>
    <v>       0.03703704 </v>
    <v>       0.03703704 </v>
    <v>       0.01851852 </v>
    <v>       0.01851852 </v>
    <v>       0.03703704 </v>
    <v>       0.03703704 </v>
    <v>       0.01851852 </v>
    <v>       0.00925926 </v>
    <v>       0.01851852 </v>
    <v>       0.01851852 </v>
    <v>       0.00925926 </v>
    <v>       0.00925926 </v>
    <v>       0.01851852 </v>
    <v>       0.01851852 </v>
    <v>       0.00925926 </v>
    <v>       0.01851852 </v>
    <v>       0.03703704 </v>
    <v>       0.03703704 </v>
    <v>       0.01851852 </v>
    <v>       0.01851852 </v>
    <v>       0.03703704 </v>
    <v>       0.03703704 </v>
    <v>       0.01851852 </v>
    <v>       0.01851852 </v>
    <v>       0.03703704 </v>
    <v>       0.03703704 </v>
    <v>       0.01851852 </v>
    <v>       0.00925926 </v>
    <v>       0.01851852 </v>
    <v>       0.01851852 </v>
    <v>       0.00925926 </v>
    <v>       0.00925926 </v>
    <v>       0.01851852 </v>
    <v>       0.01851852 </v>
    <v>       0.00925926 </v>
    <v>       0.01851852 </v>
    <v>       0.03703704 </v>
    <v>       0.03703704 </v>
    <v>       0.01851852 </v>
    <v>       0.00925926 </v>
    <v>       0.01851852 </v>
    <v>       0.01851852 </v>
    <v>       0.00925926 </v>
    <v>       0.00462963 </v>
    <v>       0.00925926 </v>
    <v>       0.00925926 </v>
    <v>       0.00462963 </v>
   </varray>
  </kpoints>
  <scstep>
   <time name="total">   44.32   44.32</time>
   <energy>
    <i name="e_fr_energy">   -351.37737424 </i>
    <i name="e_wo_entrp">   -351.37737424 </i>
    <i name="e_0_energy">   -351.37737424 </i>
   </energy>
  </scstep>
  <scstep>
   <time name="total">   33.83   33.83</time>
   <energy>
    <i name="e_fr_energy">   -302.82828067 </i>
    <i name="e_wo_entrp">   -302.82828067 </i>
    <i name="e_0_energy">   -302.82828067 </i>
   </energy>
  </scstep>
  <scstep>
   <time name="total">   33.70   33.70</time>
   <energy>
    <i name="e_fr_energy">   -302.61465919 </i>
    <i name="e_wo_entrp">   -302.61465919 </i>
    <i name="e_0_energy">   -302.61465919 </i>
   </energy>
  </scstep>
  <scstep>
   <time name="total">   33.80   33.81</time>
   <energy>
    <i name="e_fr_energy">   -303.13674076 </i>
    <i name="e_wo_entrp">   -303.13674076 </i>
    <i name="e_0_energy">   -303.13674076 </i>
   </energy>
  </scstep>
  <scstep>
   <time name="total">   34.21   34.22</time>
   <energy>
    <i name="e_fr_energy">   -303.29886703 </i>
    <i name="e_wo_entrp">   -303.29886703 </i>
    <i name="e_0_energy">   -303.29886703 </i>
   </energy>
  </scstep>
  <scstep>
   <time name="total">   34.39   34.39</time>
   <energy>
    <i name="e_fr_energy">   -303.25713814 </i>
    <i name="e_wo_entrp">   -303.25713814 </i>
    <i name="e_0_energy">   -303.25713814 </i>
   </energy>
  </scstep>
  <scstep>
   <time name="total">   34.40   34.41</time>
   <energy>
    <i name="e_fr_energy">   -303.23792772 </i>
    <i name="e_wo_entrp">   -303.23792772 </i>
    <i name="e_0_energy">   -303.23792772 </i>
   </energy>
  </scstep>
  <scstep>
   <time name="total">   34.89   34.89</time>
   <energy>
    <i name="e_fr_energy">   -303.23542947 </i>
    <i name="e_wo_entrp">   -303.23542947 </i>
    <i name="e_0_energy">   -303.23542947 </i>
   </energy>
  </scstep>
  <scstep>
   <time name="total">   35.83   35.83</time>
   <energy>
    <i name="e_fr_energy">   -303.23417227 </i>
    <i name="e_wo_entrp">   -303.23417227 </i>
    <i name="e_0_energy">   -303.23417227 </i>
   </energy>
  </scstep>
  <scstep>
   <time name="total">   37.98   37.98</time>
   <energy>
    <i name="e_fr_energy">   -303.23413169 </i>
    <i name="e_wo_entrp">   -303.23413169 </i>
    <i name="e_0_energy">   -303.23413169 </i>
   </energy>
  </scstep>
  <scstep>
   <time name="total">   37.09   37.10</time>
   <energy>
    <i name="e_fr_energy">   -303.23379487 </i>
    <i name="e_wo_entrp">   -303.23379487 </i>
    <i name="e_0_energy">   -303.23379487 </i>
   </energy>
  </scstep>
  <kpoints>
   <generation param="Gamma">
    <v type="int" name="divisions">       6        6        6 </v>
    <v name="usershift">      0.00000000       0.00000000       0.00000000 </v>
    <v name="genvec1">      0.16666667       0.00000000       0.00000000 </v>
    <v name="genvec2">      0.00000000       0.16666667       0.00000000 </v>
    <v name="genvec3">      0.00000000       0.00000000       0.16666667 </v>
    <v name="shift">      0.00000000       0.00000000       0.00000000 </v>
   </generation>
   <varray name="kpointlist" >
    <v>       0.00000000       0.00000000       0.00000000 </v>
    <v>       0.16666667       0.00000000       0.00000000 </v>
    <v>       0.33333333       0.00000000       0.00000000 </v>
    <v>       0.50000000       0.00000000       0.00000000 </v>
    <v>       0.16666667       0.16666667       0.00000000 </v>
    <v>       0.33333333       0.16666667       0.00000000 </v>
    <v>       0.50000000       0.16666667       0.00000000 </v>
    <v>       0.33333333       0.33333333       0.00000000 </v>
    <v>       0.50000000       0.33333333       0.00000000 </v>
    <v>       0.50000000       0.50000000       0.00000000 </v>
    <v>       0.16666667       0.16666667       0.16666667 </v>
    <v>       0.33333333       0.16666667       0.16666667 </v>
    <v>       0.50000000       0.16666667       0.16666667 </v>
    <v>       0.33333333       0.33333333       0.16666667 </v>
    <v>       0.50000000       0.33333333       0.16666667 </v>
    <v>       0.50000000       0.50000000       0.16666667 </v>
    <v>       0.33333333       0.33333333       0.33333333 </v>
    <v>       0.50000000       0.33333333       0.33333333 </v>
    <v>       0.50000000       0.50000000       0.33333333 </v>
    <v>       0.50000000       0.50000000       0.50000000 </v>
   </varray>
   <varray name="weights" >
    <v>       0.00462963 </v>
    <v>       0.02777778 </v>
    <v>       0.02777778 </v>
    <v>       0.01388889 </v>
    <v>       0.05555556 </v>
    <v>       0.11111111 </v>
    <v>       0.05555556 </v>
    <v>       0.05555556 </v>
    <v>       0.05555556 </v>
    <v>       0.01388889 </v>
    <v>       0.03703704 </v>
    <v>       0.11111111 </v>
    <v>       0.05555556 </v>
    <v>       0.11111111 </v>
    <v>       0.11111111 </v>
    <v>       0.02777778 </v>
    <v>       0.03703704 </v>
    <v>       0.05555556 </v>
    <v>       0.02777778 </v>
    <v>       0.00462963 </v>
   </varray>
  </kpoints>
  <dynmat>
   <varray name="hessian" >
    <v>      -3.14700550      -0.00000000      -0.00000000       0.01195781       0.00000000      -0.00000000       0.00755689       0.00000000       0.00000000       0.00808361      -0.00000000      -0.00000000       0.00755689       0.00000000       0.00000000       0.00808361      -0.00000000      -0.00000000      -0.04622883      -0.00000000       0.00000000       0.00398197      -0.00000000      -0.00000000      -0.01233497      -0.00743603       0.00087328       0.00582707      -0.00719640      -0.01615639       0.65365480      -0.08278820      -0.08278820      -0.00524868      -0.00743603      -0.00743603       0.02781737      -0.01615639      -0.01615639      -0.00264547      -0.00258402      -0.00258402      -0.01233497       0.00087328      -0.00743603       0.00582707      -0.01615639      -0.00719640      -0.10791494       0.05348816      -0.05348816      -0.00397319       0.00278684      -0.00278684      -0.10791494       0.05348816       0.05348816      -0.00397319       0.00278684       0.00278684      -0.10791494      -0.05348816      -0.05348816      -0.00397319      -0.00278684      -0.00278684      -0.10791494      -0.05348816       0.05348816      -0.00397319      -0.00278684       0.00278684       0.65365480       0.08278820       0.08278820      -0.00524868       0.00743603       0.00743603      -0.01233497       0.00743603      -0.00087328       0.00582707       0.00719640       0.01615639      -0.01233497      -0.00087328       0.00743603       0.00582707       0.01615639       0.00719640       0.02781737       0.01615639       0.01615639      -0.00264547       0.00258402       0.00258402       0.11244963      -0.05348816       0.11635026       0.11244963      -0.05348816      -0.11635026       0.00646502      -0.00278684      -0.00649035       0.00646502      -0.00278684       0.00649035       0.11244963       0.05348816      -0.11635026       0.11244963       0.05348816       0.11635026       0.00646502       0.00278684       0.00649035       0.00646502       0.00278684      -0.00649035      -0.01233497       0.00743603       0.00087328       0.00582707       0.00719640      -0.01615639       0.65365480       0.08278820      -0.08278820      -0.00524868       0.00743603      -0.00743603       0.02781737       0.01615639      -0.01615639      -0.00264547       0.00258402      -0.00258402      -0.01233497      -0.00087328      -0.00743603       0.00582707       0.01615639      -0.00719640       0.11244963      -0.11635026       0.05348816       0.11244963       0.11635026       0.05348816       0.11244963       0.11635026      -0.05348816       0.11244963      -0.11635026      -0.05348816       0.00646502       0.00649035       0.00278684       0.00646502      -0.00649035       0.00278684       0.00646502      -0.00649035      -0.00278684       0.00646502       0.00649035      -0.00278684       0.65365480      -0.08278820       0.08278820      -0.00524868      -0.00743603       0.00743603      -0.01233497      -0.00743603      -0.00087328       0.00582707      -0.00719640       0.01615639      -0.01233497       0.00087328       0.00743603       0.00582707      -0.01615639       0.00719640       0.02781737      -0.01615639       0.01615639      -0.00264547      -0.00258402       0.00258402 </v>
    <v>      -0.00000000      -3.14700550      -0.00000000       0.00000000       0.00755689       0.00000000       0.00000000       0.01195781      -0.00000000      -0.00000000       0.00808361      -0.00000000       0.00000000       0.00755689       0.00000000      -0.00000000      -0.04622883       0.00000000      -0.00000000       0.00808361      -0.00000000      -0.00000000       0.00398197      -0.00000000      -0.00743603      -0.00524868       0.00743603      -0.00719640       0.00582707       0.01615639      -0.08278820       0.65365480       0.08278820      -0.00743603      -0.01233497      -0.00087328      -0.01615639       0.00582707       0.00719640      -0.00258402      -0.00264547       0.00258402       0.00087328      -0.01233497       0.00743603      -0.01615639       0.02781737       0.01615639      -0.05348816       0.11244963      -0.11635026      -0.00278684       0.00646502       0.00649035      -0.05348816       0.11244963       0.11635026      -0.00278684       0.00646502      -0.00649035       0.05348816       0.11244963       0.11635026       0.00278684       0.00646502      -0.00649035       0.05348816       0.11244963      -0.11635026       0.00278684       0.00646502       0.00649035       0.08278820       0.65365480       0.08278820       0.00743603      -0.01233497      -0.00087328       0.00743603      -0.00524868       0.00743603       0.00719640       0.00582707       0.01615639      -0.00087328      -0.01233497       0.00743603       0.01615639       0.02781737       0.01615639       0.01615639       0.00582707       0.00719640       0.00258402      -0.00264547       0.00258402       0.05348816      -0.10791494       0.05348816       0.05348816      -0.10791494      -0.05348816       0.00278684      -0.00397319       0.00278684       0.00278684      -0.00397319      -0.00278684      -0.05348816      -0.10791494       0.05348816      -0.05348816      -0.10791494      -0.05348816      -0.00278684      -0.00397319       0.00278684      -0.00278684      -0.00397319      -0.00278684       0.00743603      -0.00524868      -0.00743603       0.00719640       0.00582707      -0.01615639       0.08278820       0.65365480      -0.08278820       0.00743603      -0.01233497       0.00087328       0.01615639       0.00582707      -0.00719640       0.00258402      -0.00264547      -0.00258402      -0.00087328      -0.01233497      -0.00743603       0.01615639       0.02781737      -0.01615639      -0.11635026       0.11244963      -0.05348816       0.11635026       0.11244963       0.05348816       0.11635026       0.11244963      -0.05348816      -0.11635026       0.11244963       0.05348816       0.00649035       0.00646502      -0.00278684      -0.00649035       0.00646502       0.00278684      -0.00649035       0.00646502      -0.00278684       0.00649035       0.00646502       0.00278684      -0.08278820       0.65365480      -0.08278820      -0.00743603      -0.01233497       0.00087328      -0.00743603      -0.00524868      -0.00743603      -0.00719640       0.00582707      -0.01615639       0.00087328      -0.01233497      -0.00743603      -0.01615639       0.02781737      -0.01615639      -0.01615639       0.00582707      -0.00719640      -0.00258402      -0.00264547      -0.00258402 </v>
    <v>      -0.00000000      -0.00000000      -3.14700550      -0.00000000       0.00000000       0.00755689       0.00000000      -0.00000000       0.00755689      -0.00000000      -0.00000000      -0.04622883       0.00000000       0.00000000       0.01195781      -0.00000000       0.00000000       0.00808361       0.00000000      -0.00000000       0.00808361      -0.00000000      -0.00000000       0.00398197       0.00087328       0.00743603      -0.01233497      -0.01615639       0.01615639       0.02781737      -0.08278820       0.08278820       0.65365480      -0.00743603      -0.00087328      -0.01233497      -0.01615639       0.00719640       0.00582707      -0.00258402       0.00258402      -0.00264547      -0.00743603       0.00743603      -0.00524868      -0.00719640       0.01615639       0.00582707       0.05348816      -0.11635026       0.11244963       0.00278684       0.00649035       0.00646502      -0.05348816       0.11635026       0.11244963      -0.00278684      -0.00649035       0.00646502       0.05348816       0.11635026       0.11244963       0.00278684      -0.00649035       0.00646502      -0.05348816      -0.11635026       0.11244963      -0.00278684       0.00649035       0.00646502       0.08278820       0.08278820       0.65365480       0.00743603      -0.00087328      -0.01233497      -0.00087328       0.00743603      -0.01233497       0.01615639       0.01615639       0.02781737       0.00743603       0.00743603      -0.00524868       0.00719640       0.01615639       0.00582707       0.01615639       0.00719640       0.00582707       0.00258402       0.00258402      -0.00264547       0.11635026      -0.05348816       0.11244963      -0.11635026       0.05348816       0.11244963      -0.00649035      -0.00278684       0.00646502       0.00649035       0.00278684       0.00646502      -0.11635026      -0.05348816       0.11244963       0.11635026       0.05348816       0.11244963       0.00649035      -0.00278684       0.00646502      -0.00649035       0.00278684       0.00646502       0.00087328      -0.00743603      -0.01233497      -0.01615639      -0.01615639       0.02781737      -0.08278820      -0.08278820       0.65365480      -0.00743603       0.00087328      -0.01233497      -0.01615639      -0.00719640       0.00582707      -0.00258402      -0.00258402      -0.00264547      -0.00743603      -0.00743603      -0.00524868      -0.00719640      -0.01615639       0.00582707      -0.05348816       0.05348816      -0.10791494      -0.05348816      -0.05348816      -0.10791494       0.05348816       0.05348816      -0.10791494       0.05348816      -0.05348816      -0.10791494      -0.00278684       0.00278684      -0.00397319      -0.00278684      -0.00278684      -0.00397319       0.00278684       0.00278684      -0.00397319       0.00278684      -0.00278684      -0.00397319       0.08278820      -0.08278820       0.65365480       0.00743603       0.00087328      -0.01233497      -0.00087328      -0.00743603      -0.01233497       0.01615639      -0.01615639       0.02781737       0.00743603      -0.00743603      -0.00524868       0.00719640      -0.01615639       0.00582707       0.01615639      -0.00719640       0.00582707       0.00258402      -0.00258402      -0.00264547 </v>
    <v>       0.01195781       0.00000000      -0.00000000      -3.14700550      -0.00000000      -0.00000000       0.00808361      -0.00000000      -0.00000000       0.00755689       0.00000000       0.00000000       0.00808361      -0.00000000      -0.00000000       0.00755689       0.00000000       0.00000000       0.00398197      -0.00000000      -0.00000000      -0.04622883      -0.00000000       0.00000000       0.00582707      -0.00719640      -0.01615639      -0.01233497      -0.00743603       0.00087328      -0.00524868      -0.00743603      -0.00743603       0.65365480      -0.08278820      -0.08278820      -0.00264547      -0.00258402      -0.00258402       0.02781737      -0.01615639      -0.01615639       0.00582707      -0.01615639      -0.00719640      -0.01233497       0.00087328      -0.00743603      -0.00397319       0.00278684      -0.00278684      -0.10791494       0.05348816      -0.05348816      -0.00397319       0.00278684       0.00278684      -0.10791494       0.05348816       0.05348816      -0.00397319      -0.00278684      -0.00278684      -0.10791494      -0.05348816      -0.05348816      -0.00397319      -0.00278684       0.00278684      -0.10791494      -0.05348816       0.05348816      -0.00524868       0.00743603       0.00743603       0.65365480       0.08278820       0.08278820       0.00582707       0.00719640       0.01615639      -0.01233497       0.00743603      -0.00087328       0.00582707       0.01615639       0.00719640      -0.01233497      -0.00087328       0.00743603      -0.00264547       0.00258402       0.00258402       0.02781737       0.01615639       0.01615639       0.11244963      -0.05348816      -0.11635026       0.11244963      -0.05348816       0.11635026       0.00646502      -0.00278684       0.00649035       0.00646502      -0.00278684      -0.00649035       0.11244963       0.05348816       0.11635026       0.11244963       0.05348816      -0.11635026       0.00646502       0.00278684      -0.00649035       0.00646502       0.00278684       0.00649035       0.00582707       0.00719640      -0.01615639      -0.01233497       0.00743603       0.00087328      -0.00524868       0.00743603      -0.00743603       0.65365480       0.08278820      -0.08278820      -0.00264547       0.00258402      -0.00258402       0.02781737       0.01615639      -0.01615639       0.00582707       0.01615639      -0.00719640      -0.01233497      -0.00087328      -0.00743603       0.11244963       0.11635026       0.05348816       0.11244963      -0.11635026       0.05348816       0.11244963      -0.11635026      -0.05348816       0.11244963       0.11635026      -0.05348816       0.00646502      -0.00649035       0.00278684       0.00646502       0.00649035       0.00278684       0.00646502       0.00649035      -0.00278684       0.00646502      -0.00649035      -0.00278684      -0.00524868      -0.00743603       0.00743603       0.65365480      -0.08278820       0.08278820       0.00582707      -0.00719640       0.01615639      -0.01233497      -0.00743603      -0.00087328       0.00582707      -0.01615639       0.00719640      -0.01233497       0.00087328       0.00743603      -0.00264547      -0.00258402       0.00258402       0.02781737      -0.01615639       0.01615639 </v>
    <v>       0.00000000       0.00755689       0.00000000      -0.00000000      -3.14700550      -0.00000000      -0.00000000       0.00808361      -0.00000000       0.00000000       0.01195781      -0.00000000      -0.00000000      -0.04622883       0.00000000       0.00000000       0.00755689       0.00000000      -0.00000000       0.00398197      -0.00000000      -0.00000000       0.00808361      -0.00000000      -0.00719640       0.00582707       0.01615639      -0.00743603      -0.00524868       0.00743603      -0.00743603      -0.01233497      -0.00087328      -0.08278820       0.65365480       0.08278820      -0.00258402      -0.00264547       0.00258402      -0.01615639       0.00582707       0.00719640      -0.01615639       0.02781737       0.01615639       0.00087328      -0.01233497       0.00743603      -0.00278684       0.00646502       0.00649035      -0.05348816       0.11244963      -0.11635026      -0.00278684       0.00646502      -0.00649035      -0.05348816       0.11244963       0.11635026       0.00278684       0.00646502      -0.00649035       0.05348816       0.11244963       0.11635026       0.00278684       0.00646502       0.00649035       0.05348816       0.11244963      -0.11635026       0.00743603      -0.01233497      -0.00087328       0.08278820       0.65365480       0.08278820       0.00719640       0.00582707       0.01615639       0.00743603      -0.00524868       0.00743603       0.01615639       0.02781737       0.01615639      -0.00087328      -0.01233497       0.00743603       0.00258402      -0.00264547       0.00258402       0.01615639       0.00582707       0.00719640       0.05348816      -0.10791494      -0.05348816       0.05348816      -0.10791494       0.05348816       0.00278684      -0.00397319      -0.00278684       0.00278684      -0.00397319       0.00278684      -0.05348816      -0.10791494      -0.05348816      -0.05348816      -0.10791494       0.05348816      -0.00278684      -0.00397319      -0.00278684      -0.00278684      -0.00397319       0.00278684       0.00719640       0.00582707      -0.01615639       0.00743603      -0.00524868      -0.00743603       0.00743603      -0.01233497       0.00087328       0.08278820       0.65365480      -0.08278820       0.00258402      -0.00264547      -0.00258402       0.01615639       0.00582707      -0.00719640       0.01615639       0.02781737      -0.01615639      -0.00087328      -0.01233497      -0.00743603       0.11635026       0.11244963       0.05348816      -0.11635026       0.11244963      -0.05348816      -0.11635026       0.11244963       0.05348816       0.11635026       0.11244963      -0.05348816      -0.00649035       0.00646502       0.00278684       0.00649035       0.00646502      -0.00278684       0.00649035       0.00646502       0.00278684      -0.00649035       0.00646502      -0.00278684      -0.00743603      -0.01233497       0.00087328      -0.08278820       0.65365480      -0.08278820      -0.00719640       0.00582707      -0.01615639      -0.00743603      -0.00524868      -0.00743603      -0.01615639       0.02781737      -0.01615639       0.00087328      -0.01233497      -0.00743603      -0.00258402      -0.00264547      -0.00258402      -0.01615639       0.00582707      -0.00719640 </v>
    <v>      -0.00000000       0.00000000       0.00755689      -0.00000000      -0.00000000      -3.14700550      -0.00000000      -0.00000000      -0.04622883       0.00000000      -0.00000000       0.00755689      -0.00000000       0.00000000       0.00808361       0.00000000       0.00000000       0.01195781      -0.00000000      -0.00000000       0.00398197       0.00000000      -0.00000000       0.00808361      -0.01615639       0.01615639       0.02781737       0.00087328       0.00743603      -0.01233497      -0.00743603      -0.00087328      -0.01233497      -0.08278820       0.08278820       0.65365480      -0.00258402       0.00258402      -0.00264547      -0.01615639       0.00719640       0.00582707      -0.00719640       0.01615639       0.00582707      -0.00743603       0.00743603      -0.00524868       0.00278684       0.00649035       0.00646502       0.05348816      -0.11635026       0.11244963      -0.00278684      -0.00649035       0.00646502      -0.05348816       0.11635026       0.11244963       0.00278684      -0.00649035       0.00646502       0.05348816       0.11635026       0.11244963      -0.00278684       0.00649035       0.00646502      -0.05348816      -0.11635026       0.11244963       0.00743603      -0.00087328      -0.01233497       0.08278820       0.08278820       0.65365480       0.01615639       0.01615639       0.02781737      -0.00087328       0.00743603      -0.01233497       0.00719640       0.01615639       0.00582707       0.00743603       0.00743603      -0.00524868       0.00258402       0.00258402      -0.00264547       0.01615639       0.00719640       0.00582707      -0.11635026       0.05348816       0.11244963       0.11635026      -0.05348816       0.11244963       0.00649035       0.00278684       0.00646502      -0.00649035      -0.00278684       0.00646502       0.11635026       0.05348816       0.11244963      -0.11635026      -0.05348816       0.11244963      -0.00649035       0.00278684       0.00646502       0.00649035      -0.00278684       0.00646502      -0.01615639      -0.01615639       0.02781737       0.00087328      -0.00743603      -0.01233497      -0.00743603       0.00087328      -0.01233497      -0.08278820      -0.08278820       0.65365480      -0.00258402      -0.00258402      -0.00264547      -0.01615639      -0.00719640       0.00582707      -0.00719640      -0.01615639       0.00582707      -0.00743603      -0.00743603      -0.00524868      -0.05348816      -0.05348816      -0.10791494      -0.05348816       0.05348816      -0.10791494       0.05348816      -0.05348816      -0.10791494       0.05348816       0.05348816      -0.10791494      -0.00278684      -0.00278684      -0.00397319      -0.00278684       0.00278684      -0.00397319       0.00278684      -0.00278684      -0.00397319       0.00278684       0.00278684      -0.00397319       0.00743603       0.00087328      -0.01233497       0.08278820      -0.08278820       0.65365480       0.01615639      -0.01615639       0.02781737      -0.00087328      -0.00743603      -0.01233497       0.00719640      -0.01615639       0.00582707       0.00743603      -0.00743603      -0.00524868       0.00258402      -0.00258402      -0.00264547       0.01615639      -0.00719640       0.00582707 </v>
    <v>       0.00755689       0.00000000       0.00000000       0.00808361      -0.00000000      -0.00000000      -3.14700550      -0.00000000      -0.00000000       0.01195781       0.00000000      -0.00000000      -0.04622883      -0.00000000       0.00000000       0.00398197      -0.00000000      -0.00000000       0.00755689       0.00000000       0.00000000       0.00808361      -0.00000000      -0.00000000       0.65365480      -0.08278820      -0.08278820      -0.00524868      -0.00743603      -0.00743603      -0.01233497      -0.00743603       0.00087328       0.00582707      -0.00719640      -0.01615639      -0.01233497       0.00087328      -0.00743603       0.00582707      -0.01615639      -0.00719640       0.02781737      -0.01615639      -0.01615639      -0.00264547      -0.00258402      -0.00258402      -0.10791494       0.05348816       0.05348816      -0.00397319       0.00278684       0.00278684      -0.10791494       0.05348816      -0.05348816      -0.00397319       0.00278684      -0.00278684      -0.10791494      -0.05348816       0.05348816      -0.00397319      -0.00278684       0.00278684      -0.10791494      -0.05348816      -0.05348816      -0.00397319      -0.00278684      -0.00278684      -0.01233497       0.00743603      -0.00087328       0.00582707       0.00719640       0.01615639       0.65365480       0.08278820       0.08278820      -0.00524868       0.00743603       0.00743603       0.02781737       0.01615639       0.01615639      -0.00264547       0.00258402       0.00258402      -0.01233497      -0.00087328       0.00743603       0.00582707       0.01615639       0.00719640       0.00646502      -0.00278684      -0.00649035       0.00646502      -0.00278684       0.00649035       0.11244963      -0.05348816       0.11635026       0.11244963      -0.05348816      -0.11635026       0.00646502       0.00278684       0.00649035       0.00646502       0.00278684      -0.00649035       0.11244963       0.05348816      -0.11635026       0.11244963       0.05348816       0.11635026       0.65365480       0.08278820      -0.08278820      -0.00524868       0.00743603      -0.00743603      -0.01233497       0.00743603       0.00087328       0.00582707       0.00719640      -0.01615639      -0.01233497      -0.00087328      -0.00743603       0.00582707       0.01615639      -0.00719640       0.02781737       0.01615639      -0.01615639      -0.00264547       0.00258402      -0.00258402       0.11244963       0.11635026      -0.05348816       0.11244963      -0.11635026      -0.05348816       0.11244963      -0.11635026       0.05348816       0.11244963       0.11635026       0.05348816       0.00646502      -0.00649035      -0.00278684       0.00646502       0.00649035      -0.00278684       0.00646502       0.00649035       0.00278684       0.00646502      -0.00649035       0.00278684      -0.01233497      -0.00743603      -0.00087328       0.00582707      -0.00719640       0.01615639       0.65365480      -0.08278820       0.08278820      -0.00524868      -0.00743603       0.00743603       0.02781737      -0.01615639       0.01615639      -0.00264547      -0.00258402       0.00258402      -0.01233497       0.00087328       0.00743603       0.00582707      -0.01615639       0.00719640 </v>
    <v>       0.00000000       0.01195781      -0.00000000      -0.00000000       0.00808361      -0.00000000      -0.00000000      -3.14700550      -0.00000000       0.00000000       0.00755689       0.00000000      -0.00000000       0.00808361      -0.00000000      -0.00000000       0.00398197      -0.00000000       0.00000000       0.00755689       0.00000000      -0.00000000      -0.04622883       0.00000000      -0.08278820       0.65365480       0.08278820      -0.00743603      -0.01233497      -0.00087328      -0.00743603      -0.00524868       0.00743603      -0.00719640       0.00582707       0.01615639       0.00087328      -0.01233497       0.00743603      -0.01615639       0.02781737       0.01615639      -0.01615639       0.00582707       0.00719640      -0.00258402      -0.00264547       0.00258402      -0.05348816       0.11244963       0.11635026      -0.00278684       0.00646502      -0.00649035      -0.05348816       0.11244963      -0.11635026      -0.00278684       0.00646502       0.00649035       0.05348816       0.11244963      -0.11635026       0.00278684       0.00646502       0.00649035       0.05348816       0.11244963       0.11635026       0.00278684       0.00646502      -0.00649035       0.00743603      -0.00524868       0.00743603       0.00719640       0.00582707       0.01615639       0.08278820       0.65365480       0.08278820       0.00743603      -0.01233497      -0.00087328       0.01615639       0.00582707       0.00719640       0.00258402      -0.00264547       0.00258402      -0.00087328      -0.01233497       0.00743603       0.01615639       0.02781737       0.01615639       0.00278684      -0.00397319       0.00278684       0.00278684      -0.00397319      -0.00278684       0.05348816      -0.10791494       0.05348816       0.05348816      -0.10791494      -0.05348816      -0.00278684      -0.00397319       0.00278684      -0.00278684      -0.00397319      -0.00278684      -0.05348816      -0.10791494       0.05348816      -0.05348816      -0.10791494      -0.05348816       0.08278820       0.65365480      -0.08278820       0.00743603      -0.01233497       0.00087328       0.00743603      -0.00524868      -0.00743603       0.00719640       0.00582707      -0.01615639      -0.00087328      -0.01233497      -0.00743603       0.01615639       0.02781737      -0.01615639       0.01615639       0.00582707      -0.00719640       0.00258402      -0.00264547      -0.00258402       0.11635026       0.11244963      -0.05348816      -0.11635026       0.11244963       0.05348816      -0.11635026       0.11244963      -0.05348816       0.11635026       0.11244963       0.05348816      -0.00649035       0.00646502      -0.00278684       0.00649035       0.00646502       0.00278684       0.00649035       0.00646502      -0.00278684      -0.00649035       0.00646502       0.00278684      -0.00743603      -0.00524868      -0.00743603      -0.00719640       0.00582707      -0.01615639      -0.08278820       0.65365480      -0.08278820      -0.00743603      -0.01233497       0.00087328      -0.01615639       0.00582707      -0.00719640      -0.00258402      -0.00264547      -0.00258402       0.00087328      -0.01233497      -0.00743603      -0.01615639       0.02781737      -0.01615639 </v>
    <v>       0.00000000      -0.00000000       0.00755689      -0.00000000      -0.00000000      -0.04622883      -0.00000000      -0.00000000      -3.14700550      -0.00000000       0.00000000       0.00755689       0.00000000      -0.00000000       0.00808361      -0.00000000      -0.00000000       0.00398197       0.00000000       0.00000000       0.01195781      -0.00000000       0.00000000       0.00808361      -0.08278820       0.08278820       0.65365480      -0.00743603      -0.00087328      -0.01233497       0.00087328       0.00743603      -0.01233497      -0.01615639       0.01615639       0.02781737      -0.00743603       0.00743603      -0.00524868      -0.00719640       0.01615639       0.00582707      -0.01615639       0.00719640       0.00582707      -0.00258402       0.00258402      -0.00264547      -0.05348816       0.11635026       0.11244963      -0.00278684      -0.00649035       0.00646502       0.05348816      -0.11635026       0.11244963       0.00278684       0.00649035       0.00646502      -0.05348816      -0.11635026       0.11244963      -0.00278684       0.00649035       0.00646502       0.05348816       0.11635026       0.11244963       0.00278684      -0.00649035       0.00646502      -0.00087328       0.00743603      -0.01233497       0.01615639       0.01615639       0.02781737       0.08278820       0.08278820       0.65365480       0.00743603      -0.00087328      -0.01233497       0.01615639       0.00719640       0.00582707       0.00258402       0.00258402      -0.00264547       0.00743603       0.00743603      -0.00524868       0.00719640       0.01615639       0.00582707      -0.00649035      -0.00278684       0.00646502       0.00649035       0.00278684       0.00646502       0.11635026      -0.05348816       0.11244963      -0.11635026       0.05348816       0.11244963       0.00649035      -0.00278684       0.00646502      -0.00649035       0.00278684       0.00646502      -0.11635026      -0.05348816       0.11244963       0.11635026       0.05348816       0.11244963      -0.08278820      -0.08278820       0.65365480      -0.00743603       0.00087328      -0.01233497       0.00087328      -0.00743603      -0.01233497      -0.01615639      -0.01615639       0.02781737      -0.00743603      -0.00743603      -0.00524868      -0.00719640      -0.01615639       0.00582707      -0.01615639      -0.00719640       0.00582707      -0.00258402      -0.00258402      -0.00264547       0.05348816       0.05348816      -0.10791494       0.05348816      -0.05348816      -0.10791494      -0.05348816       0.05348816      -0.10791494      -0.05348816      -0.05348816      -0.10791494       0.00278684       0.00278684      -0.00397319       0.00278684      -0.00278684      -0.00397319      -0.00278684       0.00278684      -0.00397319      -0.00278684      -0.00278684      -0.00397319      -0.00087328      -0.00743603      -0.01233497       0.01615639      -0.01615639       0.02781737       0.08278820      -0.08278820       0.65365480       0.00743603       0.00087328      -0.01233497       0.01615639      -0.00719640       0.00582707       0.00258402      -0.00258402      -0.00264547       0.00743603      -0.00743603      -0.00524868       0.00719640      -0.01615639       0.00582707 </v>
[...]
      </set>
     </set>
    </set>
   </array>
  </eigenvalues>
  <separator name="orbital magnetization" >
   <v name="MAGDIPOLOUT">      0.00000000      0.00000000      0.00000000</v>
  </separator>
  <dos>
   <i name="efermi">      9.01296554 </i>
   <total>
    <array>
     <dimension dim="1">gridpoints</dimension>
     <dimension dim="2">spin</dimension>
     <field>energy</field>
     <field>total</field>
     <field>integrated</field>
     <set>
      <set comment="spin 1">
       <r>   -13.3739     0.0000     0.0000 </r>
       <r>   -13.2586     0.0000     0.0000 </r>
       <r>   -13.1432     0.0000     0.0000 </r>
       <r>   -13.0279     0.0000     0.0000 </r>
       <r>   -12.9125     0.0000     0.0000 </r>
       <r>   -12.7971     0.0000     0.0000 </r>
       <r>   -12.6818     0.0000     0.0000 </r>
       <r>   -12.5664     0.0000     0.0000 </r>
       <r>   -12.4511     0.0000     0.0000 </r>
       <r>   -12.3357     0.0000     0.0000 </r>
       <r>   -12.2203     0.0000     0.0000 </r>
       <r>   -12.1050     0.0000     0.0000 </r>
       <r>   -11.9896     0.0000     0.0000 </r>
       <r>   -11.8743     0.0037     0.0004 </r>
       <r>   -11.7589     0.2517     0.0295 </r>
       <r>   -11.6435     1.2633     0.1752 </r>
       <r>   -11.5282     1.4874     0.3468 </r>
       <r>   -11.4128     2.9156     0.6831 </r>
       <r>   -11.2975     1.6323     0.8714 </r>
       <r>   -11.1821     3.6769     1.2956 </r>
       <r>   -11.0667     2.9871     1.6402 </r>
       <r>   -10.9514     3.9891     2.1004 </r>
       <r>   -10.8360     2.4448     2.3824 </r>
       <r>   -10.7207     4.8162     2.9380 </r>
       <r>   -10.6053     4.5354     3.4612 </r>
       <r>   -10.4900     5.2183     4.0632 </r>
       <r>   -10.3746     2.4878     4.3502 </r>
       <r>   -10.2592     4.9188     4.9176 </r>
       <r>   -10.1439     6.5372     5.6717 </r>
       <r>   -10.0285     5.8598     6.3477 </r>
       <r>    -9.9132     4.4897     6.8656 </r>
       <r>    -9.7978     4.4104     7.3744 </r>
       <r>    -9.6824     7.1371     8.1977 </r>
       <r>    -9.5671     5.3258     8.8121 </r>
       <r>    -9.4517     5.6866     9.4681 </r>
       <r>    -9.3364     7.3262    10.3133 </r>
       <r>    -9.2210     7.4961    11.1780 </r>
       <r>    -9.1056     6.5222    11.9304 </r>
       <r>    -8.9903     5.4585    12.5601 </r>
       <r>    -8.8749     4.3972    13.0673 </r>
       <r>    -8.7596     9.5246    14.1661 </r>
       <r>    -8.6442     7.9798    15.0866 </r>
       <r>    -8.5288     9.4455    16.1763 </r>
       <r>    -8.4135     6.2723    16.8998 </r>
       <r>    -8.2981     6.7592    17.6796 </r>
       <r>    -8.1828     7.8392    18.5839 </r>
       <r>    -8.0674     7.6168    19.4625 </r>
       <r>    -7.9521     7.6982    20.3506 </r>
       <r>    -7.8367    10.7890    21.5952 </r>
       <r>    -7.7213    10.3676    22.7912 </r>
       <r>    -7.6060     5.2292    23.3944 </r>
       <r>    -7.4906     9.1197    24.4465 </r>
       <r>    -7.3753    13.9098    26.0511 </r>
       <r>    -7.2599     8.4803    27.0294 </r>
       <r>    -7.1445     5.3711    27.6490 </r>
       <r>    -7.0292    10.1541    28.8204 </r>
       <r>    -6.9138    10.6027    30.0435 </r>
       <r>    -6.7985    11.1854    31.3338 </r>
       <r>    -6.6831    13.8620    32.9329 </r>
       <r>    -6.5677    11.6963    34.2822 </r>
       <r>    -6.4524    13.9134    35.8872 </r>
       <r>    -6.3370    11.3812    37.2002 </r>
       <r>    -6.2217     7.1726    38.0276 </r>
       <r>    -6.1063    15.8284    39.8535 </r>
       <r>    -5.9909    15.6622    41.6603 </r>
       <r>    -5.8756    10.0976    42.8252 </r>
       <r>    -5.7602     8.4440    43.7993 </r>
       <r>    -5.6449    15.9471    45.6389 </r>
       <r>    -5.5295    10.8128    46.8863 </r>
       <r>    -5.4141    13.3073    48.4214 </r>
       <r>    -5.2988     7.1463    49.2458 </r>
       <r>    -5.1834    11.5979    50.5837 </r>
       <r>    -5.0681    11.8060    51.9456 </r>
       <r>    -4.9527     4.6806    52.4856 </r>
       <r>    -4.8374     8.6766    53.4865 </r>
       <r>    -4.7220    13.0057    54.9868 </r>
       <r>    -4.6066     5.0674    55.5714 </r>
       <r>    -4.4913     7.4680    56.4329 </r>
       <r>    -4.3759    12.6150    57.8882 </r>
       <r>    -4.2606    10.4368    59.0921 </r>
       <r>    -4.1452     9.1494    60.1476 </r>
       <r>    -4.0298     3.3148    60.5300 </r>
       <r>    -3.9145     4.5737    61.0576 </r>
       <r>    -3.7991     5.6556    61.7101 </r>
       <r>    -3.6838     3.6075    62.1262 </r>
       <r>    -3.5684     7.6454    63.0082 </r>
       <r>    -3.4530    12.9358    64.5004 </r>
       <r>    -3.3377     9.9297    65.6459 </r>
       <r>    -3.2223     6.0794    66.3472 </r>
       <r>    -3.1070    10.7345    67.5856 </r>
       <r>    -2.9916     9.8773    68.7250 </r>
       <r>    -2.8762     9.3849    69.8076 </r>
       <r>    -2.7609     8.0724    70.7389 </r>
       <r>    -2.6455    11.1777    72.0283 </r>
       <r>    -2.5302    12.5916    73.4809 </r>
       <r>    -2.4148    11.7597    74.8375 </r>
       <r>    -2.2994    19.5068    77.0878 </r>
       <r>    -2.1841    43.8040    82.1410 </r>
       <r>    -2.0687    24.2700    84.9407 </r>
       <r>    -1.9534     6.5318    85.6942 </r>
       <r>    -1.8380    15.0599    87.4315 </r>
       <r>    -1.7227    15.0651    89.1694 </r>
       <r>    -1.6073     6.8531    89.9600 </r>
       <r>    -1.4919     9.5325    91.0597 </r>
       <r>    -1.3766    16.1618    92.9241 </r>
       <r>    -1.2612    11.3040    94.2281 </r>
       <r>    -1.1459     9.9933    95.3809 </r>
       <r>    -1.0305    10.2952    96.5686 </r>
       <r>    -0.9151    14.1988    98.2065 </r>
       <r>    -0.7998    16.8520   100.1506 </r>
       <r>    -0.6844     5.9883   100.8414 </r>
       <r>    -0.5691     4.9200   101.4089 </r>
       <r>    -0.4537     4.0466   101.8757 </r>
       <r>    -0.3383     6.0997   102.5794 </r>
       <r>    -0.2230    15.4269   104.3590 </r>
       <r>    -0.1076     6.9754   105.1637 </r>
       <r>     0.0077     6.9834   105.9693 </r>
       <r>     0.1231    12.0837   107.3633 </r>
       <r>     0.2385     9.1582   108.4198 </r>
       <r>     0.3538    16.0443   110.2706 </r>
       <r>     0.4692    21.9808   112.8063 </r>
       <r>     0.5845    16.1136   114.6652 </r>
       <r>     0.6999    15.8247   116.4907 </r>
       <r>     0.8153    12.7223   117.9583 </r>
       <r>     0.9306    17.0124   119.9208 </r>
       <r>     1.0460    19.9720   122.2248 </r>
       <r>     1.1613    15.2820   123.9877 </r>
       <r>     1.2767    23.3721   126.6839 </r>
       <r>     1.3920    21.5523   129.1702 </r>
       <r>     1.5074     6.3388   129.9014 </r>
       <r>     1.6228    17.5501   131.9260 </r>
       <r>     1.7381    22.1255   134.4783 </r>
       <r>     1.8535    27.6190   137.6644 </r>
       <r>     1.9688    15.0907   139.4053 </r>
       <r>     2.0842    11.6964   140.7546 </r>
       <r>     2.1996    17.4699   142.7699 </r>
       <r>     2.3149    21.2126   145.2170 </r>
       <r>     2.4303    23.7067   147.9517 </r>
       <r>     2.5456    23.9582   150.7155 </r>
       <r>     2.6610    22.0732   153.2619 </r>
       <r>     2.7764    29.4236   156.6562 </r>
       <r>     2.8917    26.2235   159.6813 </r>
       <r>     3.0071    22.9359   162.3272 </r>
       <r>     3.1224    14.3834   163.9864 </r>
       <r>     3.2378    30.2170   167.4722 </r>
       <r>     3.3532    28.9980   170.8174 </r>
       <r>     3.4685    40.7831   175.5221 </r>
       <r>     3.5839    26.6258   178.5937 </r>
       <r>     3.6992    12.4148   180.0258 </r>
       <r>     3.8146    22.4100   182.6110 </r>
       <r>     3.9299    31.7935   186.2787 </r>
       <r>     4.0453    19.7917   188.5619 </r>
       <r>     4.1607    24.2526   191.3596 </r>
       <r>     4.2760    31.4609   194.9889 </r>
       <r>     4.3914    26.2586   198.0181 </r>
       <r>     4.5067    18.9832   200.2080 </r>
       <r>     4.6221    24.3279   203.0144 </r>
       <r>     4.7375    23.3946   205.7132 </r>
       <r>     4.8528    22.9670   208.3627 </r>
       <r>     4.9682    27.4103   211.5247 </r>
       <r>     5.0835    17.9221   213.5922 </r>
       <r>     5.1989    19.4914   215.8407 </r>
       <r>     5.3143    24.8505   218.7074 </r>
       <r>     5.4296    26.0721   221.7151 </r>
       <r>     5.5450    26.0114   224.7157 </r>
       <r>     5.6603    22.5485   227.3169 </r>
       <r>     5.7757    16.1420   229.1790 </r>
       <r>     5.8911    13.4794   230.7340 </r>
       <r>     6.0064    23.5577   233.4516 </r>
       <r>     6.1218    29.9627   236.9081 </r>
       <r>     6.2371    20.7792   239.3052 </r>
       <r>     6.3525     6.6621   240.0737 </r>
       <r>     6.4679    12.2404   241.4857 </r>
       <r>     6.5832    15.0839   243.2258 </r>
       <r>     6.6986     8.7741   244.2380 </r>
       <r>     6.8139    14.0090   245.8540 </r>
       <r>     6.9293    12.5390   247.3005 </r>
       <r>     7.0446     6.8253   248.0879 </r>
       <r>     7.1600     8.7128   249.0930 </r>
       <r>     7.2754     7.0111   249.9018 </r>
       <r>     7.3907     7.8491   250.8073 </r>
       <r>     7.5061     7.7618   251.7027 </r>
       <r>     7.6214     5.5655   252.3447 </r>
       <r>     7.7368     4.0865   252.8161 </r>
       <r>     7.8522     6.9925   253.6227 </r>
       <r>     7.9675     5.4847   254.2555 </r>
       <r>     8.0829     3.2302   254.6281 </r>
       <r>     8.1982     2.1070   254.8712 </r>
       <r>     8.3136     3.7289   255.3013 </r>
       <r>     8.4290     3.6907   255.7271 </r>
       <r>     8.5443     1.1587   255.8607 </r>
       <r>     8.6597     0.9782   255.9736 </r>
       <r>     8.7750     0.2268   255.9997 </r>
       <r>     8.8904     0.0022   256.0000 </r>
       <r>     9.0058     0.0000   256.0000 </r>
       <r>     9.1211     0.0000   256.0000 </r>
       <r>     9.2365     0.0000   256.0000 </r>
       <r>     9.3518     0.0000   256.0000 </r>
       <r>     9.4672     0.0000   256.0000 </r>
       <r>     9.5826     0.0000   256.0000 </r>
       <r>     9.6979     0.0000   256.0000 </r>
       <r>     9.8133     0.0000   256.0000 </r>
       <r>     9.9286     0.0000   256.0000 </r>
       <r>    10.0440     0.0000   256.0000 </r>
       <r>    10.1593     0.0000   256.0000 </r>
       <r>    10.2747     0.0000   256.0000 </r>
       <r>    10.3901     0.0000   256.0000 </r>
       <r>    10.5054     0.0000   256.0000 </r>
       <r>    10.6208     0.0000   256.0000 </r>
       <r>    10.7361     0.0000   256.0000 </r>
       <r>    10.8515     0.0000   256.0000 </r>
       <r>    10.9669     0.0000   256.0000 </r>
       <r>    11.0822     0.0000   256.0000 </r>
       <r>    11.1976     0.0000   256.0000 </r>
       <r>    11.3129     0.0000   256.0000 </r>
       <r>    11.4283     0.0000   256.0000 </r>
       <r>    11.5437     0.0000   256.0000 </r>
       <r>    11.6590     0.0000   256.0000 </r>
       <r>    11.7744     0.0000   256.0000 </r>
       <r>    11.8897     0.0000   256.0000 </r>
       <r>    12.0051     0.0000   256.0000 </r>
       <r>    12.1205     0.0000   256.0000 </r>
       <r>    12.2358     0.0000   256.0000 </r>
       <r>    12.3512     0.0000   256.0000 </r>
       <r>    12.4665     0.0001   256.0000 </r>
       <r>    12.5819     0.1347   256.0155 </r>
       <r>    12.6973     1.0319   256.1346 </r>
       <r>    12.8126     0.8743   256.2354 </r>
       <r>    12.9280     3.9413   256.6901 </r>
       <r>    13.0433     4.8969   257.2550 </r>
       <r>    13.1587     6.8143   258.0411 </r>
       <r>    13.2740     6.4507   258.7852 </r>
       <r>    13.3894     3.6545   259.2068 </r>
       <r>    13.5048     3.6643   259.6295 </r>
       <r>    13.6201     9.0656   260.6753 </r>
       <r>    13.7355    22.9795   263.3262 </r>
       <r>    13.8508     9.3469   264.4045 </r>
       <r>    13.9662    10.2495   265.5869 </r>
       <r>    14.0816    10.5008   266.7982 </r>
       <r>    14.1969    15.9853   268.6423 </r>
       <r>    14.3123    12.1187   270.0403 </r>
       <r>    14.4276    13.0588   271.5467 </r>
       <r>    14.5430    20.9702   273.9658 </r>
       <r>    14.6584    18.1970   276.0650 </r>
       <r>    14.7737    22.0664   278.6106 </r>
       <r>    14.8891    14.9273   280.3326 </r>
       <r>    15.0044    18.0007   282.4091 </r>
       <r>    15.1198    20.9940   284.8310 </r>
       <r>    15.2352    22.1373   287.3847 </r>
       <r>    15.3505    25.5311   290.3300 </r>
       <r>    15.4659    12.2114   291.7387 </r>
       <r>    15.5812    23.1206   294.4059 </r>
       <r>    15.6966    30.6053   297.9365 </r>
       <r>    15.8119    13.1719   299.4560 </r>
       <r>    15.9273    18.3258   301.5700 </r>
       <r>    16.0427    33.4389   305.4275 </r>
       <r>    16.1580    50.6496   311.2704 </r>
       <r>    16.2734    33.9046   315.1816 </r>
       <r>    16.3887    34.0260   319.1068 </r>
       <r>    16.5041    22.9174   321.7505 </r>
       <r>    16.6195    28.6490   325.0555 </r>
       <r>    16.7348    48.8190   330.6872 </r>
       <r>    16.8502    38.6561   335.1465 </r>
       <r>    16.9655    47.0809   340.5777 </r>
       <r>    17.0809    28.8834   343.9097 </r>
       <r>    17.1963    32.7318   347.6856 </r>
       <r>    17.3116    37.0290   351.9573 </r>
       <r>    17.4270    43.0854   356.9276 </r>
       <r>    17.5423    18.2823   359.0366 </r>
       <r>    17.6577    15.4688   360.8211 </r>
       <r>    17.7731    18.7056   362.9789 </r>
       <r>    17.8884    27.3509   366.1341 </r>
       <r>    18.0038    36.5771   370.3536 </r>
       <r>    18.1191    33.6008   374.2298 </r>
       <r>    18.2345    19.5892   376.4896 </r>
       <r>    18.3499    15.3225   378.2572 </r>
       <r>    18.4652    16.6942   380.1830 </r>
       <r>    18.5806     7.5412   381.0529 </r>
       <r>    18.6959     2.0183   381.2858 </r>
       <r>    18.8113     7.2055   382.1170 </r>
       <r>    18.9266     7.5182   382.9843 </r>
       <r>    19.0420     1.8147   383.1936 </r>
       <r>    19.1574     1.5380   383.3710 </r>
       <r>    19.2727     0.3195   383.4079 </r>
       <r>    19.3881     0.9231   383.5144 </r>
       <r>    19.5034     2.0733   383.7536 </r>
       <r>    19.6188     0.5666   383.8189 </r>
       <r>    19.7342     1.5032   383.9923 </r>
       <r>    19.8495     0.0665   384.0000 </r>
       <r>    19.9649     0.0000   384.0000 </r>
       <r>    20.0802     0.0000   384.0000 </r>
       <r>    20.1956     0.0000   384.0000 </r>
       <r>    20.3110     0.0000   384.0000 </r>
       <r>    20.4263     0.0000   384.0000 </r>
       <r>    20.5417     0.0000   384.0000 </r>
       <r>    20.6570     0.0000   384.0000 </r>
       <r>    20.7724     0.0000   384.0000 </r>
       <r>    20.8878     0.0000   384.0000 </r>
       <r>    21.0031     0.0000   384.0000 </r>
       <r>    21.1185     0.0000   384.0000 </r>
       <r>    21.2338     0.0000   384.0000 </r>
      </set>
     </set>
    </array>
   </total>
  </dos>
 </calculation>
 <structure name="finalpos" >
  <crystal>
   <varray name="basis" >
    <v>       7.32218990       0.00000000       0.00000000 </v>
    <v>       0.00000000       7.32218990       0.00000000 </v>
    <v>       0.00000000       0.00000000       7.32218990 </v>
   </varray>
   <i name="volume">    392.57529362 </i>
   <varray name="rec_basis" >
    <v>       0.13657116       0.00000000       0.00000000 </v>
    <v>       0.00000000       0.13657116       0.00000000 </v>
    <v>       0.00000000       0.00000000       0.13657116 </v>
   </varray>
  </crystal>
  <varray name="positions" >
   <v>       0.12500000       0.37500000       0.12500000 </v>
   <v>       0.62500000       0.37500000       0.12500000 </v>
   <v>       0.12500000       0.87500000       0.12500000 </v>
   <v>       0.62500000       0.87500000       0.12500000 </v>
   <v>       0.12500000       0.37500000       0.62500000 </v>
   <v>       0.62500000       0.37500000       0.62500000 </v>
   <v>       0.12500000       0.87500000       0.62500000 </v>
   <v>       0.62500000       0.87500000       0.62500000 </v>
   <v>       0.00000000       0.00000000       0.25000000 </v>
   <v>       0.50000000       0.00000000       0.25000000 </v>
   <v>       0.00000000       0.50000000       0.25000000 </v>
   <v>       0.50000000       0.50000000       0.25000000 </v>
   <v>       0.00000000       0.00000000       0.75000000 </v>
   <v>       0.50000000       0.00000000       0.75000000 </v>
   <v>       0.00000000       0.50000000       0.75000000 </v>
   <v>       0.50000000       0.50000000       0.75000000 </v>
   <v>       0.12500000       0.12500000       0.37500000 </v>
   <v>       0.62500000       0.12500000       0.37500000 </v>
   <v>       0.12500000       0.62500000       0.37500000 </v>
   <v>       0.62500000       0.62500000       0.37500000 </v>
   <v>       0.12500000       0.12500000       0.87500000 </v>
   <v>       0.62500000       0.12500000       0.87500000 </v>
   <v>       0.12500000       0.62500000       0.87500000 </v>
   <v>       0.62500000       0.62500000       0.87500000 </v>
   <v>       0.00000000       0.25000000       0.00000000 </v>
   <v>       0.50000000       0.25000000       0.00000000 </v>
   <v>       0.00000000       0.75000000       0.00000000 </v>
   <v>       0.50000000       0.75000000       0.00000000 </v>
   <v>       0.00000000       0.25000000       0.50000000 </v>
   <v>       0.50000000       0.25000000       0.50000000 </v>
   <v>       0.00000000       0.75000000       0.50000000 </v>
   <v>       0.50000000       0.75000000       0.50000000 </v>
   <v>       0.37500000       0.37500000       0.37500000 </v>
   <v>       0.87500000       0.37500000       0.37500000 </v>
   <v>       0.37500000       0.87500000       0.37500000 </v>
   <v>       0.87500000       0.87500000       0.37500000 </v>
   <v>       0.37500000       0.37500000       0.87500000 </v>
   <v>       0.87500000       0.37500000       0.87500000 </v>
   <v>       0.37500000       0.87500000       0.87500000 </v>
   <v>       0.87500000       0.87500000       0.87500000 </v>
   <v>       0.25000000       0.00000000       0.00000000 </v>
   <v>       0.75000000       0.00000000       0.00000000 </v>
   <v>       0.25000000       0.50000000       0.00000000 </v>
   <v>       0.75000000       0.50000000       0.00000000 </v>
   <v>       0.25000000       0.00000000       0.50000000 </v>
   <v>       0.75000000       0.00000000       0.50000000 </v>
   <v>       0.25000000       0.50000000       0.50000000 </v>
   <v>       0.75000000       0.50000000       0.50000000 </v>
   <v>       0.37500000       0.12500000       0.12500000 </v>
   <v>       0.87500000       0.12500000       0.12500000 </v>
   <v>       0.37500000       0.62500000       0.12500000 </v>
   <v>       0.87500000       0.62500000       0.12500000 </v>
   <v>       0.37500000       0.12500000       0.62500000 </v>
   <v>       0.87500000       0.12500000       0.62500000 </v>
   <v>       0.37500000       0.62500000       0.62500000 </v>
   <v>       0.87500000       0.62500000       0.62500000 </v>
   <v>       0.25000000       0.25000000       0.25000000 </v>
   <v>       0.75000000       0.25000000       0.25000000 </v>
   <v>       0.25000000       0.75000000       0.25000000 </v>
   <v>       0.75000000       0.75000000       0.25000000 </v>
   <v>       0.25000000       0.25000000       0.75000000 </v>
   <v>       0.75000000       0.25000000       0.75000000 </v>
   <v>       0.25000000       0.75000000       0.75000000 </v>
   <v>       0.75000000       0.75000000       0.75000000 </v>
  </varray>
 </structure>
</modeling>
