   8   8   0   0
  0.5366296E+01  0.3501506E-09  0.3501506E-09  0.3501506E-09  0.2000000E-16
  1.000000000000000E-004
  CAR 
 unknown system                          
     24.49111468    -13.38220313  301     10.62001203      1.00000000
    -13.382  0.0000E+00  0.0000E+00
    -13.256  0.0000E+00  0.0000E+00
    -13.130  0.0000E+00  0.0000E+00
    -13.003  0.0000E+00  0.0000E+00
    -12.877  0.0000E+00  0.0000E+00
    -12.751  0.0000E+00  0.0000E+00
    -12.625  0.0000E+00  0.0000E+00
    -12.498  0.0000E+00  0.0000E+00
    -12.372  0.0000E+00  0.0000E+00
    -12.246  0.0000E+00  0.0000E+00
    -12.120  0.0000E+00  0.0000E+00
    -11.994  0.0000E+00  0.0000E+00
    -11.867  0.0000E+00  0.0000E+00
    -11.741  0.0000E+00  0.0000E+00
    -11.615  0.3305E-01  0.5058E-03
    -11.489  0.1472E+00  0.1480E-01
    -11.362  0.2307E+00  0.3861E-01
    -11.236  0.2608E+00  0.6934E-01
    -11.110  0.3059E+00  0.1051E+00
    -10.984  0.3449E+00  0.1467E+00
    -10.857  0.3724E+00  0.1919E+00
    -10.731  0.4016E+00  0.2406E+00
    -10.605  0.4381E+00  0.2936E+00
    -10.479  0.4605E+00  0.3505E+00
    -10.352  0.4827E+00  0.4101E+00
    -10.226  0.5070E+00  0.4725E+00
    -10.100  0.5338E+00  0.5382E+00
     -9.974  0.5602E+00  0.6073E+00
     -9.847  0.5780E+00  0.6791E+00
     -9.721  0.5969E+00  0.7533E+00
     -9.595  0.6175E+00  0.8299E+00
     -9.469  0.6388E+00  0.9092E+00
     -9.342  0.6615E+00  0.9912E+00
     -9.216  0.6825E+00  0.1076E+01
     -9.090  0.6990E+00  0.1163E+01
     -8.964  0.7153E+00  0.1253E+01
     -8.837  0.7340E+00  0.1344E+01
     -8.711  0.7531E+00  0.1438E+01
     -8.585  0.7731E+00  0.1534E+01
     -8.459  0.7938E+00  0.1633E+01
     -8.332  0.8104E+00  0.1735E+01
     -8.206  0.8266E+00  0.1838E+01
     -8.080  0.8436E+00  0.1943E+01
     -7.954  0.8613E+00  0.2051E+01
     -7.827  0.8793E+00  0.2161E+01
     -7.701  0.8979E+00  0.2273E+01
     -7.575  0.9572E+00  0.2391E+01
     -7.449  0.9824E+00  0.2513E+01
     -7.322  0.1028E+01  0.2641E+01
     -7.196  0.1031E+01  0.2771E+01
     -7.070  0.1009E+01  0.2900E+01
     -6.944  0.9777E+00  0.3025E+01
     -6.817  0.1003E+01  0.3150E+01
     -6.691  0.1014E+01  0.3278E+01
     -6.565  0.1017E+01  0.3406E+01
     -6.439  0.1032E+01  0.3535E+01
     -6.313  0.1081E+01  0.3668E+01
     -6.186  0.1129E+01  0.3808E+01
     -6.060  0.1210E+01  0.3956E+01
     -5.934  0.1252E+01  0.4112E+01
     -5.808  0.1267E+01  0.4270E+01
     -5.681  0.1381E+01  0.4436E+01
     -5.555  0.1536E+01  0.4621E+01
     -5.429  0.1466E+01  0.4816E+01
     -5.303  0.1428E+01  0.4999E+01
     -5.176  0.1365E+01  0.5177E+01
     -5.050  0.1350E+01  0.5350E+01
     -4.924  0.1304E+01  0.5516E+01
     -4.798  0.1355E+01  0.5684E+01
     -4.671  0.1266E+01  0.5854E+01
     -4.545  0.1173E+01  0.6008E+01
     -4.419  0.1150E+01  0.6154E+01
     -4.293  0.1121E+01  0.6298E+01
     -4.166  0.1109E+01  0.6438E+01
     -4.040  0.1095E+01  0.6580E+01
     -3.914  0.1089E+01  0.6713E+01
     -3.788  0.1053E+01  0.6845E+01
     -3.661  0.9701E+00  0.6975E+01
     -3.535  0.9314E+00  0.7095E+01
     -3.409  0.8973E+00  0.7210E+01
     -3.283  0.9933E+00  0.7328E+01
     -3.156  0.1093E+01  0.7465E+01
     -3.030  0.1081E+01  0.7600E+01
     -2.904  0.1083E+01  0.7739E+01
     -2.778  0.1038E+01  0.7872E+01
     -2.651  0.1025E+01  0.8002E+01
     -2.525  0.1212E+01  0.8145E+01
     -2.399  0.1045E+01  0.8287E+01
     -2.273  0.9832E+00  0.8413E+01
     -2.146  0.9857E+00  0.8538E+01
     -2.020  0.1062E+01  0.8665E+01
     -1.894  0.1161E+01  0.8806E+01
     -1.768  0.1288E+01  0.8960E+01
     -1.641  0.1468E+01  0.9134E+01
     -1.515  0.1705E+01  0.9333E+01
     -1.389  0.2190E+01  0.9576E+01
     -1.263  0.2592E+01  0.9882E+01
     -1.136  0.2660E+01  0.1021E+02
     -1.010  0.2135E+01  0.1053E+02
     -0.884  0.1823E+01  0.1078E+02
     -0.758  0.1596E+01  0.1099E+02
     -0.632  0.1486E+01  0.1119E+02
     -0.505  0.1406E+01  0.1137E+02
     -0.379  0.1341E+01  0.1154E+02
     -0.253  0.1303E+01  0.1171E+02
     -0.127  0.1276E+01  0.1187E+02
     -0.000  0.1247E+01  0.1203E+02
      0.126  0.1227E+01  0.1219E+02
      0.252  0.1239E+01  0.1234E+02
      0.378  0.1123E+01  0.1250E+02
      0.505  0.1119E+01  0.1264E+02
      0.631  0.1107E+01  0.1278E+02
      0.757  0.1011E+01  0.1292E+02
      0.883  0.1076E+01  0.1304E+02
      1.010  0.1375E+01  0.1320E+02
      1.136  0.1709E+01  0.1339E+02
      1.262  0.2055E+01  0.1363E+02
      1.388  0.2205E+01  0.1390E+02
      1.515  0.2085E+01  0.1417E+02
      1.641  0.2067E+01  0.1443E+02
      1.767  0.2076E+01  0.1469E+02
      1.893  0.2164E+01  0.1496E+02
      2.020  0.2099E+01  0.1523E+02
      2.146  0.1793E+01  0.1548E+02
      2.272  0.1314E+01  0.1568E+02
      2.398  0.1441E+01  0.1585E+02
      2.525  0.1796E+01  0.1605E+02
      2.651  0.2061E+01  0.1629E+02
      2.777  0.2215E+01  0.1656E+02
      2.903  0.2186E+01  0.1685E+02
      3.030  0.2251E+01  0.1712E+02
      3.156  0.2276E+01  0.1741E+02
      3.282  0.2363E+01  0.1770E+02
      3.408  0.2679E+01  0.1802E+02
      3.535  0.2991E+01  0.1837E+02
      3.661  0.2634E+01  0.1873E+02
      3.787  0.2437E+01  0.1906E+02
      3.913  0.2367E+01  0.1936E+02
      4.040  0.2767E+01  0.1968E+02
      4.166  0.2628E+01  0.2003E+02
      4.292  0.2770E+01  0.2036E+02
      4.418  0.3314E+01  0.2076E+02
      4.545  0.3863E+01  0.2121E+02
      4.671  0.3211E+01  0.2165E+02
      4.797  0.3056E+01  0.2205E+02
      4.923  0.2521E+01  0.2239E+02
      5.049  0.2477E+01  0.2270E+02
      5.176  0.2796E+01  0.2304E+02
      5.302  0.2589E+01  0.2339E+02
      5.428  0.2692E+01  0.2372E+02
      5.554  0.2851E+01  0.2407E+02
      5.681  0.2815E+01  0.2443E+02
      5.807  0.2810E+01  0.2478E+02
      5.933  0.2903E+01  0.2514E+02
      6.059  0.2917E+01  0.2551E+02
      6.186  0.2608E+01  0.2586E+02
      6.312  0.2375E+01  0.2617E+02
      6.438  0.2238E+01  0.2646E+02
      6.564  0.2249E+01  0.2675E+02
      6.691  0.2451E+01  0.2704E+02
      6.817  0.2820E+01  0.2737E+02
      6.943  0.2610E+01  0.2771E+02
      7.069  0.2625E+01  0.2803E+02
      7.196  0.2539E+01  0.2836E+02
      7.322  0.2304E+01  0.2866E+02
      7.448  0.2173E+01  0.2894E+02
      7.574  0.2586E+01  0.2924E+02
      7.701  0.2207E+01  0.2960E+02
      7.827  0.1715E+01  0.2983E+02
      7.953  0.1562E+01  0.3004E+02
      8.079  0.1447E+01  0.3023E+02
      8.206  0.1319E+01  0.3040E+02
      8.332  0.1258E+01  0.3057E+02
      8.458  0.1187E+01  0.3072E+02
      8.584  0.1121E+01  0.3087E+02
      8.711  0.1006E+01  0.3100E+02
      8.837  0.9074E+00  0.3112E+02
      8.963  0.8455E+00  0.3123E+02
      9.089  0.8002E+00  0.3134E+02
      9.216  0.7661E+00  0.3143E+02
      9.342  0.6902E+00  0.3153E+02
      9.468  0.6188E+00  0.3161E+02
      9.594  0.5456E+00  0.3168E+02
      9.721  0.5181E+00  0.3175E+02
      9.847  0.4620E+00  0.3181E+02
      9.973  0.3572E+00  0.3186E+02
     10.099  0.3659E+00  0.3191E+02
     10.225  0.3546E+00  0.3195E+02
     10.352  0.1513E+00  0.3198E+02
     10.478  0.1370E+00  0.3200E+02
     10.604  0.0000E+00  0.3200E+02
     10.730  0.0000E+00  0.3200E+02
     10.857  0.0000E+00  0.3200E+02
     10.983  0.0000E+00  0.3200E+02
     11.109  0.0000E+00  0.3200E+02
     11.235  0.0000E+00  0.3200E+02
     11.362  0.0000E+00  0.3200E+02
     11.488  0.0000E+00  0.3200E+02
     11.614  0.0000E+00  0.3200E+02
     11.740  0.0000E+00  0.3200E+02
     11.867  0.0000E+00  0.3200E+02
     11.993  0.0000E+00  0.3200E+02
     12.119  0.0000E+00  0.3200E+02
     12.245  0.0000E+00  0.3200E+02
     12.372  0.0000E+00  0.3200E+02
     12.498  0.0000E+00  0.3200E+02
     12.624  0.0000E+00  0.3200E+02
     12.750  0.0000E+00  0.3200E+02
     12.877  0.0000E+00  0.3200E+02
     13.003  0.0000E+00  0.3200E+02
     13.129  0.0000E+00  0.3200E+02
     13.255  0.0000E+00  0.3200E+02
     13.382  0.0000E+00  0.3200E+02
     13.508  0.0000E+00  0.3200E+02
     13.634  0.0000E+00  0.3200E+02
     13.760  0.0000E+00  0.3200E+02
     13.887  0.0000E+00  0.3200E+02
     14.013  0.0000E+00  0.3200E+02
     14.139  0.0000E+00  0.3200E+02
     14.265  0.0000E+00  0.3200E+02
     14.392  0.0000E+00  0.3200E+02
     14.518  0.0000E+00  0.3200E+02
     14.644  0.0000E+00  0.3200E+02
     14.770  0.0000E+00  0.3200E+02
     14.897  0.2884E-01  0.3200E+02
     15.023  0.1675E+00  0.3201E+02
     15.149  0.3964E+00  0.3205E+02
     15.275  0.5578E+00  0.3211E+02
     15.402  0.5746E+00  0.3218E+02
     15.528  0.6664E+00  0.3226E+02
     15.654  0.8251E+00  0.3235E+02
     15.780  0.9081E+00  0.3246E+02
     15.906  0.1475E+01  0.3259E+02
     16.033  0.1410E+01  0.3278E+02
     16.159  0.1393E+01  0.3295E+02
     16.285  0.1417E+01  0.3313E+02
     16.411  0.1477E+01  0.3332E+02
     16.538  0.1519E+01  0.3350E+02
     16.664  0.1634E+01  0.3370E+02
     16.790  0.1733E+01  0.3392E+02
     16.916  0.1964E+01  0.3415E+02
     17.043  0.2212E+01  0.3441E+02
     17.169  0.2141E+01  0.3469E+02
     17.295  0.1992E+01  0.3495E+02
     17.421  0.2001E+01  0.3520E+02
     17.548  0.2056E+01  0.3546E+02
     17.674  0.2152E+01  0.3572E+02
     17.800  0.2308E+01  0.3600E+02
     17.926  0.2452E+01  0.3630E+02
     18.053  0.2632E+01  0.3662E+02
     18.179  0.2642E+01  0.3696E+02
     18.305  0.2722E+01  0.3730E+02
     18.431  0.2864E+01  0.3765E+02
     18.558  0.3136E+01  0.3803E+02
     18.684  0.3417E+01  0.3845E+02
     18.810  0.3934E+01  0.3891E+02
     18.936  0.4297E+01  0.3944E+02
     19.063  0.4152E+01  0.3997E+02
     19.189  0.3697E+01  0.4048E+02
     19.315  0.2657E+01  0.4087E+02
     19.441  0.2622E+01  0.4122E+02
     19.568  0.2914E+01  0.4156E+02
     19.694  0.3425E+01  0.4197E+02
     19.820  0.3205E+01  0.4239E+02
     19.946  0.3292E+01  0.4280E+02
     20.073  0.3731E+01  0.4324E+02
     20.199  0.3606E+01  0.4372E+02
     20.325  0.3271E+01  0.4415E+02
     20.451  0.2777E+01  0.4453E+02
     20.578  0.2577E+01  0.4486E+02
     20.704  0.2542E+01  0.4518E+02
     20.830  0.2678E+01  0.4551E+02
     20.956  0.2684E+01  0.4585E+02
     21.083  0.2646E+01  0.4619E+02
     21.209  0.2684E+01  0.4653E+02
     21.335  0.2628E+01  0.4686E+02
     21.461  0.2487E+01  0.4720E+02
     21.587  0.1882E+01  0.4747E+02
     21.714  0.1380E+01  0.4767E+02
     21.840  0.7498E+00  0.4781E+02
     21.966  0.4558E+00  0.4788E+02
     22.092  0.2289E+00  0.4793E+02
     22.219  0.1811E+00  0.4795E+02
     22.345  0.1350E+00  0.4797E+02
     22.471  0.9065E-01  0.4799E+02
     22.597  0.4899E-01  0.4800E+02
     22.724  0.1045E-01  0.4800E+02
     22.850  0.0000E+00  0.4800E+02
     22.976  0.0000E+00  0.4800E+02
     23.102  0.0000E+00  0.4800E+02
     23.229  0.0000E+00  0.4800E+02
     23.355  0.0000E+00  0.4800E+02
     23.481  0.0000E+00  0.4800E+02
     23.607  0.0000E+00  0.4800E+02
     23.734  0.0000E+00  0.4800E+02
     23.860  0.0000E+00  0.4800E+02
     23.986  0.0000E+00  0.4800E+02
     24.112  0.0000E+00  0.4800E+02
     24.239  0.0000E+00  0.4800E+02
     24.365  0.0000E+00  0.4800E+02
     24.491  0.0000E+00  0.4800E+02
