 vasp.5.4.4.18Apr17-6-g9f103f2a35 (build Mar 12 2022 03:36:41) complex          
  
 executed on IFC19.0.3.199_CrayMP date 2022.11.30  12:24:49
 running on   16 total cores
 distrk:  each k-point on   16 cores,    1 groups
 distr:  one band on NCORES_PER_BAND=   4 cores,    4 groups


--------------------------------------------------------------------------------------------------------


 INCAR:
 POTCAR:   PAW_PBE C 08Apr2002                    
 POTCAR:   PAW_PBE C 08Apr2002                    
   VRHFIN =C: s2p2                                                              
   LEXCH  = PE                                                                  
   EATOM  =   147.1560 eV,   10.8157 Ry                                         
                                                                                
   TITEL  = PAW_PBE C 08Apr2002                                                 
   LULTRA =        F    use ultrasoft PP ?                                      
   IUNSCR =        0    unscreen: 0-lin 1-nonlin 2-no                           
   RPACOR =     .000    partial core radius                                     
   POMASS =   12.011; ZVAL   =    4.000    mass and valenz                      
   RCORE  =    1.500    outmost cutoff radius                                   
   RWIGS  =    1.630; RWIGS  =     .863    wigner-seitz radius (au A)           
   ENMAX  =  400.000; ENMIN  =  300.000 eV                                      
   ICORE  =        2    local potential                                         
   LCOR   =        T    correct aug charges                                     
   LPAW   =        T    paw PP                                                  
   EAUG   =  644.873                                                            
   DEXC   =     .000                                                            
   RMAX   =    2.266    core radius for proj-oper                               
   RAUG   =    1.300    factor for augmentation sphere                          
   RDEP   =    1.501    radius for radial grids                                 
   RDEPT  =    1.300    core radius for aug-charge                              
   QCUT   =   -5.516; QGAM   =   11.032    optimization parameters              
                                                                                
   Description                                                                  
     l     E      TYP  RCUT    TYP  RCUT                                        
     0   .000     23  1.200                                                     
     0   .000     23  1.200                                                     
     1   .000     23  1.500                                                     
     1  2.500     23  1.500                                                     
     2   .000      7  1.500                                                     
  local pseudopotential read in
  atomic valenz-charges read in
  non local Contribution for L=           0  read in
    real space projection operators read in
  non local Contribution for L=           0  read in
    real space projection operators read in
  non local Contribution for L=           1  read in
    real space projection operators read in
  non local Contribution for L=           1  read in
    real space projection operators read in
    PAW grid and wavefunctions read in
 
   number of l-projection  operators is LMAX  =           4
   number of lm-projection operators is LMMAX =           8
 
 PAW_PBE C 08Apr2002                    :
 energy of atom  1       EATOM= -147.1560
 kinetic energy error for atom=    0.0288 (will be added to EATOM!!)
 
 
 POSCAR: C8                                      
  positions in direct lattice
  No initial velocities read in
 exchange correlation table for  LEXCH =        8
   RHO(1)=    0.500       N(1)  =     2000
   RHO(2)=  100.500       N(2)  =     4000
 


--------------------------------------------------------------------------------------------------------


 ion  position               nearest neighbor table
   1  0.250  0.750  0.250-   2 1.52   4 1.52   6 1.52   8 1.52
   2  0.000  0.000  0.500-   1 1.52   3 1.52   5 1.52   7 1.52
   3  0.250  0.250  0.750-   2 1.52   4 1.52   6 1.52   8 1.52
   4  0.000  0.500  0.000-   1 1.52   3 1.52   5 1.52   7 1.52
   5  0.750  0.750  0.750-   2 1.52   4 1.52   6 1.52   8 1.52
   6  0.500  0.000  0.000-   1 1.52   3 1.52   5 1.52   7 1.52
   7  0.750  0.250  0.250-   2 1.52   4 1.52   6 1.52   8 1.52
   8  0.500  0.500  0.500-   1 1.52   3 1.52   5 1.52   7 1.52
 
  LATTYP: Found a simple cubic cell.
 ALAT       =     3.5015060000
  
  Lattice vectors:
  
 A1 = (   3.5015060000,   0.0000000000,   0.0000000000)
 A2 = (   0.0000000000,   3.5015060000,   0.0000000000)
 A3 = (   0.0000000000,   0.0000000000,   3.5015060000)


Analysis of symmetry for initial positions (statically):
=====================================================================
 Subroutine PRICEL returns following result:
 
  LATTYP: Found a face centered cubic cell.
 ALAT       =     3.5015060000
  
  Lattice vectors:
  
 A1 = (   1.7507530000,   1.7507530000,  -0.0000000000)
 A2 = (   1.7507530000,   0.0000000000,  -1.7507530000)
 A3 = (   0.0000000000,   1.7507530000,  -1.7507530000)
 
   4 primitive cells build up your supercell.
 

 Routine SETGRP: Setting up the symmetry group for a 
 simple cubic supercell.


 Subroutine GETGRP returns: Found 48 space group operations
 (whereof 24 operations were pure point group operations)
 out of a pool of 48 trial point group operations.


The static configuration has the point symmetry T_d .
 The point group associated with its full space group is O_h .


Analysis of symmetry for dynamics (positions and initial velocities):
=====================================================================
 Subroutine PRICEL returns following result:
 
  LATTYP: Found a face centered cubic cell.
 ALAT       =     3.5015060000
  
  Lattice vectors:
  
 A1 = (   1.7507530000,   1.7507530000,  -0.0000000000)
 A2 = (   1.7507530000,   0.0000000000,  -1.7507530000)
 A3 = (   0.0000000000,   1.7507530000,  -1.7507530000)
 
   4 primitive cells build up your supercell.
 

 Routine SETGRP: Setting up the symmetry group for a 
 simple cubic supercell.


 Subroutine GETGRP returns: Found 48 space group operations
 (whereof 24 operations were pure point group operations)
 out of a pool of 48 trial point group operations.


The dynamic configuration has the point symmetry T_d .
 The point group associated with its full space group is O_h .


 Subroutine INISYM returns: Found 48 space group operations
 (whereof 24 operations are pure point group operations),
 and found     4 'primitive' translations

 
 
 KPOINTS: kpt_density=1000                        

Automatic generation of k-mesh.
Space group operators:
 irot       det(A)        alpha          n_x          n_y          n_z        tau_x        tau_y        tau_z
    1     1.000000     0.000001     1.000000     0.000000     0.000000     0.000000     0.000000     0.000000
    2     1.000000   120.000000    -0.577350    -0.577350    -0.577350     0.000000     0.000000     0.000000
    3     1.000000   120.000000     0.577350     0.577350     0.577350     0.000000     0.000000     0.000000
    4    -1.000000    90.000000     0.000000     0.000000    -1.000000     0.000000     0.000000     0.000000
    5    -1.000000   180.000000     0.000000     0.707107     0.707107     0.000000     0.000000     0.000000
    6    -1.000000    90.000000     0.000000     1.000000     0.000000     0.000000     0.000000     0.000000
    7     1.000000   180.000000     0.000000     0.000000     1.000000     0.000000     0.000000     0.000000
    8     1.000000   120.000000    -0.577350     0.577350     0.577350     0.000000     0.000000     0.000000
    9     1.000000   120.000000    -0.577350     0.577350    -0.577350     0.000000     0.000000     0.000000
   10    -1.000000    90.000000     0.000000     0.000000     1.000000     0.000000     0.000000     0.000000
   11    -1.000000    90.000000    -1.000000     0.000000     0.000000     0.000000     0.000000     0.000000
   12    -1.000000   180.000000     0.707107     0.000000     0.707107     0.000000     0.000000     0.000000
   13     1.000000   120.000000     0.577350    -0.577350     0.577350     0.000000     0.000000     0.000000
   14     1.000000   120.000000    -0.577350    -0.577350     0.577350     0.000000     0.000000     0.000000
   15     1.000000   180.000000     1.000000     0.000000     0.000000     0.000000     0.000000     0.000000
   16    -1.000000    90.000000     0.000000    -1.000000     0.000000     0.000000     0.000000     0.000000
   17    -1.000000   180.000000     0.707107     0.707107     0.000000     0.000000     0.000000     0.000000
   18    -1.000000    90.000000     1.000000     0.000000     0.000000     0.000000     0.000000     0.000000
   19     1.000000   120.000000     0.577350    -0.577350    -0.577350     0.000000     0.000000     0.000000
   20     1.000000   180.000000     0.000000     1.000000     0.000000     0.000000     0.000000     0.000000
   21     1.000000   120.000000     0.577350     0.577350    -0.577350     0.000000     0.000000     0.000000
   22    -1.000000   180.000000     0.000000    -0.707107     0.707107     0.000000     0.000000     0.000000
   23    -1.000000   180.000000     0.707107    -0.707107     0.000000     0.000000     0.000000     0.000000
   24    -1.000000   180.000000     0.707107     0.000000    -0.707107     0.000000     0.000000     0.000000
   25    -1.000000     0.000001     1.000000     0.000000     0.000000     0.750000     0.750000    -0.750000
   26    -1.000000   120.000000    -0.577350    -0.577350    -0.577350     0.750000     0.750000    -0.750000
   27    -1.000000   120.000000     0.577350     0.577350     0.577350     0.750000     0.750000    -0.750000
   28     1.000000    90.000000     0.000000     0.000000    -1.000000     0.750000     0.750000    -0.750000
   29     1.000000   180.000000     0.000000     0.707107     0.707107     0.750000     0.750000    -0.750000
   30     1.000000    90.000000     0.000000     1.000000     0.000000     0.750000     0.750000    -0.750000
   31    -1.000000   180.000000     0.000000     0.000000     1.000000     0.750000     0.750000    -0.750000
   32    -1.000000   120.000000    -0.577350     0.577350     0.577350     0.750000     0.750000    -0.750000
   33    -1.000000   120.000000    -0.577350     0.577350    -0.577350     0.750000     0.750000    -0.750000
   34     1.000000    90.000000     0.000000     0.000000     1.000000     0.750000     0.750000    -0.750000
   35     1.000000    90.000000    -1.000000     0.000000     0.000000     0.750000     0.750000    -0.750000
   36     1.000000   180.000000     0.707107     0.000000     0.707107     0.750000     0.750000    -0.750000
   37    -1.000000   120.000000     0.577350    -0.577350     0.577350     0.750000     0.750000    -0.750000
   38    -1.000000   120.000000    -0.577350    -0.577350     0.577350     0.750000     0.750000    -0.750000
   39    -1.000000   180.000000     1.000000     0.000000     0.000000     0.750000     0.750000    -0.750000
   40     1.000000    90.000000     0.000000    -1.000000     0.000000     0.750000     0.750000    -0.750000
   41     1.000000   180.000000     0.707107     0.707107     0.000000     0.750000     0.750000    -0.750000
   42     1.000000    90.000000     1.000000     0.000000     0.000000     0.750000     0.750000    -0.750000
   43    -1.000000   120.000000     0.577350    -0.577350    -0.577350     0.750000     0.750000    -0.750000
   44    -1.000000   180.000000     0.000000     1.000000     0.000000     0.750000     0.750000    -0.750000
   45    -1.000000   120.000000     0.577350     0.577350    -0.577350     0.750000     0.750000    -0.750000
   46     1.000000   180.000000     0.000000    -0.707107     0.707107     0.750000     0.750000    -0.750000
   47     1.000000   180.000000     0.707107    -0.707107     0.000000     0.750000     0.750000    -0.750000
   48     1.000000   180.000000     0.707107     0.000000    -0.707107     0.750000     0.750000    -0.750000
 
 Subroutine IBZKPT returns following result:
 ===========================================
 
 Found     84 irreducible k-points:
 
 Following reciprocal coordinates:
            Coordinates               Weight
  0.000000  0.000000  0.000000      1.000000
  0.083333  0.000000  0.000000      6.000000
  0.166667  0.000000  0.000000      6.000000
  0.250000  0.000000  0.000000      6.000000
  0.333333  0.000000  0.000000      6.000000
  0.416667  0.000000  0.000000      6.000000
  0.500000  0.000000  0.000000      3.000000
  0.083333  0.083333  0.000000     12.000000
  0.166667  0.083333  0.000000     24.000000
  0.250000  0.083333  0.000000     24.000000
  0.333333  0.083333  0.000000     24.000000
  0.416667  0.083333  0.000000     24.000000
  0.500000  0.083333  0.000000     12.000000
  0.166667  0.166667  0.000000     12.000000
  0.250000  0.166667  0.000000     24.000000
  0.333333  0.166667  0.000000     24.000000
  0.416667  0.166667  0.000000     24.000000
  0.500000  0.166667  0.000000     12.000000
  0.250000  0.250000  0.000000     12.000000
  0.333333  0.250000  0.000000     24.000000
  0.416667  0.250000  0.000000     24.000000
  0.500000  0.250000  0.000000     12.000000
  0.333333  0.333333  0.000000     12.000000
  0.416667  0.333333  0.000000     24.000000
  0.500000  0.333333  0.000000     12.000000
  0.416667  0.416667  0.000000     12.000000
  0.500000  0.416667  0.000000     12.000000
  0.500000  0.500000  0.000000      3.000000
  0.083333  0.083333  0.083333      8.000000
  0.166667  0.083333  0.083333     24.000000
  0.250000  0.083333  0.083333     24.000000
  0.333333  0.083333  0.083333     24.000000
  0.416667  0.083333  0.083333     24.000000
  0.500000  0.083333  0.083333     12.000000
  0.166667  0.166667  0.083333     24.000000
  0.250000  0.166667  0.083333     48.000000
  0.333333  0.166667  0.083333     48.000000
  0.416667  0.166667  0.083333     48.000000
  0.500000  0.166667  0.083333     24.000000
  0.250000  0.250000  0.083333     24.000000
  0.333333  0.250000  0.083333     48.000000
  0.416667  0.250000  0.083333     48.000000
  0.500000  0.250000  0.083333     24.000000
  0.333333  0.333333  0.083333     24.000000
  0.416667  0.333333  0.083333     48.000000
  0.500000  0.333333  0.083333     24.000000
  0.416667  0.416667  0.083333     24.000000
  0.500000  0.416667  0.083333     24.000000
  0.500000  0.500000  0.083333      6.000000
  0.166667  0.166667  0.166667      8.000000
  0.250000  0.166667  0.166667     24.000000
  0.333333  0.166667  0.166667     24.000000
  0.416667  0.166667  0.166667     24.000000
  0.500000  0.166667  0.166667     12.000000
  0.250000  0.250000  0.166667     24.000000
  0.333333  0.250000  0.166667     48.000000
  0.416667  0.250000  0.166667     48.000000
  0.500000  0.250000  0.166667     24.000000
  0.333333  0.333333  0.166667     24.000000
  0.416667  0.333333  0.166667     48.000000
  0.500000  0.333333  0.166667     24.000000
  0.416667  0.416667  0.166667     24.000000
  0.500000  0.416667  0.166667     24.000000
  0.500000  0.500000  0.166667      6.000000
  0.250000  0.250000  0.250000      8.000000
  0.333333  0.250000  0.250000     24.000000
  0.416667  0.250000  0.250000     24.000000
  0.500000  0.250000  0.250000     12.000000
  0.333333  0.333333  0.250000     24.000000
  0.416667  0.333333  0.250000     48.000000
  0.500000  0.333333  0.250000     24.000000
  0.416667  0.416667  0.250000     24.000000
  0.500000  0.416667  0.250000     24.000000
  0.500000  0.500000  0.250000      6.000000
  0.333333  0.333333  0.333333      8.000000
  0.416667  0.333333  0.333333     24.000000
  0.500000  0.333333  0.333333     12.000000
  0.416667  0.416667  0.333333     24.000000
  0.500000  0.416667  0.333333     24.000000
  0.500000  0.500000  0.333333      6.000000
  0.416667  0.416667  0.416667      8.000000
  0.500000  0.416667  0.416667     12.000000
  0.500000  0.500000  0.416667      6.000000
  0.500000  0.500000  0.500000      1.000000
 
 Following cartesian coordinates:
            Coordinates               Weight
  0.000000  0.000000  0.000000      1.000000
  0.023799  0.000000  0.000000      6.000000
  0.047599  0.000000  0.000000      6.000000
  0.071398  0.000000  0.000000      6.000000
  0.095197  0.000000  0.000000      6.000000
  0.118996  0.000000  0.000000      6.000000
  0.142796  0.000000  0.000000      3.000000
  0.023799  0.023799  0.000000     12.000000
  0.047599  0.023799  0.000000     24.000000
  0.071398  0.023799  0.000000     24.000000
  0.095197  0.023799  0.000000     24.000000
  0.118996  0.023799  0.000000     24.000000
  0.142796  0.023799  0.000000     12.000000
  0.047599  0.047599  0.000000     12.000000
  0.071398  0.047599  0.000000     24.000000
  0.095197  0.047599  0.000000     24.000000
  0.118996  0.047599  0.000000     24.000000
  0.142796  0.047599  0.000000     12.000000
  0.071398  0.071398  0.000000     12.000000
  0.095197  0.071398  0.000000     24.000000
  0.118996  0.071398  0.000000     24.000000
  0.142796  0.071398  0.000000     12.000000
  0.095197  0.095197  0.000000     12.000000
  0.118996  0.095197  0.000000     24.000000
  0.142796  0.095197  0.000000     12.000000
  0.118996  0.118996  0.000000     12.000000
  0.142796  0.118996  0.000000     12.000000
  0.142796  0.142796  0.000000      3.000000
  0.023799  0.023799  0.023799      8.000000
  0.047599  0.023799  0.023799     24.000000
  0.071398  0.023799  0.023799     24.000000
  0.095197  0.023799  0.023799     24.000000
  0.118996  0.023799  0.023799     24.000000
  0.142796  0.023799  0.023799     12.000000
  0.047599  0.047599  0.023799     24.000000
  0.071398  0.047599  0.023799     48.000000
  0.095197  0.047599  0.023799     48.000000
  0.118996  0.047599  0.023799     48.000000
  0.142796  0.047599  0.023799     24.000000
  0.071398  0.071398  0.023799     24.000000
  0.095197  0.071398  0.023799     48.000000
  0.118996  0.071398  0.023799     48.000000
  0.142796  0.071398  0.023799     24.000000
  0.095197  0.095197  0.023799     24.000000
  0.118996  0.095197  0.023799     48.000000
  0.142796  0.095197  0.023799     24.000000
  0.118996  0.118996  0.023799     24.000000
  0.142796  0.118996  0.023799     24.000000
  0.142796  0.142796  0.023799      6.000000
  0.047599  0.047599  0.047599      8.000000
  0.071398  0.047599  0.047599     24.000000
  0.095197  0.047599  0.047599     24.000000
  0.118996  0.047599  0.047599     24.000000
  0.142796  0.047599  0.047599     12.000000
  0.071398  0.071398  0.047599     24.000000
  0.095197  0.071398  0.047599     48.000000
  0.118996  0.071398  0.047599     48.000000
  0.142796  0.071398  0.047599     24.000000
  0.095197  0.095197  0.047599     24.000000
  0.118996  0.095197  0.047599     48.000000
  0.142796  0.095197  0.047599     24.000000
  0.118996  0.118996  0.047599     24.000000
  0.142796  0.118996  0.047599     24.000000
  0.142796  0.142796  0.047599      6.000000
  0.071398  0.071398  0.071398      8.000000
  0.095197  0.071398  0.071398     24.000000
  0.118996  0.071398  0.071398     24.000000
  0.142796  0.071398  0.071398     12.000000
  0.095197  0.095197  0.071398     24.000000
  0.118996  0.095197  0.071398     48.000000
  0.142796  0.095197  0.071398     24.000000
  0.118996  0.118996  0.071398     24.000000
  0.142796  0.118996  0.071398     24.000000
  0.142796  0.142796  0.071398      6.000000
  0.095197  0.095197  0.095197      8.000000
  0.118996  0.095197  0.095197     24.000000
  0.142796  0.095197  0.095197     12.000000
  0.118996  0.118996  0.095197     24.000000
  0.142796  0.118996  0.095197     24.000000
  0.142796  0.142796  0.095197      6.000000
  0.118996  0.118996  0.118996      8.000000
  0.142796  0.118996  0.118996     12.000000
  0.142796  0.142796  0.118996      6.000000
  0.142796  0.142796  0.142796      1.000000
 
 TETIRR: Found    854 inequivalent tetrahedra from    10368


--------------------------------------------------------------------------------------------------------




 Dimension of arrays:
   k-points           NKPTS =     84   k-points in BZ     NKDIM =     84   number of bands    NBANDS=     24
   number of dos      NEDOS =    301   number of ions     NIONS =      8
   non local maximal  LDIM  =      4   non local SUM 2l+1 LMDIM =      8
   total plane-waves  NPLWV =  13824
   max r-space proj   IRMAX =      1   max aug-charges    IRDMAX=   3999
   dimension x,y,z NGX =    24 NGY =   24 NGZ =   24
   dimension x,y,z NGXF=    48 NGYF=   48 NGZF=   48
   support grid    NGXF=    48 NGYF=   48 NGZF=   48
   ions per type =               8
   NGX,Y,Z   is equivalent  to a cutoff of  11.39, 11.39, 11.39 a.u.
   NGXF,Y,Z  is equivalent  to a cutoff of  22.79, 22.79, 22.79 a.u.

 SYSTEM =  unknown system                          
 POSCAR =  C8                                      

 Startparameter for this run:
   NWRITE =      2    write-flag & timer
   PREC   = accura    normal or accurate (medium, high low for compatibility)
   ISTART =      0    job   : 0-new  1-cont  2-samecut
   ICHARG =      2    charge: 1-file 2-atom 10-const
   ISPIN  =      1    spin polarized calculation?
   LNONCOLLINEAR =      F non collinear calculations
   LSORBIT =      F    spin-orbit coupling
   INIWAV =      1    electr: 0-lowe 1-rand  2-diag
   LASPH  =      F    aspherical Exc in radial PAW
   METAGGA=      F    non-selfconsistent MetaGGA calc.

 Electronic Relaxation 1
   ENCUT  =  400.0 eV  29.40 Ry    5.42 a.u.   5.71  5.71  5.71*2*pi/ulx,y,z
   ENINI  =  400.0     initial cutoff
   ENAUG  =  644.9 eV  augmentation charge cutoff
   NELM   =     60;   NELMIN=  2; NELMDL= -5     # of ELM steps 
   EDIFF  = 0.1E-05   stopping-criterion for ELM
   LREAL  =      F    real-space projection
   NLSPLINE    = F    spline interpolate recip. space projectors
   LCOMPAT=      F    compatible to vasp.4.4
   GGA_COMPAT  = T    GGA compatible to vasp.4.4-vasp.4.6
   LMAXPAW     = -100 max onsite density
   LMAXMIX     =    2 max onsite mixed and CHGCAR
   VOSKOWN=      0    Vosko Wilk Nusair interpolation
   ROPT   =    0.00000
 Ionic relaxation
   EDIFFG = 0.1E-04   stopping-criterion for IOM
   NSW    =      0    number of steps for IOM
   NBLOCK =      1;   KBLOCK =      1    inner block; outer block 
   IBRION =     -1    ionic relax: 0-MD 1-quasi-New 2-CG
   NFREE  =      0    steps in history (QN), initial steepest desc. (CG)
   ISIF   =      2    stress and relaxation
   IWAVPR =     10    prediction:  0-non 1-charg 2-wave 3-comb
   ISYM   =      2    0-nonsym 1-usesym 2-fastsym
   LCORR  =      T    Harris-Foulkes like correction to forces

   POTIM  = 0.0200    time-step for ionic-motion
   TEIN   =    0.0    initial temperature
   TEBEG  =    0.0;   TEEND  =   0.0 temperature during run
   SMASS  =  -3.00    Nose mass-parameter (am)
   estimated Nose-frequenzy (Omega)   =  0.10E-29 period in steps =****** mass=  -0.280E-27a.u.
   SCALEE = 1.0000    scale energy and forces
   NPACO  =    256;   APACO  = 16.0  distance and # of slots for P.C.
   PSTRESS=    0.0 pullay stress

  Mass of Ions in am
   POMASS =  12.01
  Ionic Valenz
   ZVAL   =   4.00
  Atomic Wigner-Seitz radii
   RWIGS  =  -1.00
  virtual crystal weights 
   VCA    =   1.00
   NELECT =      32.0000    total number of electrons
   NUPDOWN=      -1.0000    fix difference up-down

 DOS related values:
   EMIN   =  10.00;   EMAX   =-10.00  energy-range for DOS
   EFERMI =   0.00
   ISMEAR =    -5;   SIGMA  =   0.06  broadening in eV -4-tet -1-fermi 0-gaus

 Electronic relaxation 2 (details)
   IALGO  =     38    algorithm
   LDIAG  =      T    sub-space diagonalisation (order eigenvalues)
   LSUBROT=      F    optimize rotation matrix (better conditioning)
   TURBO    =      0    0=normal 1=particle mesh
   IRESTART =      0    0=no restart 2=restart with 2 vectors
   NREBOOT  =      0    no. of reboots
   NMIN     =      0    reboot dimension
   EREF     =   0.00    reference energy to select bands
   IMIX   =      4    mixing-type and parameters
     AMIX     =   0.40;   BMIX     =  1.00
     AMIX_MAG =   1.60;   BMIX_MAG =  1.00
     AMIN     =   0.10
     WC   =   100.;   INIMIX=   1;  MIXPRE=   1;  MAXMIX= -45

 Intra band minimization:
   WEIMIN = 0.0000     energy-eigenvalue tresh-hold
   EBREAK =  0.10E-07  absolut break condition
   DEPER  =   0.30     relativ break condition  

   TIME   =   0.40     timestep for ELM

  volume/ion in A,a.u.               =       5.37        36.21
  Fermi-wavevector in a.u.,A,eV,Ry     =   1.484351  2.805017 29.977689  2.203298
  Thomas-Fermi vector in A             =   2.597899
 
 Write flags
   LWAVE        =      F    write WAVECAR
   LDOWNSAMPLE  =      F    k-point downsampling of WAVECAR
   LCHARG       =      F    write CHGCAR
   LVTOT        =      F    write LOCPOT, total local potential
   LVHAR        =      F    write LOCPOT, Hartree potential only
   LELF         =      F    write electronic localiz. function (ELF)
   LORBIT       =      0    0 simple, 1 ext, 2 COOP (PROOUT), +10 PAW based schemes


 Dipole corrections
   LMONO  =      F    monopole corrections only (constant potential shift)
   LDIPOL =      F    correct potential (dipole corrections)
   IDIPOL =      0    1-x, 2-y, 3-z, 4-all directions 
   EPSILON=  1.0000000 bulk dielectric constant

 Exchange correlation treatment:
   GGA     =    --    GGA type
   LEXCH   =     8    internal setting for exchange type
   VOSKOWN=      0    Vosko Wilk Nusair interpolation
   LHFCALC =     F    Hartree Fock is set to
   LHFONE  =     F    Hartree Fock one center treatment
   AEXX    =    0.0000 exact exchange contribution

 Linear response parameters
   LEPSILON=     F    determine dielectric tensor
   LRPA    =     F    only Hartree local field effects (RPA)
   LNABLA  =     F    use nabla operator in PAW spheres
   LVEL    =     F    velocity operator in full k-point grid
   LINTERFAST=   F  fast interpolation
   KINTER  =     0    interpolate to denser k-point grid
   CSHIFT  =0.1000    complex shift for real part using Kramers Kronig
   OMEGAMAX=  -1.0    maximum frequency
   DEG_THRESHOLD= 0.2000000E-02 threshold for treating states as degnerate
   RTIME   =   -0.100 relaxation time in fs
  (WPLASMAI=    0.000 imaginary part of plasma frequency in eV, 0.658/RTIME)
   DFIELD  = 0.0000000 0.0000000 0.0000000 field for delta impulse in time
 
 Orbital magnetization related:
   ORBITALMAG=     F  switch on orbital magnetization
   LCHIMAG   =     F  perturbation theory with respect to B field
   DQ        =  0.001000  dq finite difference perturbation B field
   LLRAUG    =     F  two centre corrections for induced B field



--------------------------------------------------------------------------------------------------------


 Static calculation
 charge density and potential will be updated during run
 non-spin polarized calculation
 Variant of blocked Davidson
 Davidson routine will perform the subspace rotation
 perform sub-space diagonalisation
    after iterative eigenvector-optimisation
 modified Broyden-mixing scheme, WC =      100.0
 initial mixing is a Kerker type mixing with AMIX =  0.4000 and BMIX =      1.0000
 Hartree-type preconditioning will be used
 using additional bands            8
 reciprocal scheme for non local part
 calculate Harris-corrections to forces 
   (improved forces if not selfconsistent)
 use gradient corrections 
 use of overlap-Matrix (Vanderbilt PP)
 Fermi weights with tetrahedron method with Bloechl corrections


--------------------------------------------------------------------------------------------------------


  energy-cutoff  :      400.00
  volume of cell :       42.93
      direct lattice vectors                 reciprocal lattice vectors
     3.501506000  0.000000000  0.000000000     0.285591400  0.000000000  0.000000000
     0.000000000  3.501506000  0.000000000     0.000000000  0.285591400  0.000000000
     0.000000000  0.000000000  3.501506000     0.000000000  0.000000000  0.285591400

  length of vectors
     3.501506000  3.501506000  3.501506000     0.285591400  0.285591400  0.285591400


 
 k-points in units of 2pi/SCALE and weight: kpt_density=1000                        
   0.00000000  0.00000000  0.00000000       0.001
   0.02379928  0.00000000  0.00000000       0.003
   0.04759857  0.00000000  0.00000000       0.003
   0.07139785  0.00000000  0.00000000       0.003
   0.09519713  0.00000000  0.00000000       0.003
   0.11899642  0.00000000  0.00000000       0.003
   0.14279570  0.00000000  0.00000000       0.002
   0.02379928  0.02379928  0.00000000       0.007
   0.04759857  0.02379928  0.00000000       0.014
   0.07139785  0.02379928  0.00000000       0.014
   0.09519713  0.02379928  0.00000000       0.014
   0.11899642  0.02379928  0.00000000       0.014
   0.14279570  0.02379928  0.00000000       0.007
   0.04759857  0.04759857  0.00000000       0.007
   0.07139785  0.04759857  0.00000000       0.014
   0.09519713  0.04759857  0.00000000       0.014
   0.11899642  0.04759857  0.00000000       0.014
   0.14279570  0.04759857  0.00000000       0.007
   0.07139785  0.07139785  0.00000000       0.007
   0.09519713  0.07139785  0.00000000       0.014
   0.11899642  0.07139785  0.00000000       0.014
   0.14279570  0.07139785  0.00000000       0.007
   0.09519713  0.09519713  0.00000000       0.007
   0.11899642  0.09519713  0.00000000       0.014
   0.14279570  0.09519713  0.00000000       0.007
   0.11899642  0.11899642  0.00000000       0.007
   0.14279570  0.11899642  0.00000000       0.007
   0.14279570  0.14279570  0.00000000       0.002
   0.02379928  0.02379928  0.02379928       0.005
   0.04759857  0.02379928  0.02379928       0.014
   0.07139785  0.02379928  0.02379928       0.014
   0.09519713  0.02379928  0.02379928       0.014
   0.11899642  0.02379928  0.02379928       0.014
   0.14279570  0.02379928  0.02379928       0.007
   0.04759857  0.04759857  0.02379928       0.014
   0.07139785  0.04759857  0.02379928       0.028
   0.09519713  0.04759857  0.02379928       0.028
   0.11899642  0.04759857  0.02379928       0.028
   0.14279570  0.04759857  0.02379928       0.014
   0.07139785  0.07139785  0.02379928       0.014
   0.09519713  0.07139785  0.02379928       0.028
   0.11899642  0.07139785  0.02379928       0.028
   0.14279570  0.07139785  0.02379928       0.014
   0.09519713  0.09519713  0.02379928       0.014
   0.11899642  0.09519713  0.02379928       0.028
   0.14279570  0.09519713  0.02379928       0.014
   0.11899642  0.11899642  0.02379928       0.014
   0.14279570  0.11899642  0.02379928       0.014
   0.14279570  0.14279570  0.02379928       0.003
   0.04759857  0.04759857  0.04759857       0.005
   0.07139785  0.04759857  0.04759857       0.014
   0.09519713  0.04759857  0.04759857       0.014
   0.11899642  0.04759857  0.04759857       0.014
   0.14279570  0.04759857  0.04759857       0.007
   0.07139785  0.07139785  0.04759857       0.014
   0.09519713  0.07139785  0.04759857       0.028
   0.11899642  0.07139785  0.04759857       0.028
   0.14279570  0.07139785  0.04759857       0.014
   0.09519713  0.09519713  0.04759857       0.014
   0.11899642  0.09519713  0.04759857       0.028
   0.14279570  0.09519713  0.04759857       0.014
   0.11899642  0.11899642  0.04759857       0.014
   0.14279570  0.11899642  0.04759857       0.014
   0.14279570  0.14279570  0.04759857       0.003
   0.07139785  0.07139785  0.07139785       0.005
   0.09519713  0.07139785  0.07139785       0.014
   0.11899642  0.07139785  0.07139785       0.014
   0.14279570  0.07139785  0.07139785       0.007
   0.09519713  0.09519713  0.07139785       0.014
   0.11899642  0.09519713  0.07139785       0.028
   0.14279570  0.09519713  0.07139785       0.014
   0.11899642  0.11899642  0.07139785       0.014
   0.14279570  0.11899642  0.07139785       0.014
   0.14279570  0.14279570  0.07139785       0.003
   0.09519713  0.09519713  0.09519713       0.005
   0.11899642  0.09519713  0.09519713       0.014
   0.14279570  0.09519713  0.09519713       0.007
   0.11899642  0.11899642  0.09519713       0.014
   0.14279570  0.11899642  0.09519713       0.014
   0.14279570  0.14279570  0.09519713       0.003
   0.11899642  0.11899642  0.11899642       0.005
   0.14279570  0.11899642  0.11899642       0.007
   0.14279570  0.14279570  0.11899642       0.003
   0.14279570  0.14279570  0.14279570       0.001
 
 k-points in reciprocal lattice and weights: kpt_density=1000                        
   0.00000000  0.00000000  0.00000000       0.001
   0.08333333  0.00000000  0.00000000       0.003
   0.16666667  0.00000000  0.00000000       0.003
   0.25000000  0.00000000  0.00000000       0.003
   0.33333333  0.00000000  0.00000000       0.003
   0.41666667  0.00000000  0.00000000       0.003
   0.50000000  0.00000000  0.00000000       0.002
   0.08333333  0.08333333  0.00000000       0.007
   0.16666667  0.08333333  0.00000000       0.014
   0.25000000  0.08333333  0.00000000       0.014
   0.33333333  0.08333333  0.00000000       0.014
   0.41666667  0.08333333  0.00000000       0.014
   0.50000000  0.08333333  0.00000000       0.007
   0.16666667  0.16666667  0.00000000       0.007
   0.25000000  0.16666667  0.00000000       0.014
   0.33333333  0.16666667  0.00000000       0.014
   0.41666667  0.16666667  0.00000000       0.014
   0.50000000  0.16666667  0.00000000       0.007
   0.25000000  0.25000000  0.00000000       0.007
   0.33333333  0.25000000  0.00000000       0.014
   0.41666667  0.25000000  0.00000000       0.014
   0.50000000  0.25000000  0.00000000       0.007
   0.33333333  0.33333333  0.00000000       0.007
   0.41666667  0.33333333  0.00000000       0.014
   0.50000000  0.33333333  0.00000000       0.007
   0.41666667  0.41666667  0.00000000       0.007
   0.50000000  0.41666667  0.00000000       0.007
   0.50000000  0.50000000  0.00000000       0.002
   0.08333333  0.08333333  0.08333333       0.005
   0.16666667  0.08333333  0.08333333       0.014
   0.25000000  0.08333333  0.08333333       0.014
   0.33333333  0.08333333  0.08333333       0.014
   0.41666667  0.08333333  0.08333333       0.014
   0.50000000  0.08333333  0.08333333       0.007
   0.16666667  0.16666667  0.08333333       0.014
   0.25000000  0.16666667  0.08333333       0.028
   0.33333333  0.16666667  0.08333333       0.028
   0.41666667  0.16666667  0.08333333       0.028
   0.50000000  0.16666667  0.08333333       0.014
   0.25000000  0.25000000  0.08333333       0.014
   0.33333333  0.25000000  0.08333333       0.028
   0.41666667  0.25000000  0.08333333       0.028
   0.50000000  0.25000000  0.08333333       0.014
   0.33333333  0.33333333  0.08333333       0.014
   0.41666667  0.33333333  0.08333333       0.028
   0.50000000  0.33333333  0.08333333       0.014
   0.41666667  0.41666667  0.08333333       0.014
   0.50000000  0.41666667  0.08333333       0.014
   0.50000000  0.50000000  0.08333333       0.003
   0.16666667  0.16666667  0.16666667       0.005
   0.25000000  0.16666667  0.16666667       0.014
   0.33333333  0.16666667  0.16666667       0.014
   0.41666667  0.16666667  0.16666667       0.014
   0.50000000  0.16666667  0.16666667       0.007
   0.25000000  0.25000000  0.16666667       0.014
   0.33333333  0.25000000  0.16666667       0.028
   0.41666667  0.25000000  0.16666667       0.028
   0.50000000  0.25000000  0.16666667       0.014
   0.33333333  0.33333333  0.16666667       0.014
   0.41666667  0.33333333  0.16666667       0.028
   0.50000000  0.33333333  0.16666667       0.014
   0.41666667  0.41666667  0.16666667       0.014
   0.50000000  0.41666667  0.16666667       0.014
   0.50000000  0.50000000  0.16666667       0.003
   0.25000000  0.25000000  0.25000000       0.005
   0.33333333  0.25000000  0.25000000       0.014
   0.41666667  0.25000000  0.25000000       0.014
   0.50000000  0.25000000  0.25000000       0.007
   0.33333333  0.33333333  0.25000000       0.014
   0.41666667  0.33333333  0.25000000       0.028
   0.50000000  0.33333333  0.25000000       0.014
   0.41666667  0.41666667  0.25000000       0.014
   0.50000000  0.41666667  0.25000000       0.014
   0.50000000  0.50000000  0.25000000       0.003
   0.33333333  0.33333333  0.33333333       0.005
   0.41666667  0.33333333  0.33333333       0.014
   0.50000000  0.33333333  0.33333333       0.007
   0.41666667  0.41666667  0.33333333       0.014
   0.50000000  0.41666667  0.33333333       0.014
   0.50000000  0.50000000  0.33333333       0.003
   0.41666667  0.41666667  0.41666667       0.005
   0.50000000  0.41666667  0.41666667       0.007
   0.50000000  0.50000000  0.41666667       0.003
   0.50000000  0.50000000  0.50000000       0.001
 
 position of ions in fractional coordinates (direct lattice) 
   0.25000000  0.75000000  0.25000000
   0.00000000  0.00000000  0.50000000
   0.25000000  0.25000000  0.75000000
   0.00000000  0.50000000  0.00000000
   0.75000000  0.75000000  0.75000000
   0.50000000  0.00000000  0.00000000
   0.75000000  0.25000000  0.25000000
   0.50000000  0.50000000  0.50000000
 
 position of ions in cartesian coordinates  (Angst):
   0.87537650  2.62612950  0.87537650
   0.00000000  0.00000000  1.75075300
   0.87537650  0.87537650  2.62612950
   0.00000000  1.75075300  0.00000000
   2.62612950  2.62612950  2.62612950
   1.75075300  0.00000000  0.00000000
   2.62612950  0.87537650  0.87537650
   1.75075300  1.75075300  1.75075300
 


--------------------------------------------------------------------------------------------------------


 k-point  1 :   0.0000 0.0000 0.0000  plane waves:     751
 k-point  2 :   0.0833 0.0000 0.0000  plane waves:     759
 k-point  3 :   0.1667 0.0000 0.0000  plane waves:     771
 k-point  4 :   0.2500 0.0000 0.0000  plane waves:     799
 k-point  5 :   0.3333 0.0000 0.0000  plane waves:     792
 k-point  6 :   0.4167 0.0000 0.0000  plane waves:     792
 k-point  7 :   0.5000 0.0000 0.0000  plane waves:     804
 k-point  8 :   0.0833 0.0833 0.0000  plane waves:     766
 k-point  9 :   0.1667 0.0833 0.0000  plane waves:     773
 k-point 10 :   0.2500 0.0833 0.0000  plane waves:     780
 k-point 11 :   0.3333 0.0833 0.0000  plane waves:     782
 k-point 12 :   0.4167 0.0833 0.0000  plane waves:     790
 k-point 13 :   0.5000 0.0833 0.0000  plane waves:     792
 k-point 14 :   0.1667 0.1667 0.0000  plane waves:     782
 k-point 15 :   0.2500 0.1667 0.0000  plane waves:     782
 k-point 16 :   0.3333 0.1667 0.0000  plane waves:     782
 k-point 17 :   0.4167 0.1667 0.0000  plane waves:     781
 k-point 18 :   0.5000 0.1667 0.0000  plane waves:     774
 k-point 19 :   0.2500 0.2500 0.0000  plane waves:     774
 k-point 20 :   0.3333 0.2500 0.0000  plane waves:     779
 k-point 21 :   0.4167 0.2500 0.0000  plane waves:     786
 k-point 22 :   0.5000 0.2500 0.0000  plane waves:     782
 k-point 23 :   0.3333 0.3333 0.0000  plane waves:     786
 k-point 24 :   0.4167 0.3333 0.0000  plane waves:     778
 k-point 25 :   0.5000 0.3333 0.0000  plane waves:     784
 k-point 26 :   0.4167 0.4167 0.0000  plane waves:     786
 k-point 27 :   0.5000 0.4167 0.0000  plane waves:     780
 k-point 28 :   0.5000 0.5000 0.0000  plane waves:     784
 k-point 29 :   0.0833 0.0833 0.0833  plane waves:     766
 k-point 30 :   0.1667 0.0833 0.0833  plane waves:     773
 k-point 31 :   0.2500 0.0833 0.0833  plane waves:     783
 k-point 32 :   0.3333 0.0833 0.0833  plane waves:     787
 k-point 33 :   0.4167 0.0833 0.0833  plane waves:     786
 k-point 34 :   0.5000 0.0833 0.0833  plane waves:     794
 k-point 35 :   0.1667 0.1667 0.0833  plane waves:     783
 k-point 36 :   0.2500 0.1667 0.0833  plane waves:     787
 k-point 37 :   0.3333 0.1667 0.0833  plane waves:     778
 k-point 38 :   0.4167 0.1667 0.0833  plane waves:     783
 k-point 39 :   0.5000 0.1667 0.0833  plane waves:     782
 k-point 40 :   0.2500 0.2500 0.0833  plane waves:     780
 k-point 41 :   0.3333 0.2500 0.0833  plane waves:     775
 k-point 42 :   0.4167 0.2500 0.0833  plane waves:     783
 k-point 43 :   0.5000 0.2500 0.0833  plane waves:     782
 k-point 44 :   0.3333 0.3333 0.0833  plane waves:     778
 k-point 45 :   0.4167 0.3333 0.0833  plane waves:     782
 k-point 46 :   0.5000 0.3333 0.0833  plane waves:     788
 k-point 47 :   0.4167 0.4167 0.0833  plane waves:     781
 k-point 48 :   0.5000 0.4167 0.0833  plane waves:     782
 k-point 49 :   0.5000 0.5000 0.0833  plane waves:     784
 k-point 50 :   0.1667 0.1667 0.1667  plane waves:     772
 k-point 51 :   0.2500 0.1667 0.1667  plane waves:     778
 k-point 52 :   0.3333 0.1667 0.1667  plane waves:     781
 k-point 53 :   0.4167 0.1667 0.1667  plane waves:     788
 k-point 54 :   0.5000 0.1667 0.1667  plane waves:     782
 k-point 55 :   0.2500 0.2500 0.1667  plane waves:     774
 k-point 56 :   0.3333 0.2500 0.1667  plane waves:     775
 k-point 57 :   0.4167 0.2500 0.1667  plane waves:     783
 k-point 58 :   0.5000 0.2500 0.1667  plane waves:     780
 k-point 59 :   0.3333 0.3333 0.1667  plane waves:     786
 k-point 60 :   0.4167 0.3333 0.1667  plane waves:     779
 k-point 61 :   0.5000 0.3333 0.1667  plane waves:     782
 k-point 62 :   0.4167 0.4167 0.1667  plane waves:     779
 k-point 63 :   0.5000 0.4167 0.1667  plane waves:     776
 k-point 64 :   0.5000 0.5000 0.1667  plane waves:     788
 k-point 65 :   0.2500 0.2500 0.2500  plane waves:     769
 k-point 66 :   0.3333 0.2500 0.2500  plane waves:     775
 k-point 67 :   0.4167 0.2500 0.2500  plane waves:     777
 k-point 68 :   0.5000 0.2500 0.2500  plane waves:     780
 k-point 69 :   0.3333 0.3333 0.2500  plane waves:     776
 k-point 70 :   0.4167 0.3333 0.2500  plane waves:     777
 k-point 71 :   0.5000 0.3333 0.2500  plane waves:     784
 k-point 72 :   0.4167 0.4167 0.2500  plane waves:     777
 k-point 73 :   0.5000 0.4167 0.2500  plane waves:     776
 k-point 74 :   0.5000 0.5000 0.2500  plane waves:     788
 k-point 75 :   0.3333 0.3333 0.3333  plane waves:     768
 k-point 76 :   0.4167 0.3333 0.3333  plane waves:     782
 k-point 77 :   0.5000 0.3333 0.3333  plane waves:     776
 k-point 78 :   0.4167 0.4167 0.3333  plane waves:     775
 k-point 79 :   0.5000 0.4167 0.3333  plane waves:     774
 k-point 80 :   0.5000 0.5000 0.3333  plane waves:     760
 k-point 81 :   0.4167 0.4167 0.4167  plane waves:     771
 k-point 82 :   0.5000 0.4167 0.4167  plane waves:     778
 k-point 83 :   0.5000 0.5000 0.4167  plane waves:     764
 k-point 84 :   0.5000 0.5000 0.5000  plane waves:     720

 maximum and minimum number of plane-waves per node :       208      176

 maximum number of plane-waves:       804
 maximum index in each direction: 
   IXMAX=    5   IYMAX=    5   IZMAX=    5
   IXMIN=   -6   IYMIN=   -6   IZMIN=   -6


 parallel 3D FFT for wavefunctions:
    minimum data exchange during FFTs selected (reduces bandwidth)
 parallel 3D FFT for charge:
    minimum data exchange during FFTs selected (reduces bandwidth)


 total amount of memory used by VASP MPI-rank0    33728. kBytes
=======================================================================

   base      :      30000. kBytes
   nonl-proj :       1122. kBytes
   fftplans  :        345. kBytes
   grid      :        481. kBytes
   one-center:          6. kBytes
   wavefun   :       1774. kBytes
 
     INWAV:  cpu time    0.0004: real time    0.0006
 Broyden mixing: mesh for mixing (old mesh)
   NGX = 11   NGY = 11   NGZ = 11
  (NGX  = 48   NGY  = 48   NGZ  = 48)
  gives a total of   1331 points

 initial charge density was supplied:
 charge density of overlapping atoms calculated
 number of electron      32.0000000 magnetization 
 keeping initial charge density in first step


--------------------------------------------------------------------------------------------------------


 Maximum index for augmentation-charges          293 (set IRDMAX)


--------------------------------------------------------------------------------------------------------


 First call to EWALD:  gamma=   0.506
 Maximum number of real-space cells 3x 3x 3
 Maximum number of reciprocal cells 3x 3x 3

    FEWALD:  cpu time    0.0052: real time    0.0052


--------------------------------------- Iteration      1(   1)  ---------------------------------------


    POTLOK:  cpu time    0.0263: real time    0.0306
    SETDIJ:  cpu time    0.0066: real time    0.0066
     EDDAV:  cpu time    4.0464: real time    4.0538
 BZINTS: Fermi energy: 19.430908; 32.000000 electrons
         Band energy: 137.804238;  BLOECHL correction: -0.157908
       DOS:  cpu time    0.1689: real time    0.1689
    --------------------------------------------
      LOOP:  cpu time    4.2483: real time    4.2600

 eigenvalue-minimisations  :  4040
 total energy-change (2. order) : 0.5943426E+02  (-0.1454603E+04)
 number of electron      32.0000000 magnetization 
 augmentation part       32.0000000 magnetization 

 Free energy of the ion-electron system (eV)
  ---------------------------------------------------
  alpha Z        PSCENC =       121.46950000
  Ewald energy   TEWEN  =     -1417.78992803
  -Hartree energ DENC   =       -65.68400497
  -exchange      EXHF   =         0.00000000
  -V(xc)+E(xc)   XCENC  =       115.82050103
  PAW double counting   =       302.65154477     -311.85538214
  entropy T*S    EENTRO =         0.00000000
  eigenvalues    EBANDS =       137.80423752
  atomic energy  EATOM  =      1177.01779097
  Solvation  Ediel_sol  =         0.00000000
  ---------------------------------------------------
  free energy    TOTEN  =        59.43425916 eV

  energy without entropy =       59.43425916  energy(sigma->0) =       59.43425916


--------------------------------------------------------------------------------------------------------




--------------------------------------- Iteration      1(   2)  ---------------------------------------


     EDDAV:  cpu time    5.0966: real time    5.0975
 BZINTS: Fermi energy:  9.928471; 32.000000 electrons
         Band energy:   6.923983;  BLOECHL correction:  0.000000
       DOS:  cpu time    0.0506: real time    0.0506
    --------------------------------------------
      LOOP:  cpu time    5.1471: real time    5.1481

 eigenvalue-minimisations  :  5568
 total energy-change (2. order) :-0.1308803E+03  (-0.1247987E+03)
 number of electron      32.0000000 magnetization 
 augmentation part       32.0000000 magnetization 

 Free energy of the ion-electron system (eV)
  ---------------------------------------------------
  alpha Z        PSCENC =       121.46950000
  Ewald energy   TEWEN  =     -1417.78992803
  -Hartree energ DENC   =       -65.68400497
  -exchange      EXHF   =         0.00000000
  -V(xc)+E(xc)   XCENC  =       115.82050103
  PAW double counting   =       302.65154477     -311.85538214
  entropy T*S    EENTRO =         0.00000000
  eigenvalues    EBANDS =         6.92398310
  atomic energy  EATOM  =      1177.01779097
  Solvation  Ediel_sol  =         0.00000000
  ---------------------------------------------------
  free energy    TOTEN  =       -71.44599527 eV

  energy without entropy =      -71.44599527  energy(sigma->0) =      -71.44599527


--------------------------------------------------------------------------------------------------------




--------------------------------------- Iteration      1(   3)  ---------------------------------------


     EDDAV:  cpu time    4.8215: real time    4.8251
 BZINTS: Fermi energy:  9.086088; 32.000000 electrons
         Band energy:   2.902933;  BLOECHL correction:  0.000000
       DOS:  cpu time    0.0363: real time    0.0363
    --------------------------------------------
      LOOP:  cpu time    4.8578: real time    4.8614

 eigenvalue-minimisations  :  5144
 total energy-change (2. order) :-0.4021050E+01  (-0.4006627E+01)
 number of electron      32.0000000 magnetization 
 augmentation part       32.0000000 magnetization 

 Free energy of the ion-electron system (eV)
  ---------------------------------------------------
  alpha Z        PSCENC =       121.46950000
  Ewald energy   TEWEN  =     -1417.78992803
  -Hartree energ DENC   =       -65.68400497
  -exchange      EXHF   =         0.00000000
  -V(xc)+E(xc)   XCENC  =       115.82050103
  PAW double counting   =       302.65154477     -311.85538214
  entropy T*S    EENTRO =         0.00000000
  eigenvalues    EBANDS =         2.90293299
  atomic energy  EATOM  =      1177.01779097
  Solvation  Ediel_sol  =         0.00000000
  ---------------------------------------------------
  free energy    TOTEN  =       -75.46704538 eV

  energy without entropy =      -75.46704538  energy(sigma->0) =      -75.46704538


--------------------------------------------------------------------------------------------------------




--------------------------------------- Iteration      1(   4)  ---------------------------------------


     EDDAV:  cpu time    4.7313: real time    4.7319
 BZINTS: Fermi energy:  9.116982; 32.000000 electrons
         Band energy:   2.865955;  BLOECHL correction:  0.000000
       DOS:  cpu time    0.0369: real time    0.0369
    --------------------------------------------
      LOOP:  cpu time    4.7682: real time    4.7688

 eigenvalue-minimisations  :  5064
 total energy-change (2. order) :-0.3697830E-01  (-0.3694456E-01)
 number of electron      32.0000000 magnetization 
 augmentation part       32.0000000 magnetization 

 Free energy of the ion-electron system (eV)
  ---------------------------------------------------
  alpha Z        PSCENC =       121.46950000
  Ewald energy   TEWEN  =     -1417.78992803
  -Hartree energ DENC   =       -65.68400497
  -exchange      EXHF   =         0.00000000
  -V(xc)+E(xc)   XCENC  =       115.82050103
  PAW double counting   =       302.65154477     -311.85538214
  entropy T*S    EENTRO =         0.00000000
  eigenvalues    EBANDS =         2.86595469
  atomic energy  EATOM  =      1177.01779097
  Solvation  Ediel_sol  =         0.00000000
  ---------------------------------------------------
  free energy    TOTEN  =       -75.50402368 eV

  energy without entropy =      -75.50402368  energy(sigma->0) =      -75.50402368


--------------------------------------------------------------------------------------------------------




--------------------------------------- Iteration      1(   5)  ---------------------------------------


     EDDAV:  cpu time    4.8984: real time    4.8998
 BZINTS: Fermi energy:  9.062817; 32.000000 electrons
         Band energy:   2.865295;  BLOECHL correction:  0.000000
       DOS:  cpu time    0.0365: real time    0.0365
    CHARGE:  cpu time    0.1233: real time    0.1233
    MIXING:  cpu time    0.0021: real time    0.0181
    --------------------------------------------
      LOOP:  cpu time    5.0604: real time    5.0777

 eigenvalue-minimisations  :  5192
 total energy-change (2. order) :-0.6598141E-03  (-0.6593474E-03)
 number of electron      31.9999984 magnetization 
 augmentation part        0.8349587 magnetization 

 Broyden mixing:
  rms(total) = 0.10162E+01    rms(broyden)= 0.10160E+01
  rms(prec ) = 0.24331E+01
  weight for this iteration     100.00

 Free energy of the ion-electron system (eV)
  ---------------------------------------------------
  alpha Z        PSCENC =       121.46950000
  Ewald energy   TEWEN  =     -1417.78992803
  -Hartree energ DENC   =       -65.68400497
  -exchange      EXHF   =         0.00000000
  -V(xc)+E(xc)   XCENC  =       115.82050103
  PAW double counting   =       302.65154477     -311.85538214
  entropy T*S    EENTRO =         0.00000000
  eigenvalues    EBANDS =         2.86529487
  atomic energy  EATOM  =      1177.01779097
  Solvation  Ediel_sol  =         0.00000000
  ---------------------------------------------------
  free energy    TOTEN  =       -75.50468349 eV

  energy without entropy =      -75.50468349  energy(sigma->0) =      -75.50468349


--------------------------------------------------------------------------------------------------------




--------------------------------------- Iteration      1(   6)  ---------------------------------------


    POTLOK:  cpu time    0.0208: real time    0.0298
    SETDIJ:  cpu time    0.0060: real time    0.0060
     EDDAV:  cpu time    4.4077: real time    4.4079
 BZINTS: Fermi energy:  9.816360; 32.000000 electrons
         Band energy:  20.136901;  BLOECHL correction:  0.000000
       DOS:  cpu time    0.0364: real time    0.0364
    CHARGE:  cpu time    0.1234: real time    0.1234
    MIXING:  cpu time    0.0016: real time    0.0016
    --------------------------------------------
      LOOP:  cpu time    4.5958: real time    4.6051

 eigenvalue-minimisations  :  4472
 total energy-change (2. order) : 0.2239630E+01  (-0.1465043E+00)
 number of electron      31.9999985 magnetization 
 augmentation part        0.8151334 magnetization 

 Broyden mixing:
  rms(total) = 0.55207E+00    rms(broyden)= 0.55205E+00
  rms(prec ) = 0.13065E+01
  weight for this iteration     100.00

 eigenvalues of (default mixing * dielectric matrix)
  average eigenvalue GAMMA=   2.1472
  2.1472

 Free energy of the ion-electron system (eV)
  ---------------------------------------------------
  alpha Z        PSCENC =       121.46950000
  Ewald energy   TEWEN  =     -1417.78992803
  -Hartree energ DENC   =       -81.59385510
  -exchange      EXHF   =         0.00000000
  -V(xc)+E(xc)   XCENC  =       117.31906154
  PAW double counting   =       405.00861116     -414.83313508
  entropy T*S    EENTRO =         0.00000000
  eigenvalues    EBANDS =        20.13690104
  atomic energy  EATOM  =      1177.01779097
  Solvation  Ediel_sol  =         0.00000000
  ---------------------------------------------------
  free energy    TOTEN  =       -73.26505349 eV

  energy without entropy =      -73.26505349  energy(sigma->0) =      -73.26505349


--------------------------------------------------------------------------------------------------------




--------------------------------------- Iteration      1(   7)  ---------------------------------------


    POTLOK:  cpu time    0.0231: real time    0.0235
    SETDIJ:  cpu time    0.0057: real time    0.0057
     EDDAV:  cpu time    4.5851: real time    4.5862
 BZINTS: Fermi energy: 10.640054; 32.000000 electrons
         Band energy:  39.861757;  BLOECHL correction:  0.000000
       DOS:  cpu time    0.0371: real time    0.0371
    CHARGE:  cpu time    0.1397: real time    0.1397
    MIXING:  cpu time    0.0020: real time    0.0020
    --------------------------------------------
      LOOP:  cpu time    4.7928: real time    4.7943

 eigenvalue-minimisations  :  4648
 total energy-change (2. order) : 0.7548484E+00  (-0.1629846E+00)
 number of electron      31.9999985 magnetization 
 augmentation part        0.7936710 magnetization 

 Broyden mixing:
  rms(total) = 0.71114E-01    rms(broyden)= 0.70783E-01
  rms(prec ) = 0.12412E+00
  weight for this iteration     100.00

 eigenvalues of (default mixing * dielectric matrix)
  average eigenvalue GAMMA=   2.2695
  2.0035  2.5355

 Free energy of the ion-electron system (eV)
  ---------------------------------------------------
  alpha Z        PSCENC =       121.46950000
  Ewald energy   TEWEN  =     -1417.78992803
  -Hartree energ DENC   =      -101.90174243
  -exchange      EXHF   =         0.00000000
  -V(xc)+E(xc)   XCENC  =       119.24891381
  PAW double counting   =       545.70837426     -556.12487047
  entropy T*S    EENTRO =         0.00000000
  eigenvalues    EBANDS =        39.86175684
  atomic energy  EATOM  =      1177.01779097
  Solvation  Ediel_sol  =         0.00000000
  ---------------------------------------------------
  free energy    TOTEN  =       -72.51020505 eV

  energy without entropy =      -72.51020505  energy(sigma->0) =      -72.51020505


--------------------------------------------------------------------------------------------------------




--------------------------------------- Iteration      1(   8)  ---------------------------------------


    POTLOK:  cpu time    0.0213: real time    0.0217
    SETDIJ:  cpu time    0.0059: real time    0.0059
     EDDAV:  cpu time    4.8249: real time    4.8252
 BZINTS: Fermi energy: 10.640521; 32.000000 electrons
         Band energy:  40.228558;  BLOECHL correction:  0.000000
       DOS:  cpu time    0.0371: real time    0.0646
    CHARGE:  cpu time    0.1344: real time    0.1344
    MIXING:  cpu time    0.0021: real time    0.0020
    --------------------------------------------
      LOOP:  cpu time    5.0257: real time    5.0538

 eigenvalue-minimisations  :  5112
 total energy-change (2. order) :-0.8069419E-02  (-0.3072031E-02)
 number of electron      31.9999985 magnetization 
 augmentation part        0.7937932 magnetization 

 Broyden mixing:
  rms(total) = 0.83387E-02    rms(broyden)= 0.82288E-02
  rms(prec ) = 0.14549E-01
  weight for this iteration     100.00

 eigenvalues of (default mixing * dielectric matrix)
  average eigenvalue GAMMA=   2.0974
  1.4452  2.6865  2.1603

 Free energy of the ion-electron system (eV)
  ---------------------------------------------------
  alpha Z        PSCENC =       121.46950000
  Ewald energy   TEWEN  =     -1417.78992803
  -Hartree energ DENC   =      -102.46629220
  -exchange      EXHF   =         0.00000000
  -V(xc)+E(xc)   XCENC  =       119.30721593
  PAW double counting   =       558.33653544     -568.62165450
  entropy T*S    EENTRO =         0.00000000
  eigenvalues    EBANDS =        40.22855791
  atomic energy  EATOM  =      1177.01779097
  Solvation  Ediel_sol  =         0.00000000
  ---------------------------------------------------
  free energy    TOTEN  =       -72.51827447 eV

  energy without entropy =      -72.51827447  energy(sigma->0) =      -72.51827447


--------------------------------------------------------------------------------------------------------




--------------------------------------- Iteration      1(   9)  ---------------------------------------


    POTLOK:  cpu time    0.0276: real time    0.0279
    SETDIJ:  cpu time    0.0058: real time    0.0058
     EDDAV:  cpu time    4.7303: real time    4.7306
 BZINTS: Fermi energy: 10.629387; 32.000000 electrons
         Band energy:  40.120517;  BLOECHL correction:  0.000000
       DOS:  cpu time    0.0366: real time    0.0366
    CHARGE:  cpu time    0.1257: real time    0.1257
    MIXING:  cpu time    0.0022: real time    0.0022
    --------------------------------------------
      LOOP:  cpu time    4.9280: real time    4.9287

 eigenvalue-minimisations  :  4784
 total energy-change (2. order) :-0.2024863E-03  (-0.4198560E-04)
 number of electron      31.9999985 magnetization 
 augmentation part        0.7937666 magnetization 

 Broyden mixing:
  rms(total) = 0.29006E-02    rms(broyden)= 0.28923E-02
  rms(prec ) = 0.50702E-02
  weight for this iteration     100.00

 eigenvalues of (default mixing * dielectric matrix)
  average eigenvalue GAMMA=   2.0411
  0.9740  2.7502  2.4443  1.9961

 Free energy of the ion-electron system (eV)
  ---------------------------------------------------
  alpha Z        PSCENC =       121.46950000
  Ewald energy   TEWEN  =     -1417.78992803
  -Hartree energ DENC   =      -102.36477384
  -exchange      EXHF   =         0.00000000
  -V(xc)+E(xc)   XCENC  =       119.29751893
  PAW double counting   =       557.69345909     -567.96256128
  entropy T*S    EENTRO =         0.00000000
  eigenvalues    EBANDS =        40.12051720
  atomic energy  EATOM  =      1177.01779097
  Solvation  Ediel_sol  =         0.00000000
  ---------------------------------------------------
  free energy    TOTEN  =       -72.51847696 eV

  energy without entropy =      -72.51847696  energy(sigma->0) =      -72.51847696


--------------------------------------------------------------------------------------------------------




--------------------------------------- Iteration      1(  10)  ---------------------------------------


    POTLOK:  cpu time    0.0200: real time    0.0206
    SETDIJ:  cpu time    0.0061: real time    0.0127
     EDDAV:  cpu time    4.7972: real time    4.7974
 BZINTS: Fermi energy: 10.624397; 32.000000 electrons
         Band energy:  40.152750;  BLOECHL correction:  0.000000
       DOS:  cpu time    0.0368: real time    0.0368
    CHARGE:  cpu time    0.1422: real time    0.1422
    MIXING:  cpu time    0.0021: real time    0.0021
    --------------------------------------------
      LOOP:  cpu time    5.0044: real time    5.0120

 eigenvalue-minimisations  :  5096
 total energy-change (2. order) :-0.5072903E-04  (-0.4088513E-05)
 number of electron      31.9999985 magnetization 
 augmentation part        0.7937450 magnetization 

 Broyden mixing:
  rms(total) = 0.27030E-03    rms(broyden)= 0.26532E-03
  rms(prec ) = 0.64271E-03
  weight for this iteration     100.00

 eigenvalues of (default mixing * dielectric matrix)
  average eigenvalue GAMMA=   1.9498
  2.9077  2.5544  2.0588  0.9939  1.2340

 Free energy of the ion-electron system (eV)
  ---------------------------------------------------
  alpha Z        PSCENC =       121.46950000
  Ewald energy   TEWEN  =     -1417.78992803
  -Hartree energ DENC   =      -102.39878225
  -exchange      EXHF   =         0.00000000
  -V(xc)+E(xc)   XCENC  =       119.30032456
  PAW double counting   =       557.02562583     -567.29580906
  entropy T*S    EENTRO =         0.00000000
  eigenvalues    EBANDS =        40.15275029
  atomic energy  EATOM  =      1177.01779097
  Solvation  Ediel_sol  =         0.00000000
  ---------------------------------------------------
  free energy    TOTEN  =       -72.51852768 eV

  energy without entropy =      -72.51852768  energy(sigma->0) =      -72.51852768


--------------------------------------------------------------------------------------------------------




--------------------------------------- Iteration      1(  11)  ---------------------------------------


    POTLOK:  cpu time    0.0227: real time    0.0231
    SETDIJ:  cpu time    0.0058: real time    0.0058
     EDDAV:  cpu time    3.9824: real time    3.9827
 BZINTS: Fermi energy: 10.620012; 32.000000 electrons
         Band energy:  40.164861;  BLOECHL correction:  0.000000
       DOS:  cpu time    0.0369: real time    0.0369
    --------------------------------------------
      LOOP:  cpu time    4.0478: real time    4.0484

 eigenvalue-minimisations  :  3704
 total energy-change (2. order) :-0.6630162E-06  (-0.9867556E-07)
 number of electron      31.9999985 magnetization 
 augmentation part        0.7937450 magnetization 

 Free energy of the ion-electron system (eV)
  ---------------------------------------------------
  alpha Z        PSCENC =       121.46950000
  Ewald energy   TEWEN  =     -1417.78992803
  -Hartree energ DENC   =      -102.41145249
  -exchange      EXHF   =         0.00000000
  -V(xc)+E(xc)   XCENC  =       119.30149106
  PAW double counting   =       557.04216211     -567.31295252
  entropy T*S    EENTRO =         0.00000000
  eigenvalues    EBANDS =        40.16486053
  atomic energy  EATOM  =      1177.01779097
  Solvation  Ediel_sol  =         0.00000000
  ---------------------------------------------------
  free energy    TOTEN  =       -72.51852835 eV

  energy without entropy =      -72.51852835  energy(sigma->0) =      -72.51852835


--------------------------------------------------------------------------------------------------------




 average (electrostatic) potential at core
  the test charge radii are     0.6991
  (the norm of the test charge is              1.0000)
       1 -44.5622       2 -44.5622       3 -44.5622       4 -44.5622       5 -44.5622
       6 -44.5622       7 -44.5622       8 -44.5622
 
 
 
 E-fermi :  10.6200     XC(G=0): -13.5022     alpha+bet :-18.7075


 k-point     1 :       0.0000    0.0000    0.0000
  band No.  band energies     occupation 
      1     -11.6607      2.00000
      2      -2.5906      2.00000
      3      -2.5906      2.00000
      4      -2.5906      2.00000
      5      -2.5906      2.00000
      6      -2.5906      2.00000
      7      -2.5906      2.00000
      8       3.9377      2.00000
      9       3.9377      2.00000
     10       3.9377      2.00000
     11       3.9377      2.00000
     12       3.9377      2.00000
     13       3.9377      2.00000
     14      10.5911      2.00000
     15      10.5911      2.00000
     16      10.5911      2.00000
     17      15.4547      0.00000
     18      15.4547      0.00000
     19      15.4547      0.00000
     20      15.4547      0.00000
     21      15.4547      0.00000
     22      15.4547      0.00000
     23      16.3331      0.00000
     24      16.3331      0.00000

 k-point     2 :       0.0833    0.0000    0.0000
  band No.  band energies     occupation 
      1     -11.5941      2.00000
      2      -3.9482      2.00000
      3      -2.5460      2.00000
      4      -2.5460      2.00000
      5      -2.5460      2.00000
      6      -2.5460      2.00000
      7      -1.1700      2.00000
      8       3.7864      2.00000
      9       3.7864      2.00000
     10       3.7864      2.00000
     11       3.7864      2.00000
     12       4.0032      2.00000
     13       4.0032      2.00000
     14      10.3087      2.00000
     15      10.3087      2.00000
     16      10.4336      2.00000
     17      15.1132      0.00000
     18      15.7300      0.00000
     19      15.7300      0.00000
     20      15.7300      0.00000
     21      15.7300      0.00000
     22      15.9457      0.00000
     23      16.2911      0.00000
     24      16.6803      0.00000

 k-point     3 :       0.1667    0.0000    0.0000
  band No.  band energies     occupation 
      1     -11.3945      2.00000
      2      -5.2241      2.00000
      3      -2.4174      2.00000
      4      -2.4174      2.00000
      5      -2.4174      2.00000
      6      -2.4174      2.00000
      7       0.2924      2.00000
      8       3.3879      2.00000
      9       3.3879      2.00000
     10       3.3879      2.00000
     11       3.3879      2.00000
     12       4.1994      2.00000
     13       4.1994      2.00000
     14       9.6162      2.00000
     15       9.6162      2.00000
     16       9.9775      2.00000
     17      14.9131      0.00000
     18      16.1432      0.00000
     19      16.5022      0.00000
     20      16.5022      0.00000
     21      16.5022      0.00000
     22      16.5022      0.00000
     23      16.6087      0.00000
     24      17.5508      0.00000

 k-point     4 :       0.2500    0.0000    0.0000
  band No.  band energies     occupation 
      1     -11.0626      2.00000
      2      -6.4053      2.00000
      3      -2.2204      2.00000
      4      -2.2204      2.00000
      5      -2.2204      2.00000
      6      -2.2204      2.00000
      7       1.7699      2.00000
      8       2.8564      2.00000
      9       2.8564      2.00000
     10       2.8564      2.00000
     11       2.8564      2.00000
     12       4.5210      2.00000
     13       4.5210      2.00000
     14       8.7508      2.00000
     15       8.7508      2.00000
     16       9.2562      2.00000
     17      14.8333      0.00000
     18      15.9180      0.00000
     19      17.4593      0.00000
     20      17.6575      0.00000
     21      17.6575      0.00000
     22      17.6575      0.00000
     23      17.6575      0.00000
     24      18.7049      0.00000

 k-point     5 :       0.3333    0.0000    0.0000
  band No.  band energies     occupation 
      1     -10.5995      2.00000
      2      -7.4811      2.00000
      3      -1.9899      2.00000
      4      -1.9899      2.00000
      5      -1.9899      2.00000
      6      -1.9899      2.00000
      7       2.3244      2.00000
      8       2.3244      2.00000
      9       2.3244      2.00000
     10       2.3244      2.00000
     11       3.2336      2.00000
     12       4.9704      2.00000
     13       4.9704      2.00000
     14       7.8563      2.00000
     15       7.8563      2.00000
     16       8.3262      2.00000
     17      14.8604      0.00000
     18      15.6618      0.00000
     19      18.5109      0.00000
     20      19.0626      0.00000
     21      19.0626      0.00000
     22      19.0626      0.00000
     23      19.0626      0.00000
     24      20.0010      0.00000

 k-point     6 :       0.4167    0.0000    0.0000
  band No.  band energies     occupation 
      1     -10.0069      2.00000
      2      -8.4438      2.00000
      3      -1.7896      2.00000
      4      -1.7896      2.00000
      5      -1.7896      2.00000
      6      -1.7896      2.00000
      7       1.9187      2.00000
      8       1.9187      2.00000
      9       1.9187      2.00000
     10       1.9187      2.00000
     11       4.6518      2.00000
     12       5.5393      2.00000
     13       5.5393      2.00000
     14       7.0021      2.00000
     15       7.0021      2.00000
     16       7.2284      2.00000
     17      14.9794      0.00000
     18      15.4007      0.00000
     19      19.7621      0.00000
     20      20.5396      0.00000
     21      20.5396      0.00000
     22      20.5396      0.00000
     23      20.5397      0.00000
     24      21.3589      0.00000

 k-point     7 :       0.5000    0.0000    0.0000
  band No.  band energies     occupation 
      1      -9.2873      2.00000
      2      -9.2873      2.00000
      3      -1.7067      2.00000
      4      -1.7067      2.00000
      5      -1.7067      2.00000
      6      -1.7067      2.00000
      7       1.7648      2.00000
      8       1.7648      2.00000
      9       1.7648      2.00000
     10       1.7648      2.00000
     11       5.9905      2.00000
     12       5.9905      2.00000
     13       6.2189      2.00000
     14       6.2189      2.00000
     15       6.2189      2.00000
     16       6.2189      2.00000
     17      15.1624      0.00000
     18      15.1624      0.00000
     19      21.1834      0.00000
     20      21.1834      0.00000
     21      21.4682      0.00000
     22      21.4682      0.00000
     23      21.4682      0.00000
     24      21.4682      0.00000

 k-point     8 :       0.0833    0.0833    0.0000
  band No.  band energies     occupation 
      1     -11.5275      2.00000
      2      -3.8959      2.00000
      3      -3.8959      2.00000
      4      -2.5348      2.00000
      5      -2.4722      2.00000
      6      -1.1385      2.00000
      7      -1.1385      2.00000
      8       3.2726      2.00000
      9       3.8395      2.00000
     10       3.8395      2.00000
     11       3.8697      2.00000
     12       3.8697      2.00000
     13       4.0505      2.00000
     14       9.8512      2.00000
     15      10.0381      2.00000
     16      10.5092      2.00000
     17      15.3948      0.00000
     18      15.3948      0.00000
     19      15.5605      0.00000
     20      16.2128      0.00000
     21      16.2128      0.00000
     22      16.4032      0.00000
     23      16.4752      0.00000
     24      16.7775      0.00000

 k-point     9 :       0.1667    0.0833    0.0000
  band No.  band energies     occupation 
      1     -11.3281      2.00000
      2      -5.1670      2.00000
      3      -3.7413      2.00000
      4      -2.4529      2.00000
      5      -2.3100      2.00000
      6      -1.0531      2.00000
      7       0.3003      2.00000
      8       2.6222      2.00000
      9       3.4060      2.00000
     10       3.5234      2.00000
     11       4.0121      2.00000
     12       4.0266      2.00000
     13       4.0940      2.00000
     14       9.0853      2.00000
     15       9.3668      2.00000
     16      10.2332      2.00000
     17      15.1985      0.00000
     18      15.9382      0.00000
     19      16.1858      0.00000
     20      16.4134      0.00000
     21      16.8657      0.00000
     22      16.9664      0.00000
     23      17.4748      0.00000
     24      17.5557      0.00000

 k-point    10 :       0.2500    0.0833    0.0000
  band No.  band energies     occupation 
      1     -10.9964      2.00000
      2      -6.3450      2.00000
      3      -3.4939      2.00000
      4      -2.3347      2.00000
      5      -2.0656      2.00000
      6      -0.9439      2.00000
      7       1.7337      2.00000
      8       1.9691      2.00000
      9       2.8190      2.00000
     10       3.0859      2.00000
     11       3.7299      2.00000
     12       4.3427      2.00000
     13       4.4667      2.00000
     14       8.1966      2.00000
     15       8.5197      2.00000
     16       9.6248      2.00000
     17      15.1228      0.00000
     18      16.2034      0.00000
     19      16.8014      0.00000
     20      17.3639      0.00000
     21      17.7040      0.00000
     22      18.0913      0.00000
     23      18.6957      0.00000
     24      18.7376      0.00000

 k-point    11 :       0.3333    0.0833    0.0000
  band No.  band energies     occupation 
      1     -10.5336      2.00000
      2      -7.4188      2.00000
      3      -3.1725      2.00000
      4      -2.2450      2.00000
      5      -1.7561      2.00000
      6      -0.8699      2.00000
      7       1.4480      2.00000
      8       2.1981      2.00000
      9       2.7037      2.00000
     10       3.1080      2.00000
     11       3.3165      2.00000
     12       4.7851      2.00000
     13       5.0087      2.00000
     14       7.2716      2.00000
     15       7.6376      2.00000
     16       8.7737      2.00000
     17      15.1526      0.00000
     18      15.9488      0.00000
     19      18.0219      0.00000
     20      18.7406      0.00000
     21      18.8004      0.00000
     22      19.4379      0.00000
     23      19.9339      0.00000
     24      19.9854      0.00000

 k-point    12 :       0.4167    0.0833    0.0000
  band No.  band energies     occupation 
      1      -9.9415      2.00000
      2      -8.3801      2.00000
      3      -2.8139      2.00000
      4      -2.2773      2.00000
      5      -1.4169      2.00000
      6      -0.9113      2.00000
      7       1.1930      2.00000
      8       1.6478      2.00000
      9       2.5169      2.00000
     10       2.8974      2.00000
     11       4.3467      2.00000
     12       5.3474      2.00000
     13       5.7583      2.00000
     14       6.3454      2.00000
     15       6.7908      2.00000
     16       7.7737      2.00000
     17      15.2722      0.00000
     18      15.6901      0.00000
     19      19.4325      0.00000
     20      19.9745      0.00000
     21      20.3674      0.00000
     22      20.6987      0.00000
     23      21.2077      0.00000
     24      21.3430      0.00000

 k-point    13 :       0.5000    0.0833    0.0000
  band No.  band energies     occupation 
      1      -9.2226      2.00000
      2      -9.2226      2.00000
      3      -2.4843      2.00000
      4      -2.4843      2.00000
      5      -1.1084      2.00000
      6      -1.1084      2.00000
      7       1.2770      2.00000
      8       1.2770      2.00000
      9       2.5962      2.00000
     10       2.5962      2.00000
     11       5.4006      2.00000
     12       5.4006      2.00000
     13       6.0199      2.00000
     14       6.0199      2.00000
     15       6.7197      2.00000
     16       6.7197      2.00000
     17      15.4550      0.00000
     18      15.4550      0.00000
     19      20.7234      0.00000
     20      20.7234      0.00000
     21      21.3748      0.00000
     22      21.3748      0.00000
     23      21.8275      0.00000
     24      21.8276      0.00000

 k-point    14 :       0.1667    0.1667    0.0000
  band No.  band energies     occupation 
      1     -11.1290      2.00000
      2      -4.9972      2.00000
      3      -4.9972      2.00000
      4      -2.4498      2.00000
      5      -2.1178      2.00000
      6       0.3082      2.00000
      7       0.3082      2.00000
      8       1.8491      2.00000
      9       3.5674      2.00000
     10       3.5674      2.00000
     11       3.8339      2.00000
     12       3.8339      2.00000
     13       4.3838      2.00000
     14       8.2555      2.00000
     15       8.7348      2.00000
     16      10.2518      2.00000
     17      15.8783      0.00000
     18      15.9991      0.00000
     19      15.9991      0.00000
     20      16.8839      0.00000
     21      17.5907      0.00000
     22      17.5907      0.00000
     23      17.7720      0.00000
     24      18.1431      0.00000

 k-point    15 :       0.2500    0.1667    0.0000
  band No.  band energies     occupation 
      1     -10.7980      2.00000
      2      -6.1653      2.00000
      3      -4.7199      2.00000
      4      -2.4731      2.00000
      5      -1.8389      2.00000
      6       0.2656      2.00000
      7       1.2065      2.00000
      8       1.6026      2.00000
      9       2.9430      2.00000
     10       3.5506      2.00000
     11       3.8647      2.00000
     12       4.3538      2.00000
     13       4.4544      2.00000
     14       7.3517      2.00000
     15       7.9237      2.00000
     16       9.8861      2.00000
     17      15.9302      0.00000
     18      16.3537      0.00000
     19      16.9026      0.00000
     20      17.1888      0.00000
     21      18.3934      0.00000
     22      18.6682      0.00000
     23      18.6958      0.00000
     24      18.8557      0.00000

 k-point    16 :       0.3333    0.1667    0.0000
  band No.  band energies     occupation 
      1     -10.3363      2.00000
      2      -7.2326      2.00000
      3      -4.3459      2.00000
      4      -2.6205      2.00000
      5      -1.4812      2.00000
      6       0.1047      2.00000
      7       0.8375      2.00000
      8       2.2695      2.00000
      9       2.7555      2.00000
     10       3.3915      2.00000
     11       4.2814      2.00000
     12       4.2893      2.00000
     13       5.1195      2.00000
     14       6.4310      2.00000
     15       7.0689      2.00000
     16       9.1924      2.00000
     17      15.9616      0.00000
     18      16.7080      0.00000
     19      17.2899      0.00000
     20      18.6399      0.00000
     21      19.3842      0.00000
     22      19.7742      0.00000
     23      19.9092      0.00000
     24      19.9541      0.00000

 k-point    17 :       0.4167    0.1667    0.0000
  band No.  band energies     occupation 
      1      -9.7457      2.00000
      2      -8.1895      2.00000
      3      -3.8958      2.00000
      4      -2.9497      2.00000
      5      -1.0629      2.00000
      6      -0.2050      2.00000
      7       0.8257      2.00000
      8       1.6368      2.00000
      9       3.4349      2.00000
     10       3.7478      2.00000
     11       3.9772      2.00000
     12       4.8365      2.00000
     13       5.5291      2.00000
     14       6.1112      2.00000
     15       6.2444      2.00000
     16       8.2660      2.00000
     17      16.0782      0.00000
     18      16.4731      0.00000
     19      18.5418      0.00000
     20      20.2369      0.00000
     21      20.5599      0.00000
     22      20.6908      0.00000
     23      20.8170      0.00000
     24      21.3160      0.00000

 k-point    18 :       0.5000    0.1667    0.0000
  band No.  band energies     occupation 
      1      -9.0289      2.00000
      2      -9.0289      2.00000
      3      -3.4074      2.00000
      4      -3.4074      2.00000
      5      -0.6184      2.00000
      6      -0.6184      2.00000
      7       1.1259      2.00000
      8       1.1259      2.00000
      9       3.6594      2.00000
     10       3.6594      2.00000
     11       4.6470      2.00000
[...]

 k-point    72 :       0.4167    0.4167    0.2500
  band No.  band energies     occupation 
      1      -7.8257      2.00000
      2      -6.3663      2.00000
      3      -6.3663      2.00000
      4      -5.1626      2.00000
      5      -2.5110      2.00000
      6      -1.3500      2.00000
      7      -1.3500      2.00000
      8       0.0494      2.00000
      9       4.8662      2.00000
     10       5.6672      2.00000
     11       5.6672      2.00000
     12       6.7973      2.00000
     13       6.8007      2.00000
     14       6.9897      2.00000
     15       6.9897      2.00000
     16       8.1302      2.00000
     17      18.3509      0.00000
     18      18.8677      0.00000
     19      18.8677      0.00000
     20      19.2580      0.00000
     21      19.4958      0.00000
     22      20.1244      0.00000
     23      20.1244      0.00000
     24      20.5015      0.00000

 k-point    73 :       0.5000    0.4167    0.2500
  band No.  band energies     occupation 
      1      -7.1452      2.00000
      2      -7.1452      2.00000
      3      -5.7650      2.00000
      4      -5.7650      2.00000
      5      -2.0408      2.00000
      6      -2.0408      2.00000
      7      -0.7140      2.00000
      8      -0.7140      2.00000
      9       5.2851      2.00000
     10       5.2851      2.00000
     11       6.2618      2.00000
     12       6.2618      2.00000
     13       7.0273      2.00000
     14       7.0273      2.00000
     15       7.6951      2.00000
     16       7.6951      2.00000
     17      18.8724      0.00000
     18      18.8724      0.00000
     19      19.1426      0.00000
     20      19.1426      0.00000
     21      19.7379      0.00000
     22      19.7379      0.00000
     23      20.3238      0.00000
     24      20.3238      0.00000

 k-point    74 :       0.5000    0.5000    0.2500
  band No.  band energies     occupation 
      1      -6.4911      2.00000
      2      -6.4911      2.00000
      3      -6.4911      2.00000
      4      -6.4911      2.00000
      5      -1.4540      2.00000
      6      -1.4540      2.00000
      7      -1.4540      2.00000
      8      -1.4540      2.00000
      9       5.7884      2.00000
     10       5.7884      2.00000
     11       5.7884      2.00000
     12       5.7884      2.00000
     13       7.5177      2.00000
     14       7.5177      2.00000
     15       7.5177      2.00000
     16       7.5177      2.00000
     17      19.0698      0.00000
     18      19.0698      0.00000
     19      19.0698      0.00000
     20      19.0698      0.00000
     21      20.0639      0.00000
     22      20.0639      0.00000
     23      20.0639      0.00000
     24      20.0639      0.00000

 k-point    75 :       0.3333    0.3333    0.3333
  band No.  band energies     occupation 
      1      -8.5217      2.00000
      2      -5.6377      2.00000
      3      -5.6377      2.00000
      4      -5.6377      2.00000
      5      -1.9465      2.00000
      6      -1.9465      2.00000
      7      -1.9465      2.00000
      8       0.8245      2.00000
      9       5.3842      2.00000
     10       5.3842      2.00000
     11       5.3842      2.00000
     12       6.3989      2.00000
     13       6.3989      2.00000
     14       6.3989      2.00000
     15       8.1367      2.00000
     16       8.1367      2.00000
     17      17.8928      0.00000
     18      17.8928      0.00000
     19      17.8928      0.00000
     20      19.1333      0.00000
     21      19.1333      0.00000
     22      19.7964      0.00000
     23      21.7302      0.00000
     24      21.7302      0.00000

 k-point    76 :       0.4167    0.3333    0.3333
  band No.  band energies     occupation 
      1      -7.9526      2.00000
      2      -6.4880      2.00000
      3      -5.2747      2.00000
      4      -5.2747      2.00000
      5      -2.6406      2.00000
      6      -2.6406      2.00000
      7      -1.4665      2.00000
      8      -0.0563      2.00000
      9       5.6020      2.00000
     10       5.6020      2.00000
     11       6.5346      2.00000
     12       6.6287      2.00000
     13       6.6287      2.00000
     14       6.7865      2.00000
     15       7.6859      2.00000
     16       8.0127      2.00000
     17      18.2536      0.00000
     18      18.4397      0.00000
     19      18.4397      0.00000
     20      18.9057      0.00000
     21      19.5977      0.00000
     22      20.0845      0.00000
     23      20.7619      0.00000
     24      20.7691      0.00000

 k-point    77 :       0.5000    0.3333    0.3333
  band No.  band energies     occupation 
      1      -7.2699      2.00000
      2      -7.2699      2.00000
      3      -5.0948      2.00000
      4      -5.0948      2.00000
      5      -2.9316      2.00000
      6      -2.9316      2.00000
      7      -0.8263      2.00000
      8      -0.8263      2.00000
      9       5.6781      2.00000
     10       5.6781      2.00000
     11       6.7047      2.00000
     12       6.7047      2.00000
     13       7.2248      2.00000
     14       7.2248      2.00000
     15       7.4496      2.00000
     16       7.4496      2.00000
     17      18.6069      0.00000
     18      18.6069      0.00000
     19      18.9752      0.00000
     20      18.9752      0.00000
     21      20.0344      0.00000
     22      20.0344      0.00000
     23      20.1970      0.00000
     24      20.1970      0.00000

 k-point    78 :       0.4167    0.4167    0.3333
  band No.  band energies     occupation 
      1      -7.3962      2.00000
      2      -6.0038      2.00000
      3      -6.0038      2.00000
      4      -5.2110      2.00000
      5      -3.0535      2.00000
      6      -2.2795      2.00000
      7      -2.2795      2.00000
      8      -0.9323      2.00000
      9       6.0281      2.00000
     10       6.5122      2.00000
     11       6.5122      2.00000
     12       7.0164      2.00000
     13       7.0959      2.00000
     14       7.0959      2.00000
     15       7.4765      2.00000
     16       7.9687      2.00000
     17      18.6237      0.00000
     18      18.7538      0.00000
     19      18.7538      0.00000
     20      19.1907      0.00000
     21      19.4140      0.00000
     22      20.1575      0.00000
     23      20.1623      0.00000
     24      20.1631      0.00000

 k-point    79 :       0.5000    0.4167    0.3333
  band No.  band energies     occupation 
      1      -6.7369      2.00000
      2      -6.7369      2.00000
      3      -5.5133      2.00000
      4      -5.5133      2.00000
      5      -2.8743      2.00000
      6      -2.8743      2.00000
      7      -1.6843      2.00000
      8      -1.6843      2.00000
      9       6.3204      2.00000
     10       6.3204      2.00000
     11       7.0716      2.00000
     12       7.0716      2.00000
     13       7.1938      2.00000
     14       7.1938      2.00000
     15       7.6488      2.00000
     16       7.6488      2.00000
     17      19.0344      0.00000
     18      19.0344      0.00000
     19      19.0438      0.00000
     20      19.0438      0.00000
     21      19.7078      0.00000
     22      19.7078      0.00000
     23      19.8910      0.00000
     24      19.8910      0.00000

 k-point    80 :       0.5000    0.5000    0.3333
  band No.  band energies     occupation 
      1      -6.1263      2.00000
      2      -6.1263      2.00000
      3      -6.1263      2.00000
      4      -6.1263      2.00000
      5      -2.3932      2.00000
      6      -2.3932      2.00000
      7      -2.3932      2.00000
      8      -2.3932      2.00000
      9       6.7494      2.00000
     10       6.7494      2.00000
     11       6.7494      2.00000
     12       6.7494      2.00000
     13       7.5762      2.00000
     14       7.5762      2.00000
     15       7.5762      2.00000
     16       7.5762      2.00000
     17      19.2091      0.00000
     18      19.2091      0.00000
     19      19.2091      0.00000
     20      19.2091      0.00000
     21      19.6734      0.00000
     22      19.6734      0.00000
     23      19.6734      0.00000
     24      19.6734      0.00000

 k-point    81 :       0.4167    0.4167    0.4167
  band No.  band energies     occupation 
      1      -6.8610      2.00000
      2      -5.6308      2.00000
      3      -5.6308      2.00000
      4      -5.6308      2.00000
      5      -2.9975      2.00000
      6      -2.9975      2.00000
      7      -2.9975      2.00000
      8      -1.7984      2.00000
      9       6.9735      2.00000
     10       6.9735      2.00000
     11       6.9735      2.00000
     12       7.2648      2.00000
     13       7.2648      2.00000
     14       7.2648      2.00000
     15       7.7620      2.00000
     16       7.7620      2.00000
     17      18.8994      0.00000
     18      18.8994      0.00000
     19      18.8994      0.00000
     20      19.2755      0.00000
     21      19.2755      0.00000
     22      19.9777      0.00000
     23      19.9777      0.00000
     24      19.9912      0.00000

 k-point    82 :       0.5000    0.4167    0.4167
  band No.  band energies     occupation 
      1      -6.2474      2.00000
      2      -6.2474      2.00000
      3      -5.4441      2.00000
      4      -5.4441      2.00000
      5      -3.3000      2.00000
      6      -3.3000      2.00000
      7      -2.5130      2.00000
      8      -2.5130      2.00000
      9       7.0609      2.00000
     10       7.0609      2.00000
     11       7.3984      2.00000
     12       7.3984      2.00000
     13       7.5203      2.00000
     14       7.5203      2.00000
     15       7.5849      2.00000
     16       7.5849      2.00000
     17      19.1210      0.00000
     18      19.1210      0.00000
     19      19.1572      0.00000
     20      19.1572      0.00000
     21      19.5371      0.00000
     22      19.5371      0.00000
     23      19.6137      0.00000
     24      19.6137      0.00000

 k-point    83 :       0.5000    0.5000    0.4167
  band No.  band energies     occupation 
      1      -5.7500      2.00000
      2      -5.7500      2.00000
      3      -5.7500      2.00000
      4      -5.7500      2.00000
      5      -3.1187      2.00000
      6      -3.1187      2.00000
      7      -3.1187      2.00000
      8      -3.1187      2.00000
      9       7.4011      2.00000
     10       7.4011      2.00000
     11       7.4011      2.00000
     12       7.4011      2.00000
     13       7.6197      2.00000
     14       7.6197      2.00000
     15       7.6197      2.00000
     16       7.6197      2.00000
     17      19.2829      0.00000
     18      19.2829      0.00000
     19      19.2829      0.00000
     20      19.2829      0.00000
     21      19.3976      0.00000
     22      19.3976      0.00000
     23      19.3976      0.00000
     24      19.3976      0.00000

 k-point    84 :       0.5000    0.5000    0.5000
  band No.  band energies     occupation 
      1      -5.5608      2.00000
      2      -5.5608      2.00000
      3      -5.5608      2.00000
      4      -5.5608      2.00000
      5      -3.4239      2.00000
      6      -3.4239      2.00000
      7      -3.4239      2.00000
      8      -3.4239      2.00000
      9       7.6370      2.00000
     10       7.6370      2.00000
     11       7.6370      2.00000
     12       7.6370      2.00000
     13       7.6370      2.00000
     14       7.6370      2.00000
     15       7.6370      2.00000
     16       7.6370      2.00000
     17      19.3096      0.00000
     18      19.3096      0.00000
     19      19.3096      0.00000
     20      19.3096      0.00000
     21      19.3096      0.00000
     22      19.3096      0.00000
     23      19.3096      0.00000
     24      19.3097      0.00000


--------------------------------------------------------------------------------------------------------


 soft charge-density along one line, spin component           1
         0         1         2         3         4         5         6         7         8         9
 total charge-density along one line
 
 pseudopotential strength for first ion, spin component:           1
  9.395  -0.006   0.000   0.000   0.000  -0.000  -0.000  -0.000
 -0.006  -0.002  -0.000  -0.000  -0.000  -0.000  -0.000  -0.000
  0.000  -0.000  -3.613  -0.000  -0.000  -0.011  -0.000  -0.000
  0.000  -0.000  -0.000  -3.613   0.000  -0.000  -0.011   0.000
  0.000  -0.000  -0.000   0.000  -3.613  -0.000   0.000  -0.011
 -0.000  -0.000  -0.011  -0.000  -0.000  -0.756  -0.000  -0.000
 -0.000  -0.000  -0.000  -0.011   0.000  -0.000  -0.756   0.000
 -0.000  -0.000  -0.000   0.000  -0.011  -0.000   0.000  -0.756
 total augmentation occupancy for first ion, spin component:           1
  1.432  -1.114   0.000  -0.000  -0.000  -0.000  -0.000   0.000
 -1.114   1.161  -0.000   0.000   0.000   0.000  -0.000   0.000
 -0.000  -0.000   1.133  -0.000  -0.000   0.195  -0.000  -0.000
  0.000   0.000   0.000   1.133  -0.000  -0.000   0.195  -0.000
 -0.000   0.000  -0.000   0.000   1.133  -0.000   0.000   0.195
 -0.000  -0.000   0.195  -0.000   0.000   0.040  -0.000   0.000
 -0.000  -0.000   0.000   0.195   0.000   0.000   0.040   0.000
  0.000   0.000   0.000  -0.000   0.195   0.000  -0.000   0.040


------------------------ aborting loop because EDIFF is reached ----------------------------------------


    CHARGE:  cpu time    0.1231: real time    0.1231
    FORLOC:  cpu time    0.0018: real time    0.0018
    FORNL :  cpu time    0.1961: real time    0.1961
    STRESS:  cpu time    0.4559: real time    0.4562
    FORHAR:  cpu time    0.0051: real time    0.0051
    MIXING:  cpu time    0.0021: real time    0.0021
    OFIELD:  cpu time    0.0001: real time    0.0001

  FORCE on cell =-STRESS in cart. coord.  units (eV):
  Direction    XX          YY          ZZ          XY          YZ          ZX
  --------------------------------------------------------------------------------------
  Alpha Z   121.46950   121.46950   121.46950
  Ewald    -472.59745  -472.59745  -472.59745     0.00000     0.00000    -0.00000
  Hartree    34.13651    34.13651    34.13651    -0.00000    -0.00000    -0.00000
  E(xc)    -121.26150  -121.26150  -121.26150     0.00000     0.00000     0.00000
  Local     -42.81572   -42.81572   -42.81572    -0.00000     0.00000     0.00000
  n-local   -30.33613   -31.10600   -30.79577     0.63731     0.76044     0.36122
  augment    -3.07371    -3.07371    -3.07371    -0.00000     0.00000    -0.00000
  Kinetic   509.90694   526.42743   528.81499    -4.70862    -6.52591    -3.25795
  Fock        0.00000     0.00000     0.00000     0.00000     0.00000     0.00000
  -------------------------------------------------------------------------------------
  Total       6.82812     6.82812     6.82812     0.00000     0.00000     0.00000
  in kB     254.82795   254.82795   254.82795     0.00000     0.00000     0.00000
  external pressure =      254.83 kB  Pullay stress =        0.00 kB


 VOLUME and BASIS-vectors are now :
 -----------------------------------------------------------------------------
  energy-cutoff  :      400.00
  volume of cell :       42.93
      direct lattice vectors                 reciprocal lattice vectors
     3.501506000  0.000000000  0.000000000     0.285591400  0.000000000  0.000000000
     0.000000000  3.501506000  0.000000000     0.000000000  0.285591400  0.000000000
     0.000000000  0.000000000  3.501506000     0.000000000  0.000000000  0.285591400

  length of vectors
     3.501506000  3.501506000  3.501506000     0.285591400  0.285591400  0.285591400


 FORCES acting on ions
    electron-ion (+dipol)            ewald-force                    non-local-force                 convergence-correction
 -----------------------------------------------------------------------------------------------
   -.812E-14 -.151E-12 0.791E-14   -.711E-14 0.711E-14 0.711E-14   0.152E-16 0.119E-16 0.268E-16   -.313E-15 -.661E-14 0.251E-14
   0.162E-13 -.428E-14 0.160E-13   -.869E-14 0.167E-15 0.710E-14   0.626E-17 -.287E-16 -.229E-16   -.510E-14 -.433E-15 0.134E-13
   -.812E-14 -.172E-12 0.223E-13   0.711E-14 0.000E+00 -.142E-13   0.131E-16 0.392E-16 0.472E-17   -.509E-15 -.481E-14 0.364E-14
   0.162E-13 0.198E-13 0.168E-15   0.745E-14 -.713E-14 -.139E-13   -.153E-16 -.219E-16 -.361E-17   -.554E-14 -.641E-15 0.119E-13
   -.162E-13 0.197E-12 0.383E-12   -.142E-13 0.711E-14 0.142E-13   -.763E-17 0.314E-16 0.320E-16   -.128E-13 -.743E-14 0.440E-14
   0.244E-13 -.400E-14 -.403E-12   0.708E-14 0.177E-15 0.145E-13   -.104E-16 -.116E-17 -.242E-16   0.147E-14 -.120E-14 0.126E-13
   -.812E-14 -.188E-12 0.328E-14   -.711E-14 0.000E+00 -.711E-14   0.924E-17 0.192E-16 0.580E-17   -.128E-13 -.512E-14 0.245E-14
   0.244E-13 0.376E-12 0.172E-13   0.145E-13 -.721E-14 -.721E-14   -.234E-16 -.401E-16 0.164E-17   0.134E-14 -.114E-14 0.138E-13
 -----------------------------------------------------------------------------------------------
   0.406E-13 0.740E-13 0.468E-13   -.954E-15 0.211E-15 0.543E-15   -.130E-16 0.982E-17 0.202E-16   -.342E-13 -.274E-13 0.648E-13
 
 
 POSITION                                       TOTAL-FORCE (eV/Angst)
 -----------------------------------------------------------------------------------
      0.87538      2.62613      0.87538         0.000000      0.000000     -0.000000
      0.00000      0.00000      1.75075        -0.000000     -0.000000     -0.000000
      0.87538      0.87538      2.62613        -0.000000     -0.000000      0.000000
      0.00000      1.75075      0.00000        -0.000000      0.000000      0.000000
      2.62613      2.62613      2.62613        -0.000000      0.000000      0.000000
      1.75075      0.00000      0.00000        -0.000000     -0.000000      0.000000
      2.62613      0.87538      0.87538         0.000000     -0.000000     -0.000000
      1.75075      1.75075      1.75075         0.000000      0.000000     -0.000000
 -----------------------------------------------------------------------------------
    total drift:                                0.000000      0.000000      0.000000


--------------------------------------------------------------------------------------------------------



  FREE ENERGIE OF THE ION-ELECTRON SYSTEM (eV)
  ---------------------------------------------------
  free  energy   TOTEN  =       -72.51852835 eV

  energy  without entropy=      -72.51852835  energy(sigma->0) =      -72.51852835
 


--------------------------------------------------------------------------------------------------------


    POTLOK:  cpu time    0.0274: real time    0.0274


--------------------------------------------------------------------------------------------------------


     LOOP+:  cpu time   53.3449: real time   53.4337
    4ORBIT:  cpu time    0.0000: real time    0.0000
 BZINTS: Fermi energy: 10.620012; 32.000000 electrons
         Band energy:  40.164861;  BLOECHL correction:  0.000000

 total amount of memory used by VASP MPI-rank0    33728. kBytes
=======================================================================

   base      :      30000. kBytes
   nonl-proj :       1122. kBytes
   fftplans  :        345. kBytes
   grid      :        481. kBytes
   one-center:          6. kBytes
   wavefun   :       1774. kBytes
 
  
  
 General timing and accounting informations for this job:
 ========================================================
  
                  Total CPU time used (sec):       55.628
                            User time (sec):       53.728
                          System time (sec):        1.901
                         Elapsed time (sec):       55.751
  
                   Maximum memory used (kb):      189604.
                   Average memory used (kb):           0.
  
                          Minor page faults:        36894
                          Major page faults:           36
                 Voluntary context switches:          787
