  64  64   0   0
  0.5782658E+01  0.7179999E-09  0.7179998E-09  0.7179999E-09  0.5000000E-15
  1.000000000000000E-004
  CAR 
 unknown system                          
     22.58000248    -13.37748433  301      9.77014780      1.00000000
    -13.377  0.0000E+00  0.0000E+00
    -13.258  0.0000E+00  0.0000E+00
    -13.138  0.0000E+00  0.0000E+00
    -13.018  0.0000E+00  0.0000E+00
    -12.898  0.0000E+00  0.0000E+00
    -12.778  0.0000E+00  0.0000E+00
    -12.658  0.0000E+00  0.0000E+00
    -12.538  0.0000E+00  0.0000E+00
    -12.419  0.0000E+00  0.0000E+00
    -12.299  0.0000E+00  0.0000E+00
    -12.179  0.0000E+00  0.0000E+00
    -12.059  0.3662E-14  0.4389E-15
    -11.939  0.1464E-06  0.1755E-07
    -11.819  0.3022E-02  0.3623E-03
    -11.699  0.2350E+00  0.2853E-01
    -11.580  0.1221E+01  0.1749E+00
    -11.460  0.1403E+01  0.3430E+00
    -11.340  0.2835E+01  0.6828E+00
    -11.220  0.1523E+01  0.8653E+00
    -11.100  0.3533E+01  0.1289E+01
    -10.980  0.2885E+01  0.1635E+01
    -10.860  0.3780E+01  0.2088E+01
    -10.741  0.2393E+01  0.2374E+01
    -10.621  0.4538E+01  0.2918E+01
    -10.501  0.4377E+01  0.3443E+01
    -10.381  0.5007E+01  0.4043E+01
    -10.261  0.2466E+01  0.4339E+01
    -10.141  0.4477E+01  0.4875E+01
    -10.021  0.6462E+01  0.5650E+01
     -9.902  0.5330E+01  0.6289E+01
     -9.782  0.4721E+01  0.6854E+01
     -9.662  0.3913E+01  0.7324E+01
     -9.542  0.6764E+01  0.8134E+01
     -9.422  0.5239E+01  0.8762E+01
     -9.302  0.5571E+01  0.9430E+01
     -9.182  0.6504E+01  0.1021E+02
     -9.063  0.7540E+01  0.1111E+02
     -8.943  0.5970E+01  0.1183E+02
     -8.823  0.5750E+01  0.1252E+02
     -8.703  0.3858E+01  0.1298E+02
     -8.583  0.8711E+01  0.1402E+02
     -8.463  0.7692E+01  0.1495E+02
     -8.343  0.9295E+01  0.1606E+02
     -8.224  0.5931E+01  0.1677E+02
     -8.104  0.6435E+01  0.1754E+02
     -7.984  0.7348E+01  0.1842E+02
     -7.864  0.7478E+01  0.1932E+02
     -7.744  0.6745E+01  0.2013E+02
     -7.624  0.1040E+02  0.2137E+02
     -7.504  0.9352E+01  0.2250E+02
     -7.385  0.6660E+01  0.2329E+02
     -7.265  0.7340E+01  0.2417E+02
     -7.145  0.1213E+02  0.2563E+02
     -7.025  0.9040E+01  0.2671E+02
     -6.905  0.6310E+01  0.2747E+02
     -6.785  0.7785E+01  0.2840E+02
     -6.665  0.1054E+02  0.2966E+02
     -6.546  0.9807E+01  0.3084E+02
     -6.426  0.1323E+02  0.3243E+02
     -6.306  0.9848E+01  0.3361E+02
     -6.186  0.1372E+02  0.3525E+02
     -6.066  0.9852E+01  0.3643E+02
     -5.946  0.9242E+01  0.3754E+02
     -5.826  0.1111E+02  0.3887E+02
     -5.707  0.1479E+02  0.4064E+02
     -5.587  0.1167E+02  0.4204E+02
     -5.467  0.9816E+01  0.4322E+02
     -5.347  0.1305E+02  0.4478E+02
     -5.227  0.1105E+02  0.4611E+02
     -5.107  0.1170E+02  0.4751E+02
     -4.987  0.9553E+01  0.4866E+02
     -4.868  0.9533E+01  0.4980E+02
     -4.748  0.1028E+02  0.5103E+02
     -4.628  0.8460E+01  0.5204E+02
     -4.508  0.5741E+01  0.5273E+02
     -4.388  0.1063E+02  0.5401E+02
     -4.268  0.8940E+01  0.5508E+02
     -4.148  0.7494E+01  0.5598E+02
     -4.029  0.9005E+01  0.5706E+02
     -3.909  0.9675E+01  0.5822E+02
     -3.789  0.1007E+02  0.5942E+02
     -3.669  0.5560E+01  0.6009E+02
     -3.549  0.6385E+01  0.6085E+02
     -3.429  0.5753E+01  0.6154E+02
     -3.309  0.6570E+01  0.6233E+02
     -3.190  0.8623E+01  0.6336E+02
     -3.070  0.7906E+01  0.6431E+02
     -2.950  0.1082E+02  0.6561E+02
     -2.830  0.1192E+02  0.6704E+02
     -2.710  0.9927E+01  0.6823E+02
     -2.590  0.7993E+01  0.6919E+02
     -2.470  0.7436E+01  0.7008E+02
     -2.351  0.1196E+02  0.7151E+02
     -2.231  0.1083E+02  0.7281E+02
     -2.111  0.1038E+02  0.7405E+02
     -1.991  0.1169E+02  0.7545E+02
     -1.871  0.1922E+02  0.7776E+02
     -1.751  0.2660E+02  0.8095E+02
     -1.631  0.2596E+02  0.8406E+02
     -1.512  0.1692E+02  0.8609E+02
     -1.392  0.1385E+02  0.8775E+02
     -1.272  0.1266E+02  0.8926E+02
     -1.152  0.8114E+01  0.9024E+02
     -1.032  0.9062E+01  0.9132E+02
     -0.912  0.1239E+02  0.9281E+02
     -0.792  0.1129E+02  0.9416E+02
     -0.673  0.8697E+01  0.9520E+02
     -0.553  0.8730E+01  0.9625E+02
     -0.433  0.1582E+02  0.9815E+02
     -0.313  0.1504E+02  0.9995E+02
     -0.193  0.9075E+01  0.1010E+03
     -0.073  0.4579E+01  0.1016E+03
      0.047  0.2802E+01  0.1019E+03
      0.167  0.6666E+01  0.1027E+03
      0.286  0.1560E+02  0.1046E+03
      0.406  0.1025E+02  0.1058E+03
      0.526  0.9253E+01  0.1069E+03
      0.646  0.7981E+01  0.1079E+03
      0.766  0.1390E+02  0.1095E+03
      0.886  0.2417E+02  0.1124E+03
      1.006  0.2266E+02  0.1152E+03
      1.125  0.1467E+02  0.1169E+03
      1.245  0.1071E+02  0.1182E+03
      1.365  0.1366E+02  0.1198E+03
      1.485  0.1355E+02  0.1215E+03
      1.605  0.1828E+02  0.1237E+03
      1.725  0.2627E+02  0.1268E+03
      1.845  0.1713E+02  0.1289E+03
      1.964  0.9322E+01  0.1300E+03
      2.084  0.1507E+02  0.1318E+03
      2.204  0.1845E+02  0.1340E+03
      2.324  0.2361E+02  0.1368E+03
      2.444  0.1927E+02  0.1391E+03
      2.564  0.1549E+02  0.1410E+03
      2.684  0.1564E+02  0.1429E+03
      2.803  0.1942E+02  0.1452E+03
      2.923  0.2089E+02  0.1477E+03
      3.043  0.2184E+02  0.1503E+03
      3.163  0.2364E+02  0.1531E+03
      3.283  0.2648E+02  0.1563E+03
      3.403  0.2887E+02  0.1598E+03
      3.523  0.1908E+02  0.1621E+03
      3.642  0.1780E+02  0.1642E+03
      3.762  0.2526E+02  0.1672E+03
      3.882  0.2940E+02  0.1708E+03
      4.002  0.3228E+02  0.1746E+03
      4.122  0.2749E+02  0.1779E+03
      4.242  0.1949E+02  0.1803E+03
      4.362  0.2015E+02  0.1827E+03
      4.481  0.2432E+02  0.1856E+03
      4.601  0.2290E+02  0.1883E+03
      4.721  0.2105E+02  0.1908E+03
      4.841  0.2792E+02  0.1942E+03
      4.961  0.2485E+02  0.1972E+03
      5.081  0.2368E+02  0.2000E+03
      5.201  0.2046E+02  0.2025E+03
      5.320  0.2348E+02  0.2053E+03
      5.440  0.1958E+02  0.2076E+03
      5.560  0.2525E+02  0.2107E+03
      5.680  0.1979E+02  0.2130E+03
      5.800  0.1664E+02  0.2150E+03
      5.920  0.2491E+02  0.2180E+03
      6.040  0.2507E+02  0.2210E+03
      6.159  0.2186E+02  0.2236E+03
      6.279  0.2360E+02  0.2265E+03
      6.399  0.1630E+02  0.2284E+03
      6.519  0.1430E+02  0.2301E+03
      6.639  0.1923E+02  0.2324E+03
      6.759  0.2268E+02  0.2351E+03
      6.879  0.2934E+02  0.2387E+03
      6.998  0.9202E+01  0.2398E+03
      7.118  0.7913E+01  0.2407E+03
      7.238  0.1252E+02  0.2422E+03
      7.358  0.1325E+02  0.2438E+03
      7.478  0.9738E+01  0.2450E+03
      7.598  0.1350E+02  0.2466E+03
      7.718  0.8514E+01  0.2476E+03
      7.837  0.7889E+01  0.2486E+03
      7.957  0.6670E+01  0.2494E+03
      8.077  0.7215E+01  0.2502E+03
      8.197  0.7793E+01  0.2512E+03
      8.317  0.6890E+01  0.2520E+03
      8.437  0.4458E+01  0.2525E+03
      8.557  0.4286E+01  0.2530E+03
      8.676  0.7117E+01  0.2539E+03
      8.796  0.4042E+01  0.2544E+03
      8.916  0.2492E+01  0.2547E+03
      9.036  0.2962E+01  0.2550E+03
      9.156  0.3243E+01  0.2554E+03
      9.276  0.3073E+01  0.2558E+03
      9.396  0.8733E+00  0.2559E+03
      9.515  0.8643E+00  0.2560E+03
      9.635  0.1100E+00  0.2560E+03
      9.755  0.2751E-03  0.2560E+03
      9.875  0.5580E-09  0.2560E+03
      9.995  0.0000E+00  0.2560E+03
     10.115  0.0000E+00  0.2560E+03
     10.235  0.0000E+00  0.2560E+03
     10.354  0.0000E+00  0.2560E+03
     10.474  0.0000E+00  0.2560E+03
     10.594  0.0000E+00  0.2560E+03
     10.714  0.0000E+00  0.2560E+03
     10.834  0.0000E+00  0.2560E+03
     10.954  0.0000E+00  0.2560E+03
     11.074  0.0000E+00  0.2560E+03
     11.193  0.0000E+00  0.2560E+03
     11.313  0.0000E+00  0.2560E+03
     11.433  0.0000E+00  0.2560E+03
     11.553  0.0000E+00  0.2560E+03
     11.673  0.0000E+00  0.2560E+03
     11.793  0.0000E+00  0.2560E+03
     11.913  0.0000E+00  0.2560E+03
     12.032  0.0000E+00  0.2560E+03
     12.152  0.0000E+00  0.2560E+03
     12.272  0.0000E+00  0.2560E+03
     12.392  0.0000E+00  0.2560E+03
     12.512  0.0000E+00  0.2560E+03
     12.632  0.0000E+00  0.2560E+03
     12.752  0.0000E+00  0.2560E+03
     12.871  0.0000E+00  0.2560E+03
     12.991  0.0000E+00  0.2560E+03
     13.111  0.0000E+00  0.2560E+03
     13.231  0.1492E-14  0.2560E+03
     13.351  0.1625E-06  0.2560E+03
     13.471  0.9133E-02  0.2560E+03
     13.591  0.6639E+00  0.2561E+03
     13.710  0.1004E+01  0.2562E+03
     13.830  0.1912E+01  0.2564E+03
     13.950  0.5395E+01  0.2571E+03
     14.070  0.5945E+01  0.2578E+03
     14.190  0.6822E+01  0.2586E+03
     14.310  0.3194E+01  0.2590E+03
     14.430  0.5127E+01  0.2596E+03
     14.549  0.8434E+01  0.2606E+03
     14.669  0.1131E+02  0.2620E+03
     14.789  0.1287E+02  0.2635E+03
     14.909  0.1502E+02  0.2653E+03
     15.029  0.1258E+02  0.2668E+03
     15.149  0.9091E+01  0.2679E+03
     15.269  0.1185E+02  0.2693E+03
     15.389  0.1536E+02  0.2712E+03
     15.508  0.1439E+02  0.2729E+03
     15.628  0.1472E+02  0.2747E+03
     15.748  0.2248E+02  0.2774E+03
     15.868  0.1908E+02  0.2796E+03
     15.988  0.1704E+02  0.2817E+03
     16.108  0.1629E+02  0.2836E+03
     16.228  0.2018E+02  0.2861E+03
     16.347  0.1940E+02  0.2884E+03
     16.467  0.2312E+02  0.2912E+03
     16.587  0.1890E+02  0.2934E+03
     16.707  0.1833E+02  0.2956E+03
     16.827  0.1863E+02  0.2978E+03
     16.947  0.2040E+02  0.3003E+03
     17.067  0.2465E+02  0.3032E+03
     17.186  0.3944E+02  0.3080E+03
     17.306  0.3561E+02  0.3122E+03
     17.426  0.3297E+02  0.3162E+03
     17.546  0.2497E+02  0.3192E+03
     17.666  0.2933E+02  0.3227E+03
     17.786  0.3158E+02  0.3265E+03
     17.906  0.3145E+02  0.3303E+03
     18.025  0.3190E+02  0.3341E+03
     18.145  0.3670E+02  0.3385E+03
     18.265  0.3118E+02  0.3422E+03
     18.385  0.3548E+02  0.3465E+03
     18.505  0.3384E+02  0.3505E+03
     18.625  0.3299E+02  0.3545E+03
     18.745  0.2800E+02  0.3578E+03
     18.864  0.1895E+02  0.3601E+03
     18.984  0.1965E+02  0.3625E+03
     19.104  0.2686E+02  0.3657E+03
     19.224  0.2860E+02  0.3691E+03
     19.344  0.2800E+02  0.3725E+03
     19.464  0.2555E+02  0.3755E+03
     19.584  0.2034E+02  0.3780E+03
     19.703  0.1754E+02  0.3801E+03
     19.823  0.7205E+01  0.3809E+03
     19.943  0.4123E+01  0.3814E+03
     20.063  0.6618E+01  0.3822E+03
     20.183  0.4771E+01  0.3828E+03
     20.303  0.2390E+01  0.3831E+03
     20.423  0.1896E+01  0.3833E+03
     20.542  0.1684E+01  0.3835E+03
     20.662  0.1565E+01  0.3837E+03
     20.782  0.4124E+00  0.3837E+03
     20.902  0.1396E+01  0.3839E+03
     21.022  0.7384E+00  0.3840E+03
     21.142  0.4877E-02  0.3840E+03
     21.262  0.1520E-06  0.3840E+03
     21.381  0.3662E-14  0.3840E+03
     21.501  0.0000E+00  0.3840E+03
     21.621  0.0000E+00  0.3840E+03
     21.741  0.0000E+00  0.3840E+03
     21.861  0.0000E+00  0.3840E+03
     21.981  0.0000E+00  0.3840E+03
     22.101  0.0000E+00  0.3840E+03
     22.220  0.0000E+00  0.3840E+03
     22.340  0.0000E+00  0.3840E+03
     22.460  0.0000E+00  0.3840E+03
     22.580  0.0000E+00  0.3840E+03
