  64   64
1 1
    42.762099932470001     0.955349294830000     0.965048537660000
     0.955349294830000    42.781200545330002     0.974749702250000
     0.965048537660000     0.974749702250000    42.800900627200001
1 2
    -0.161267613260000     0.000793927100000     0.000801974470000
     0.000793927100000    -0.092917936770000     0.000126836160000
     0.000801974470000     0.000126836160000    -0.092915414460000
1 3
    -0.092940637560000     0.001477232890000     0.000118788790000
     0.001477232890000    -0.161244792360000     0.000803175570000
     0.000118788790000     0.000803175570000    -0.092915414460000
1 4
    -0.113578298090000    -0.005687328610000    -0.001268481710000
    -0.005687328610000    -0.113692042260000    -0.001281213370000
    -0.001268481710000    -0.001281213370000     0.568213985800000
1 5
    -0.092940637560000     0.000103895150000     0.001478313880000
     0.000103895150000    -0.092938595690000     0.001493207520000
     0.001478313880000     0.001493207520000    -0.161221731240000
1 6
    -0.113578298090000    -0.001210949020000    -0.005699820050000
    -0.001210949020000     0.568170145650000     0.005606614690000
    -0.005699820050000     0.005606614690000    -0.113648442330000
1 7
     0.568126305500000     0.005606374470000     0.005663306610000
     0.005606374470000    -0.113534337830000    -0.005643488460000
     0.005663306610000    -0.005643488460000    -0.113648442330000
1 8
    -0.051826984560000     0.001448046160000     0.001462819690000
     0.001448046160000    -0.051797917940000     0.001477473110000
     0.001462819690000     0.001477473110000    -0.051768130660000
1 9
     0.160411709400000     0.100600292480000    -0.027577496220000
     0.100600292480000     0.073851074820000    -0.096194657680000
    -0.027577496220000    -0.096194657680000     0.145396758300000
1 10
    -0.077025221790000     0.092507641010000     0.208923057410000
     0.092507641010000    -0.070727974600000    -0.206102994720000
     0.208923057410000    -0.206102994720000    -0.339969673460000
1 11
    -8.735110131090000     1.684195872320000     1.701294852030000
     1.684195872320000    -8.652752625849999    -1.647277781730000
     1.701294852030000    -1.647277781730000    -8.686033905750000
1 12
     0.052598571200000     0.087358044870000     0.088244937110000
     0.087358044870000     0.156989295060000     0.016411710290000
     0.088244937110000     0.016411710290000     0.157320918770000
1 13
    -0.357695387150000     0.210178567240000     0.212312441500000
     0.210178567240000    -0.092665585660000    -0.110260859890000
     0.212312441500000    -0.110260859890000    -0.094893265830000
1 14
     0.033992811540000     0.030411131340000     0.030719814040000
     0.030411131340000     0.032633526670000    -0.032291333280000
     0.030719814040000    -0.032291333280000     0.031981089150000
1 15
     0.160411709400000    -0.028592305610000     0.100316712770000
    -0.028592305610000     0.147332571170000    -0.095452377880000
     0.100316712770000    -0.095452377880000     0.071915141840000
1 16
    -0.077025221790000     0.207977911820000     0.094613169310000
     0.207977911820000    -0.335778795340000    -0.208780366730000
     0.094613169310000    -0.208780366730000    -0.074918852720000
1 17
     1.359494702170000    -0.685208332400000     0.692414692180000
     0.699300598480000    -1.468775704680000     1.512940872340000
    -0.678179375090000     1.497599342150000    -1.438365173890000
1 18
     0.054042053180000    -0.037067507430000     0.039310801900000
     0.039683142900000    -0.082126894040000    -0.074110752640000
    -0.036668502010000    -0.072598807960000    -0.083608811220000
1 19
     1.383121059830000    -0.678205078630000    -0.685090504490000
     0.750260388840000    -1.509140832160000    -1.588632032360000
     0.757877404710000    -1.588632032360000    -1.541236025810000
1 20
     0.057349402140000    -0.034522016200000    -0.034872497180000
     0.038296352840000    -0.082778010350000     0.077425067980000
     0.038685148910000     0.077425067980000    -0.081213817820000
1 21
     1.383121059830000     0.750260388840000     0.757877404710000
    -0.678205078630000    -1.509140832160000    -1.588632032360000
    -0.685090504490000    -1.588632032360000    -1.541236025810000
1 22
     0.057349402140000     0.038296352840000     0.038685148910000
    -0.034522016200000    -0.082778010350000     0.077425067980000
    -0.034872497180000     0.077425067980000    -0.081213817820000
1 23
     1.359494702170000     0.699300598480000    -0.678179375090000
    -0.685208332400000    -1.468775704680000     1.497599342150000
     0.692414692180000     1.512940872340000    -1.438365173890000
1 24
     0.054042053180000     0.039683142900000    -0.036668502010000
    -0.037067507430000    -0.082126894040000    -0.072598807960000
     0.039310801900000    -0.074110752640000    -0.083608811220000
1 25
    -9.352702899320001    -2.473209632550000    -2.498318988380000
    -2.473209632550000    -9.402168040839999    -2.523428464320000
    -2.498318988380000    -2.523428464320000    -9.453150171659999
1 26
     0.066187936710000    -0.089010398140000    -0.089913985670000
    -0.089010398140000     0.155117380710000     0.020396599760000
    -0.089913985670000     0.020396599760000     0.155529478120000
1 27
     0.156888642880000    -0.088103327420000     0.021294782340000
    -0.088103327420000     0.064416794650000    -0.089705594820000
     0.021294782340000    -0.089705594820000     0.155529478120000
1 28
    -0.076063501020000    -0.109296857030000    -0.218641637950000
    -0.109296857030000    -0.078249503020000    -0.220839050400000
    -0.218641637950000    -0.220839050400000    -0.341967823420000
1 29
     0.156888642880000     0.022183596340000    -0.087883766340000
     0.022183596340000     0.157332329220000    -0.088766935170000
    -0.087883766340000    -0.088766935170000     0.062613943550000
1 30
    -0.076063501020000    -0.217526416600000    -0.111499794540000
    -0.217526416600000    -0.337479673050000    -0.223457688620000
    -0.111499794540000    -0.223457688620000    -0.082737653390000
1 31
    -0.333103345090000    -0.220097010820000    -0.222331537260000
    -0.220097010820000    -0.080439949090000    -0.113728795920000
    -0.222331537260000    -0.113728795920000    -0.082737653390000
1 32
     0.035530940200000    -0.030615318340000    -0.030926163020000
    -0.030615318340000     0.034918619420000    -0.031237007700000
    -0.030926163020000    -0.031237007700000     0.034287561480000
1 33
    -1.509572147170000     0.721331895340000    -1.581701685360000
    -0.707133331910000     1.383552134620000    -0.700942622290000
    -1.596131340430000     0.741953100800000    -1.541236025810000
1 34
    -1.468634215100000     0.671018056560000     1.505941221870000
    -0.713490874320000     1.359352612040000     0.707509276210000
     1.504306524770000    -0.663169468610000    -1.438365173890000
1 35
    -0.082801792130000     0.036894789250000     0.077769903790000
    -0.035923579790000     0.057373183920000    -0.034096586580000
     0.077034350150000     0.039457456210000    -0.081213817820000
1 36
    -0.082139385480000     0.038321335720000    -0.074500269370000
    -0.038429314610000     0.054054544620000     0.038567681330000
    -0.072228388720000    -0.037392645200000    -0.083608811220000
1 37
    -1.468634215100000    -0.713490874320000     1.504306524770000
     0.671018056560000     1.359352612040000    -0.663169468610000
     1.505941221870000     0.707509276210000    -1.438365173890000
1 38
    -1.509572147170000    -0.707133331910000    -1.596131340430000
     0.721331895340000     1.383552134620000     0.741953100800000
    -1.581701685360000    -0.700942622290000    -1.541236025810000
1 39
    -0.082139385480000    -0.038429314610000    -0.072228388720000
     0.038321335720000     0.054054544620000    -0.037392645200000
    -0.074500269370000     0.038567681330000    -0.083608811220000
1 40
    -0.082801792130000    -0.035923579790000     0.077034350150000
     0.036894789250000     0.057373183920000     0.039457456210000
     0.077769903790000    -0.034096586580000    -0.081213817820000
1 41
     0.147905736090000    -0.096155742040000    -0.029690111010000
    -0.096155742040000     0.069916991880000     0.098448762050000
    -0.029690111010000     0.098448762050000     0.161836694440000
1 42
    -0.096895499530000    -0.114522002360000     0.211640666270000
    -0.114522002360000    -0.099185997230000     0.213767694260000
     0.211640666270000     0.213767694260000    -0.349172741880000
1 43
    -8.686444321620000    -1.681139913590000     1.667786564230000
    -1.681139913590000    -8.720067074250000     1.684548034840000
     1.667786564230000     1.684548034840000    -8.667384906490000
1 44
     0.071847880240000    -0.096916398670000     0.098740749460000
    -0.096916398670000     0.145974967840000    -0.028704128020000
     0.098740749460000    -0.028704128020000     0.161836694440000
1 45
    -0.339912260880000    -0.211779633540000     0.203220114500000
    -0.211779633540000    -0.076787644210000     0.092481336920000
     0.203220114500000     0.092481336920000    -0.071022964760000
1 46
     0.032025409740000    -0.032902212740000     0.030060650360000
    -0.032902212740000     0.031367327050000     0.030362727010000
     0.030060650360000     0.030362727010000     0.035214570460000
1 47
     0.155231845540000     0.014634802950000     0.088536804410000
     0.014634802950000     0.155524553610000     0.089426579290000
     0.088536804410000     0.089426579290000     0.056152385880000
1 48
    -0.072578629480000    -0.209106225160000     0.090444511540000
    -0.209106225160000    -0.344121275610000     0.204134752150000
     0.090444511540000     0.204134752150000    -0.071022964760000
1 49
    -1.468634215100000     1.511436494590000    -0.698259605110000
     1.499086424060000    -1.438527322390000     0.679246672550000
     0.686195276270000    -0.691432192380000     1.359515240980000
1 50
    -1.509572147170000    -1.588907084260000    -0.723219784320000
    -1.588906964150000    -1.541351571630000    -0.730488361080000
     0.705318469810000     0.712407362010000     1.383668160880000
1 51
    -1.509572147170000    -1.588906964150000     0.705318469810000
    -1.588907084260000    -1.541351571630000     0.712407362010000
    -0.723219784320000    -0.730488361080000     1.383668160880000
1 52
    -1.468634215100000     1.499086424060000     0.686195276270000
     1.511436494590000    -1.438527322390000    -0.691432192380000
    -0.698259605110000     0.679246672550000     1.359515240980000
1 53
    -0.082139385480000    -0.071836589900000    -0.039156940990000
    -0.074883540380000    -0.083606649240000     0.037177047750000
     0.037566804700000    -0.038783278780000     0.054052382640000
1 54
    -0.082801792130000     0.077393238830000    -0.035143705560000
     0.077393238830000    -0.081253814450000    -0.035496828960000
     0.037678507000000     0.038057213830000     0.057413180550000
1 55
    -0.082801792130000     0.077393238830000     0.037678507000000
     0.077393238830000    -0.081253814450000     0.038057213830000
    -0.035143705560000    -0.035496828960000     0.057413180550000
1 56
    -0.082139385480000    -0.074883540380000     0.037566804700000
    -0.071836589900000    -0.083606649240000    -0.038783278780000
    -0.039156940990000     0.037177047750000     0.054052382640000
1 57
    -8.686444321620000     1.684682437930000    -1.664208006890000
     1.684682437930000    -8.701418074990000     1.684736487430000
    -1.664208006890000     1.684736487430000    -8.686033905750000
1 58
     0.071847880240000     0.099714601340000    -0.095914080720000
     0.099714601340000     0.162414903980000    -0.028538136000000
    -0.095914080720000    -0.028538136000000     0.145396758300000
1 59
     0.155231845540000     0.088384384820000     0.015528421350000
     0.088384384820000     0.054356020720000     0.088404683410000
     0.015528421350000     0.088404683410000     0.157320918770000
1 60
    -0.072578629480000     0.092552081710000    -0.208181978710000
     0.092552081710000    -0.075174446800000     0.206851520240000
    -0.208181978710000     0.206851520240000    -0.339969673460000
1 61
     0.147905736090000    -0.028717340120000    -0.096450732200000
    -0.028717340120000     0.159838544480000     0.099357153980000
    -0.096450732200000     0.099357153980000     0.071915141840000
1 62
    -0.096895499530000     0.212786635780000    -0.112378399190000
     0.212786635780000    -0.353465353170000     0.211199141910000
    -0.112378399190000     0.211199141910000    -0.094893265830000
1 63
    -0.339912260880000     0.205348944140000    -0.209716143740000
     0.205348944140000    -0.072891636140000     0.092520733000000
    -0.209716143740000     0.092520733000000    -0.074918852720000
1 64
     0.032025409740000     0.030391433300000    -0.032596893120000
     0.030391433300000     0.034600808360000     0.030395396930000
    -0.032596893120000     0.030395396930000     0.031981089150000
2 1
    -0.161267613260000     0.000793927100000     0.000801974470000
     0.000793927100000    -0.092917936770000     0.000126836160000
     0.000801974470000     0.000126836160000    -0.092915414460000
2 2
    42.762099932470001     0.955349294830000     0.965048537660000
     0.955349294830000    42.781200545330002     0.974749702250000
     0.965048537660000     0.974749702250000    42.800900627200001
2 3
    -0.113578298090000    -0.005687328610000    -0.001268481710000
    -0.005687328610000    -0.113692042260000    -0.001281213370000
    -0.001268481710000    -0.001281213370000     0.568213985800000
2 4
    -0.092940637560000     0.001477232890000     0.000118788790000
     0.001477232890000    -0.161244792360000     0.000803175570000
     0.000118788790000     0.000803175570000    -0.092915414460000
2 5
    -0.113578298090000    -0.001210949020000    -0.005699820050000
    -0.001210949020000     0.568170145650000     0.005606614690000
    -0.005699820050000     0.005606614690000    -0.113648442330000
2 6
    -0.092940637560000     0.000103895150000     0.001478313880000
     0.000103895150000    -0.092938595690000     0.001493207520000
     0.001478313880000     0.001493207520000    -0.161221731240000
2 7
    -0.051826984560000     0.001448046160000     0.001462819690000
     0.001448046160000    -0.051797917940000     0.001477473110000
     0.001462819690000     0.001477473110000    -0.051768130660000
2 8
     0.568126305500000     0.005606374470000     0.005663306610000
     0.005606374470000    -0.113534337830000    -0.005643488460000
     0.005663306610000    -0.005643488460000    -0.113648442330000
2 9
    -0.077025221790000     0.092507641010000     0.208923057410000
     0.092507641010000    -0.070727974600000    -0.206102994720000
     0.208923057410000    -0.206102994720000    -0.339969673460000
2 10
     0.160411709400000     0.100600292480000    -0.027577496220000
     0.100600292480000     0.073851074820000    -0.096194657680000
    -0.027577496220000    -0.096194657680000     0.145396758300000
2 11
     0.052598571200000     0.087358044870000     0.088244937110000
     0.087358044870000     0.156989295060000     0.016411710290000
     0.088244937110000     0.016411710290000     0.157320918770000
2 12
    -8.735110131090000     1.684195872320000     1.701294852030000
     1.684195872320000    -8.652752625849999    -1.647277781730000
     1.701294852030000    -1.647277781730000    -8.686033905750000
2 13
     0.033992811540000     0.030411131340000     0.030719814040000
     0.030411131340000     0.032633526670000    -0.032291333280000
     0.030719814040000    -0.032291333280000     0.031981089150000
2 14
    -0.357695387150000     0.210178567240000     0.212312441500000
     0.210178567240000    -0.092665585660000    -0.110260859890000
     0.212312441500000    -0.110260859890000    -0.094893265830000
2 15
    -0.077025221790000     0.207977911820000     0.094613169310000
     0.207977911820000    -0.335778795340000    -0.208780366730000
     0.094613169310000    -0.208780366730000    -0.074918852720000
2 16
     0.160411709400000    -0.028592305610000     0.100316712770000
    -0.028592305610000     0.147332571170000    -0.095452377880000
     0.100316712770000    -0.095452377880000     0.071915141840000
2 17
     0.054042053180000    -0.037067507430000     0.039310801900000
     0.039683142900000    -0.082126894040000    -0.074110752640000
    -0.036668502010000    -0.072598807960000    -0.083608811220000
2 18
     1.359494702170000    -0.685208332400000     0.692414692180000
     0.699300598480000    -1.468775704680000     1.512940872340000
    -0.678179375090000     1.497599342150000    -1.438365173890000
2 19
     0.057349402140000    -0.034522016200000    -0.034872497180000
     0.038296352840000    -0.082778010350000     0.077425067980000
     0.038685148910000     0.077425067980000    -0.081213817820000
2 20
     1.383121059830000    -0.678205078630000    -0.685090504490000
     0.750260388840000    -1.509140832160000    -1.588632032360000
     0.757877404710000    -1.588632032360000    -1.541236025810000
2 21
     0.057349402140000     0.038296352840000     0.038685148910000
    -0.034522016200000    -0.082778010350000     0.077425067980000
    -0.034872497180000     0.077425067980000    -0.081213817820000
2 22
     1.383121059830000     0.750260388840000     0.757877404710000
    -0.678205078630000    -1.509140832160000    -1.588632032360000
    -0.685090504490000    -1.588632032360000    -1.541236025810000
2 23
     0.054042053180000     0.039683142900000    -0.036668502010000
    -0.037067507430000    -0.082126894040000    -0.072598807960000
     0.039310801900000    -0.074110752640000    -0.083608811220000
2 24
     1.359494702170000     0.699300598480000    -0.678179375090000
    -0.685208332400000    -1.468775704680000     1.497599342150000
     0.692414692180000     1.512940872340000    -1.438365173890000
2 25
     0.066187936710000    -0.089010398140000    -0.089913985670000
    -0.089010398140000     0.155117380710000     0.020396599760000
    -0.089913985670000     0.020396599760000     0.155529478120000
2 26
    -9.352702899320001    -2.473209632550000    -2.498318988380000
    -2.473209632550000    -9.402168040839999    -2.523428464320000
    -2.498318988380000    -2.523428464320000    -9.453150171659999
2 27
    -0.076063501020000    -0.109296857030000    -0.218641637950000
    -0.109296857030000    -0.078249503020000    -0.220839050400000
    -0.218641637950000    -0.220839050400000    -0.341967823420000
2 28
     0.156888642880000    -0.088103327420000     0.021294782340000
    -0.088103327420000     0.064416794650000    -0.089705594820000
     0.021294782340000    -0.089705594820000     0.155529478120000
2 29
    -0.076063501020000    -0.217526416600000    -0.111499794540000
    -0.217526416600000    -0.337479673050000    -0.223457688620000
    -0.111499794540000    -0.223457688620000    -0.082737653390000
2 30
     0.156888642880000     0.022183596340000    -0.087883766340000
     0.022183596340000     0.157332329220000    -0.088766935170000
    -0.087883766340000    -0.088766935170000     0.062613943550000
2 31
     0.035530940200000    -0.030615318340000    -0.030926163020000
    -0.030615318340000     0.034918619420000    -0.031237007700000
    -0.030926163020000    -0.031237007700000     0.034287561480000
2 32
    -0.333103345090000    -0.220097010820000    -0.222331537260000
    -0.220097010820000    -0.080439949090000    -0.113728795920000
    -0.222331537260000    -0.113728795920000    -0.082737653390000
2 33
    -1.468634215100000     0.671018056560000     1.505941221870000
    -0.713490874320000     1.359352612040000     0.707509276210000
     1.504306524770000    -0.663169468610000    -1.438365173890000
2 34
    -1.509572147170000     0.721331895340000    -1.581701685360000
    -0.707133331910000     1.383552134620000    -0.700942622290000
    -1.596131340430000     0.741953100800000    -1.541236025810000
2 35
    -0.082139385480000     0.038321335720000    -0.074500269370000
    -0.038429314610000     0.054054544620000     0.038567681330000
    -0.072228388720000    -0.037392645200000    -0.083608811220000
2 36
    -0.082801792130000     0.036894789250000     0.077769903790000
    -0.035923579790000     0.057373183920000    -0.034096586580000
     0.077034350150000     0.039457456210000    -0.081213817820000
2 37
    -1.509572147170000    -0.707133331910000    -1.596131340430000
     0.721331895340000     1.383552134620000     0.741953100800000
    -1.581701685360000    -0.700942622290000    -1.541236025810000
2 38
    -1.468634215100000    -0.713490874320000     1.504306524770000
     0.671018056560000     1.359352612040000    -0.663169468610000
     1.505941221870000     0.707509276210000    -1.438365173890000
2 39
    -0.082801792130000    -0.035923579790000     0.077034350150000
     0.036894789250000     0.057373183920000     0.039457456210000
     0.077769903790000    -0.034096586580000    -0.081213817820000
2 40
    -0.082139385480000    -0.038429314610000    -0.072228388720000
     0.038321335720000     0.054054544620000    -0.037392645200000
    -0.074500269370000     0.038567681330000    -0.083608811220000
2 41
    -0.096895499530000    -0.114522002360000     0.211640666270000
    -0.114522002360000    -0.099185997230000     0.213767694260000
     0.211640666270000     0.213767694260000    -0.349172741880000
2 42
     0.147905736090000    -0.096155742040000    -0.029690111010000
    -0.096155742040000     0.069916991880000     0.098448762050000
    -0.029690111010000     0.098448762050000     0.161836694440000
2 43
     0.071847880240000    -0.096916398670000     0.098740749460000
    -0.096916398670000     0.145974967840000    -0.028704128020000
     0.098740749460000    -0.028704128020000     0.161836694440000
2 44
    -8.686444321620000    -1.681139913590000     1.667786564230000
    -1.681139913590000    -8.720067074250000     1.684548034840000
     1.667786564230000     1.684548034840000    -8.667384906490000
2 45
     0.032025409740000    -0.032902212740000     0.030060650360000
    -0.032902212740000     0.031367327050000     0.030362727010000
     0.030060650360000     0.030362727010000     0.035214570460000
2 46
    -0.339912260880000    -0.211779633540000     0.203220114500000
    -0.211779633540000    -0.076787644210000     0.092481336920000
     0.203220114500000     0.092481336920000    -0.071022964760000
2 47
    -0.072578629480000    -0.209106225160000     0.090444511540000
    -0.209106225160000    -0.344121275610000     0.204134752150000
     0.090444511540000     0.204134752150000    -0.071022964760000
2 48
     0.155231845540000     0.014634802950000     0.088536804410000
     0.014634802950000     0.155524553610000     0.089426579290000
     0.088536804410000     0.089426579290000     0.056152385880000
2 49
    -1.509572147170000    -1.588907084260000    -0.723219784320000
    -1.588906964150000    -1.541351571630000    -0.730488361080000
     0.705318469810000     0.712407362010000     1.383668160880000
2 50
    -1.468634215100000     1.511436494590000    -0.698259605110000
     1.499086424060000    -1.438527322390000     0.679246672550000
     0.686195276270000    -0.691432192380000     1.359515240980000
2 51
    -1.468634215100000     1.499086424060000     0.686195276270000
     1.511436494590000    -1.438527322390000    -0.691432192380000
    -0.698259605110000     0.679246672550000     1.359515240980000
2 52
    -1.509572147170000    -1.588906964150000     0.705318469810000
    -1.588907084260000    -1.541351571630000     0.712407362010000
    -0.723219784320000    -0.730488361080000     1.383668160880000
2 53
    -0.082801792130000     0.077393238830000    -0.035143705560000
     0.077393238830000    -0.081253814450000    -0.035496828960000
     0.037678507000000     0.038057213830000     0.057413180550000
2 54
    -0.082139385480000    -0.071836589900000    -0.039156940990000
    -0.074883540380000    -0.083606649240000     0.037177047750000
     0.037566804700000    -0.038783278780000     0.054052382640000
2 55
    -0.082139385480000    -0.074883540380000     0.037566804700000
    -0.071836589900000    -0.083606649240000    -0.038783278780000
    -0.039156940990000     0.037177047750000     0.054052382640000
2 56
    -0.082801792130000     0.077393238830000     0.037678507000000
     0.077393238830000    -0.081253814450000     0.038057213830000
    -0.035143705560000    -0.035496828960000     0.057413180550000
2 57
     0.071847880240000     0.099714601340000    -0.095914080720000
     0.099714601340000     0.162414903980000    -0.028538136000000
    -0.095914080720000    -0.028538136000000     0.145396758300000
2 58
    -8.686444321620000     1.684682437930000    -1.664208006890000
     1.684682437930000    -8.701418074990000     1.684736487430000
    -1.664208006890000     1.684736487430000    -8.686033905750000
2 59
    -0.072578629480000     0.092552081710000    -0.208181978710000
     0.092552081710000    -0.075174446800000     0.206851520240000
    -0.208181978710000     0.206851520240000    -0.339969673460000
2 60
     0.155231845540000     0.088384384820000     0.015528421350000
     0.088384384820000     0.054356020720000     0.088404683410000
     0.015528421350000     0.088404683410000     0.157320918770000
2 61
    -0.096895499530000     0.212786635780000    -0.112378399190000
     0.212786635780000    -0.353465353170000     0.211199141910000
    -0.112378399190000     0.211199141910000    -0.094893265830000
2 62
     0.147905736090000    -0.028717340120000    -0.096450732200000
    -0.028717340120000     0.159838544480000     0.099357153980000
    -0.096450732200000     0.099357153980000     0.071915141840000
2 63
     0.032025409740000     0.030391433300000    -0.032596893120000
     0.030391433300000     0.034600808360000     0.030395396930000
    -0.032596893120000     0.030395396930000     0.031981089150000
2 64
    -0.339912260880000     0.205348944140000    -0.209716143740000
     0.205348944140000    -0.072891636140000     0.092520733000000
    -0.209716143740000     0.092520733000000    -0.074918852720000
3 1
    -0.092940637560000     0.001477232890000     0.000118788790000
     0.001477232890000    -0.161244792360000     0.000803175570000
     0.000118788790000     0.000803175570000    -0.092915414460000
3 2
    -0.113578298090000    -0.005687328610000    -0.001268481710000
    -0.005687328610000    -0.113692042260000    -0.001281213370000
    -0.001268481710000    -0.001281213370000     0.568213985800000
3 3
    42.762099932470001     0.955349294830000     0.965048537660000
     0.955349294830000    42.781200545330002     0.974749702250000
     0.965048537660000     0.974749702250000    42.800900627200001
3 4
    -0.161267613260000     0.000793927100000     0.000801974470000
     0.000793927100000    -0.092917936770000     0.000126836160000
     0.000801974470000     0.000126836160000    -0.092915414460000
3 5
     0.568126305500000     0.005606374470000     0.005663306610000
     0.005606374470000    -0.113534337830000    -0.005643488460000
     0.005663306610000    -0.005643488460000    -0.113648442330000
3 6
    -0.051826984560000     0.001448046160000     0.001462819690000
     0.001448046160000    -0.051797917940000     0.001477473110000
     0.001462819690000     0.001477473110000    -0.051768130660000
3 7
    -0.092940637560000     0.000103895150000     0.001478313880000
     0.000103895150000    -0.092938595690000     0.001493207520000
     0.001478313880000     0.001493207520000    -0.161221731240000
3 8
    -0.113578298090000    -0.001210949020000    -0.005699820050000
    -0.001210949020000     0.568170145650000     0.005606614690000
    -0.005699820050000     0.005606614690000    -0.113648442330000
3 9
    -8.735110131090000     1.684195872320000     1.701294852030000
     1.684195872320000    -8.652752625849999    -1.647277781730000
     1.701294852030000    -1.647277781730000    -8.686033905750000
3 10
     0.052598571200000     0.087358044870000     0.088244937110000
     0.087358044870000     0.156989295060000     0.016411710290000
     0.088244937110000     0.016411710290000     0.157320918770000
3 11
     0.160411709400000     0.100600292480000    -0.027577496220000
     0.100600292480000     0.073851074820000    -0.096194657680000
    -0.027577496220000    -0.096194657680000     0.145396758300000
3 12
    -0.077025221790000     0.092507641010000     0.208923057410000
     0.092507641010000    -0.070727974600000    -0.206102994720000
     0.208923057410000    -0.206102994720000    -0.339969673460000
3 13
     0.160411709400000    -0.028592305610000     0.100316712770000
    -0.028592305610000     0.147332571170000    -0.095452377880000
     0.100316712770000    -0.095452377880000     0.071915141840000
3 14
    -0.077025221790000     0.207977911820000     0.094613169310000
     0.207977911820000    -0.335778795340000    -0.208780366730000
     0.094613169310000    -0.208780366730000    -0.074918852720000
3 15
    -0.357695387150000     0.210178567240000     0.212312441500000
     0.210178567240000    -0.092665585660000    -0.110260859890000
     0.212312441500000    -0.110260859890000    -0.094893265830000
3 16
     0.033992811540000     0.030411131340000     0.030719814040000
     0.030411131340000     0.032633526670000    -0.032291333280000
     0.030719814040000    -0.032291333280000     0.031981089150000
3 17
     1.383121059830000    -0.678205078630000    -0.685090504490000
     0.750260388840000    -1.509140832160000    -1.588632032360000
     0.757877404710000    -1.588632032360000    -1.541236025810000
3 18
     0.057349402140000    -0.034522016200000    -0.034872497180000
     0.038296352840000    -0.082778010350000     0.077425067980000