Automatically generated mesh
      32
Reciprocal lattice
    0.00000000000000    0.00000000000000    0.00000000000000             1
    0.16666666666667   -0.00000000000000   -0.00000000000000             6
    0.33333333333333   -0.00000000000000    0.00000000000000             6
    0.50000000000000   -0.00000000000000   -0.00000000000000             3
    0.16666666666667    0.16666666666667    0.00000000000000             6
    0.33333333333333    0.16666666666667   -0.00000000000000            12
    0.50000000000000    0.16666666666667    0.00000000000000            12
   -0.33333333333333    0.16666666666667    0.00000000000000            12
   -0.16666666666667    0.16666666666667   -0.00000000000000             6
    0.33333333333333    0.33333333333333   -0.00000000000000             6
    0.50000000000000    0.33333333333333    0.00000000000000            12
   -0.33333333333333    0.33333333333333    0.00000000000000             6
    0.50000000000000    0.50000000000000    0.00000000000000             3
    0.16666666666667    0.16666666666667    0.16666666666667             2
    0.33333333333333    0.16666666666667    0.16666666666667             6
    0.50000000000000    0.16666666666667    0.16666666666667             6
   -0.33333333333333    0.16666666666667    0.16666666666667             6
   -0.16666666666667    0.16666666666667    0.16666666666667             6
    0.33333333333333    0.33333333333333    0.16666666666667             6
    0.50000000000000    0.33333333333333    0.16666666666667            12
   -0.33333333333333    0.33333333333333    0.16666666666667            12
   -0.16666666666667    0.33333333333333    0.16666666666667            12
    0.50000000000000    0.50000000000000    0.16666666666667             6
   -0.33333333333333    0.50000000000000    0.16666666666667            12
   -0.16666666666667    0.50000000000000    0.16666666666667             6
   -0.33333333333333   -0.33333333333333    0.16666666666667             6
    0.33333333333333    0.33333333333333    0.33333333333333             2
    0.50000000000000    0.33333333333333    0.33333333333333             6
   -0.33333333333333    0.33333333333333    0.33333333333333             6
    0.50000000000000    0.50000000000000    0.33333333333333             6
   -0.33333333333333    0.50000000000000    0.33333333333333             6
    0.50000000000000    0.50000000000000    0.50000000000000             1
