       N       E                     dE             d eps       ncg     rms          rms(c)
DAV:   1     0.502680267397E+03    0.50268E+03   -0.11354E+05 12288   0.106E+03
DAV:   2    -0.558839509407E+03   -0.10615E+04   -0.10120E+04 16288   0.230E+02
DAV:   3    -0.600357193533E+03   -0.41518E+02   -0.41269E+02 16256   0.426E+01
DAV:   4    -0.600814567580E+03   -0.45737E+00   -0.45647E+00 16192   0.494E+00
DAV:   5    -0.600824415334E+03   -0.98478E-02   -0.98437E-02 15360   0.670E-01    0.263E+01
DAV:   6    -0.586487302556E+03    0.14337E+02   -0.95182E+00 14496   0.618E+00    0.144E+01
DAV:   7    -0.581644324392E+03    0.48430E+01   -0.10928E+01 15104   0.682E+00    0.195E+00
DAV:   8    -0.581703422859E+03   -0.59098E-01   -0.25144E-01 15424   0.100E+00    0.213E-01
DAV:   9    -0.581705578579E+03   -0.21557E-02   -0.36939E-03 15840   0.146E-01    0.804E-02
DAV:  10    -0.581706040345E+03   -0.46177E-03   -0.40580E-04 14816   0.531E-02    0.817E-03
DAV:  11    -0.581706046616E+03   -0.62711E-05   -0.11721E-05 16224   0.808E-03    0.225E-03
DAV:  12    -0.581706046712E+03   -0.96379E-07   -0.40679E-07 15840   0.155E-03    0.296E-04
DAV:  13    -0.581706046798E+03   -0.85731E-07   -0.76994E-09 11872   0.226E-04    0.101E-04
DAV:  14    -0.581706046815E+03   -0.16422E-07   -0.16235E-09 10688   0.112E-04    0.607E-05
DAV:  15    -0.581706046820E+03   -0.54788E-08   -0.30256E-10  9440   0.415E-05
   1 F= -.58170605E+03 E0= -.58170605E+03  d E =-.145891E-12
 Linear response reoptimize wavefunctions
DAV:   1    -0.581706046820E+03   -0.16371E-09   -0.57201E-11  9216   0.180E-05
DAV:   2    -0.581706046820E+03    0.10550E-09   -0.12433E-11  9216   0.897E-06
DAV:   3    -0.581706046820E+03    0.30923E-10   -0.50992E-12  9216   0.447E-06
 Linear response DOF=           1
 Linear response progress:
  Degree of freedom:   1/  1
       N       E                     dE             d eps       ncg     rms          rms(c)
RMM:   1    -0.144991818112E+00   -0.14499E+00    0.37593E-03 73250   0.735E-01
RMM:   2    -0.123446423671E+00    0.21545E-01   -0.71830E-03 44281   0.191E-01    0.177E-01
RMM:   3    -0.123306992877E+00    0.13943E-03   -0.87637E-04 46681   0.498E-02    0.899E-02
RMM:   4    -0.123564515722E+00   -0.25752E-03   -0.23910E-04 46878   0.271E-02    0.274E-02
RMM:   5    -0.123645902610E+00   -0.81387E-04   -0.15981E-05 47472   0.765E-03    0.653E-03
RMM:   6    -0.123628829252E+00    0.17073E-04   -0.12288E-06 48129   0.198E-03    0.136E-03
RMM:   7    -0.123620479755E+00    0.83495E-05   -0.16175E-06 49239   0.632E-04    0.381E-04
RMM:   8    -0.123619873879E+00    0.60588E-06   -0.10014E-06 50880   0.278E-04    0.856E-05
RMM:   9    -0.123619652279E+00    0.22160E-06   -0.93218E-07 53729   0.175E-04    0.374E-05
RMM:  10    -0.123619714028E+00   -0.61749E-07   -0.85037E-07 56087   0.165E-04    0.112E-05
RMM:  11    -0.123619705045E+00    0.89834E-08   -0.71780E-07 56891   0.161E-04    0.432E-06
 Linear response finished
