 vasp.5.4.4.18Apr17-6-g9f103f2a35 (build Mar 12 2022 03:36:41) complex          
  
 executed on IFC19.0.3.199_CrayMP date 2022.12.02  02:07:43
 running on   32 total cores
 distrk:  each k-point on   32 cores,    1 groups
 distr:  one band on NCORES_PER_BAND=   1 cores,   32 groups


--------------------------------------------------------------------------------------------------------


 INCAR:
 POTCAR:   PAW_PBE C 08Apr2002                    

 ----------------------------------------------------------------------------- 
|                                                                             |
|           W    W    AA    RRRRR   N    N  II  N    N   GGGG   !!!           |
|           W    W   A  A   R    R  NN   N  II  NN   N  G    G  !!!           |
|           W    W  A    A  R    R  N N  N  II  N N  N  G       !!!           |
|           W WW W  AAAAAA  RRRRR   N  N N  II  N  N N  G  GGG   !            |
|           WW  WW  A    A  R   R   N   NN  II  N   NN  G    G                |
|           W    W  A    A  R    R  N    N  II  N    N   GGGG   !!!           |
|                                                                             |
|      For optimal performance we recommend to set                            |
|        NCORE= 4 - approx SQRT( number of cores)                             |
|      NCORE specifies how many cores store one orbital (NPAR=cpu/NCORE).     |
|      This setting can  greatly improve the performance of VASP for DFT.     |
|      The default,   NCORE=1            might be grossly inefficient         |
|      on modern multi-core architectures or massively parallel machines.     |
|      Do your own testing !!!!                                               |
|      Unfortunately you need to use the default for GW and RPA calculations. |
|      (for HF NCORE is supported but not extensively tested yet)             |
|                                                                             |
 ----------------------------------------------------------------------------- 

 POTCAR:   PAW_PBE C 08Apr2002                    
   VRHFIN =C: s2p2                                                              
   LEXCH  = PE                                                                  
   EATOM  =   147.1560 eV,   10.8157 Ry                                         
                                                                                
   TITEL  = PAW_PBE C 08Apr2002                                                 
   LULTRA =        F    use ultrasoft PP ?                                      
   IUNSCR =        0    unscreen: 0-lin 1-nonlin 2-no                           
   RPACOR =     .000    partial core radius                                     
   POMASS =   12.011; ZVAL   =    4.000    mass and valenz                      
   RCORE  =    1.500    outmost cutoff radius                                   
   RWIGS  =    1.630; RWIGS  =     .863    wigner-seitz radius (au A)           
   ENMAX  =  400.000; ENMIN  =  300.000 eV                                      
   ICORE  =        2    local potential                                         
   LCOR   =        T    correct aug charges                                     
   LPAW   =        T    paw PP                                                  
   EAUG   =  644.873                                                            
   DEXC   =     .000                                                            
   RMAX   =    2.266    core radius for proj-oper                               
   RAUG   =    1.300    factor for augmentation sphere                          
   RDEP   =    1.501    radius for radial grids                                 
   RDEPT  =    1.300    core radius for aug-charge                              
   QCUT   =   -5.516; QGAM   =   11.032    optimization parameters              
                                                                                
   Description                                                                  
     l     E      TYP  RCUT    TYP  RCUT                                        
     0   .000     23  1.200                                                     
     0   .000     23  1.200                                                     
     1   .000     23  1.500                                                     
     1  2.500     23  1.500                                                     
     2   .000      7  1.500                                                     
  local pseudopotential read in
  atomic valenz-charges read in
  non local Contribution for L=           0  read in
    real space projection operators read in
  non local Contribution for L=           0  read in
    real space projection operators read in
  non local Contribution for L=           1  read in
    real space projection operators read in
  non local Contribution for L=           1  read in
    real space projection operators read in
    PAW grid and wavefunctions read in
 
   number of l-projection  operators is LMAX  =           4
   number of lm-projection operators is LMMAX =           8
 

 ----------------------------------------------------------------------------- 
|                                                                             |
|  ADVICE TO THIS USER RUNNING 'VASP/VAMP'   (HEAR YOUR MASTER'S VOICE ...):  |
|                                                                             |
|      You have a (more or less) 'large supercell' and for larger cells       |
|      it might be more efficient to use real space projection operators      |
|      So try LREAL= Auto  in the INCAR   file.                               |
|      Mind: If you want to do a very accurate calculations keep the          |
|      reciprocal projection scheme          (i.e. LREAL=.FALSE.)             |
|                                                                             |
 ----------------------------------------------------------------------------- 

 PAW_PBE C 08Apr2002                    :
 energy of atom  1       EATOM= -147.1560
 kinetic energy error for atom=    0.0288 (will be added to EATOM!!)
 
 
 POSCAR: generated by phonopy                    
  positions in direct lattice
  No initial velocities read in
 exchange correlation table for  LEXCH =        8
   RHO(1)=    0.500       N(1)  =     2000
   RHO(2)=  100.500       N(2)  =     4000
 


--------------------------------------------------------------------------------------------------------


 ion  position               nearest neighbor table
   1  0.125  0.375  0.125-  25 1.54  43 1.56  57 1.56  11 1.56
   2  0.625  0.375  0.125-  26 1.54  44 1.56  58 1.56  12 1.56
   3  0.125  0.875  0.125-  27 1.54  41 1.56  59 1.56   9 1.56
   4  0.625  0.875  0.125-  28 1.54  42 1.56  60 1.56  10 1.56
   5  0.125  0.375  0.625-  29 1.54  47 1.56  61 1.56  15 1.56
   6  0.625  0.375  0.625-  30 1.54  48 1.56  62 1.56  16 1.56
   7  0.125  0.875  0.625-  31 1.54  45 1.56  63 1.56  13 1.56
   8  0.625  0.875  0.625-  32 1.54  46 1.56  64 1.56  14 1.56
   9  0.000  0.000  0.250-  17 1.54  36 1.56  50 1.56   3 1.56
  10  0.500  0.000  0.250-  18 1.54  35 1.56  49 1.56   4 1.56
  11  0.000  0.500  0.250-  19 1.54  34 1.56  52 1.56   1 1.56
  12  0.500  0.500  0.250-  20 1.54  33 1.56  51 1.56   2 1.56
  13  0.000  0.000  0.750-  21 1.54  40 1.56  54 1.56   7 1.56
  14  0.500  0.000  0.750-  22 1.54  39 1.56  53 1.56   8 1.56
  15  0.000  0.500  0.750-  23 1.54  38 1.56  56 1.56   5 1.56
  16  0.500  0.500  0.750-  24 1.54  37 1.56  55 1.56   6 1.56
  17  0.125  0.125  0.375-   9 1.54  45 1.56  57 1.56  29 1.56
  18  0.625  0.125  0.375-  10 1.54  46 1.56  58 1.56  30 1.56
  19  0.125  0.625  0.375-  11 1.54  47 1.56  59 1.56  31 1.56
  20  0.625  0.625  0.375-  12 1.54  48 1.56  60 1.56  32 1.56
  21  0.125  0.125  0.875-  13 1.54  41 1.56  61 1.56  25 1.56
  22  0.625  0.125  0.875-  14 1.54  42 1.56  62 1.56  26 1.56
  23  0.125  0.625  0.875-  15 1.54  43 1.56  63 1.56  27 1.56
  24  0.625  0.625  0.875-  16 1.54  44 1.56  64 1.56  28 1.56
  25  0.000  0.250  0.000-   1 1.54  38 1.56  50 1.56  21 1.56
  26  0.500  0.250  0.000-   2 1.54  37 1.56  49 1.56  22 1.56
  27  0.000  0.750  0.000-   3 1.54  40 1.56  52 1.56  23 1.56
  28  0.500  0.750  0.000-   4 1.54  39 1.56  51 1.56  24 1.56
  29  0.000  0.250  0.500-   5 1.54  34 1.56  54 1.56  17 1.56
  30  0.500  0.250  0.500-   6 1.54  33 1.56  53 1.56  18 1.56
  31  0.000  0.750  0.500-   7 1.54  36 1.56  56 1.56  19 1.56
  32  0.500  0.750  0.500-   8 1.54  35 1.56  55 1.56  20 1.56
  33  0.375  0.375  0.375-  57 1.54  30 1.56  12 1.56  47 1.56
  34  0.875  0.375  0.375-  58 1.54  29 1.56  11 1.56  48 1.56
  35  0.375  0.875  0.375-  59 1.54  32 1.56  10 1.56  45 1.56
  36  0.875  0.875  0.375-  60 1.54  31 1.56   9 1.56  46 1.56
  37  0.375  0.375  0.875-  61 1.54  26 1.56  16 1.56  43 1.56
  38  0.875  0.375  0.875-  62 1.54  25 1.56  15 1.56  44 1.56
  39  0.375  0.875  0.875-  63 1.54  28 1.56  14 1.56  41 1.56
  40  0.875  0.875  0.875-  64 1.54  27 1.56  13 1.56  42 1.56
  41  0.250  0.000  0.000-  49 1.54  21 1.56   3 1.56  39 1.56
  42  0.750  0.000  0.000-  50 1.54  22 1.56   4 1.56  40 1.56
  43  0.250  0.500  0.000-  51 1.54  23 1.56   1 1.56  37 1.56
  44  0.750  0.500  0.000-  52 1.54  24 1.56   2 1.56  38 1.56
  45  0.250  0.000  0.500-  53 1.54  17 1.56   7 1.56  35 1.56
  46  0.750  0.000  0.500-  54 1.54  18 1.56   8 1.56  36 1.56
  47  0.250  0.500  0.500-  55 1.54  19 1.56   5 1.56  33 1.56
  48  0.750  0.500  0.500-  56 1.54  20 1.56   6 1.56  34 1.56
  49  0.375  0.125  0.125-  41 1.54  26 1.56  10 1.56  57 1.56
  50  0.875  0.125  0.125-  42 1.54  25 1.56   9 1.56  58 1.56
  51  0.375  0.625  0.125-  43 1.54  28 1.56  12 1.56  59 1.56
  52  0.875  0.625  0.125-  44 1.54  27 1.56  11 1.56  60 1.56
  53  0.375  0.125  0.625-  45 1.54  30 1.56  14 1.56  61 1.56
  54  0.875  0.125  0.625-  46 1.54  29 1.56  13 1.56  62 1.56
  55  0.375  0.625  0.625-  47 1.54  32 1.56  16 1.56  63 1.56
  56  0.875  0.625  0.625-  48 1.54  31 1.56  15 1.56  64 1.56
  57  0.250  0.250  0.250-  33 1.54  17 1.56   1 1.56  49 1.56
  58  0.750  0.250  0.250-  34 1.54  18 1.56   2 1.56  50 1.56
  59  0.250  0.750  0.250-  35 1.54  19 1.56   3 1.56  51 1.56
  60  0.750  0.750  0.250-  36 1.54  20 1.56   4 1.56  52 1.56
  61  0.250  0.250  0.750-  37 1.54  21 1.56   5 1.56  53 1.56
  62  0.750  0.250  0.750-  38 1.54  22 1.56   6 1.56  54 1.56
  63  0.250  0.750  0.750-  39 1.54  23 1.56   7 1.56  55 1.56
  64  0.750  0.750  0.750-  40 1.54  24 1.56   8 1.56  56 1.56
 
  LATTYP: Found a trigonal (rhomboedric) cell.
 ALAT       =     7.1799980931
 COS(alpha) =    -0.0099999729
  
  Lattice vectors:
  
 A1 = (   7.1799987179,   0.0000000000,   0.0000000000)
 A2 = (  -0.0717997863,   7.1796390861,   0.0000000000)
 A3 = (  -0.0717997863,  -0.0725210590,   7.1792734270)


Analysis of symmetry for initial positions (statically):
=====================================================================
 Subroutine PRICEL returns following result:
 
  LATTYP: Found a trigonal (rhomboedric) cell.
 ALAT       =     2.5257884218
 COS(alpha) =     0.4898990521
  
  Lattice vectors:
  
 A1 = (  -0.0358998931,   1.7767795068,   1.7948183567)
 A2 = (   1.7770497329,  -0.0181302647,   1.7948183567)
 A3 = (   1.7770497329,   1.7949097715,   0.0000000000)
 
  32 primitive cells build up your supercell.
 

 Routine SETGRP: Setting up the symmetry group for a 
 trigonal (rhombohedral) supercell.


 Subroutine GETGRP returns: Found 12 space group operations
 (whereof  6 operations were pure point group operations)
 out of a pool of 12 trial point group operations.


The static configuration has the point symmetry C_3v.
 The point group associated with its full space group is D_3d.


Analysis of symmetry for dynamics (positions and initial velocities):
=====================================================================
 Subroutine PRICEL returns following result:
 
  LATTYP: Found a trigonal (rhomboedric) cell.
 ALAT       =     2.5257884218
 COS(alpha) =     0.4898990521
  
  Lattice vectors:
  
 A1 = (  -0.0358998931,   1.7767795068,   1.7948183567)
 A2 = (   1.7770497329,  -0.0181302647,   1.7948183567)
 A3 = (   1.7770497329,   1.7949097715,   0.0000000000)
 
  32 primitive cells build up your supercell.
 

 Routine SETGRP: Setting up the symmetry group for a 
 trigonal (rhombohedral) supercell.


 Subroutine GETGRP returns: Found 12 space group operations
 (whereof  6 operations were pure point group operations)
 out of a pool of 12 trial point group operations.


The dynamic configuration has the point symmetry C_3v.
 The point group associated with its full space group is D_3d.


 Subroutine INISYM returns: Found 12 space group operations
 (whereof  6 operations are pure point group operations),
 and found    32 'primitive' translations

 
 
 KPOINTS: kpt_density=3000                        

Automatic generation of k-mesh.
Space group operators:
 irot       det(A)        alpha          n_x          n_y          n_z        tau_x        tau_y        tau_z
    1     1.000000     0.000000     1.000000     0.000000     0.000000     0.000000     0.000000     0.000000
    2    -1.000000   180.000000     0.000000    -0.710669     0.703526     0.000000     0.000000     0.000000
    3     1.000000   120.000000    -0.571548    -0.577292    -0.583153     0.000000     0.000000     0.000000
    4    -1.000000   180.000000    -0.710633     0.703562    -0.000000     0.000000     0.000000     0.000000
    5     1.000000   120.000000     0.571548     0.577292     0.583153     0.000000     0.000000     0.000000
    6    -1.000000   180.000000     0.710634     0.007107    -0.703526     0.000000     0.000000     0.000000
    7    -1.000000     0.000000     1.000000     0.000000     0.000000     0.125000     0.125000     0.125000
    8     1.000000   180.000000     0.000000    -0.710669     0.703526     0.125000     0.125000     0.125000
    9    -1.000000   120.000000    -0.571548    -0.577292    -0.583153     0.125000     0.125000     0.125000
   10     1.000000   180.000000    -0.710633     0.703562    -0.000000     0.125000     0.125000     0.125000
   11    -1.000000   120.000000     0.571548     0.577292     0.583153     0.125000     0.125000     0.125000
   12     1.000000   180.000000     0.710634     0.007107    -0.703526     0.125000     0.125000     0.125000
 
 Subroutine IBZKPT returns following result:
 ===========================================
 
 Found     32 irreducible k-points:
 
 Following reciprocal coordinates:
            Coordinates               Weight
  0.000000  0.000000  0.000000      1.000000
  0.166667 -0.000000 -0.000000      6.000000
  0.333333 -0.000000  0.000000      6.000000
  0.500000 -0.000000 -0.000000      3.000000
  0.166667  0.166667  0.000000      6.000000
  0.333333  0.166667 -0.000000     12.000000
  0.500000  0.166667  0.000000     12.000000
 -0.333333  0.166667  0.000000     12.000000
 -0.166667  0.166667 -0.000000      6.000000
  0.333333  0.333333 -0.000000      6.000000
  0.500000  0.333333  0.000000     12.000000
 -0.333333  0.333333  0.000000      6.000000
  0.500000  0.500000  0.000000      3.000000
  0.166667  0.166667  0.166667      2.000000
  0.333333  0.166667  0.166667      6.000000
  0.500000  0.166667  0.166667      6.000000
 -0.333333  0.166667  0.166667      6.000000
 -0.166667  0.166667  0.166667      6.000000
  0.333333  0.333333  0.166667      6.000000
  0.500000  0.333333  0.166667     12.000000
 -0.333333  0.333333  0.166667     12.000000
 -0.166667  0.333333  0.166667     12.000000
  0.500000  0.500000  0.166667      6.000000
 -0.333333  0.500000  0.166667     12.000000
 -0.166667  0.500000  0.166667      6.000000
 -0.333333 -0.333333  0.166667      6.000000
  0.333333  0.333333  0.333333      2.000000
  0.500000  0.333333  0.333333      6.000000
 -0.333333  0.333333  0.333333      6.000000
  0.500000  0.500000  0.333333      6.000000
 -0.333333  0.500000  0.333333      6.000000
  0.500000  0.500000  0.500000      1.000000
 
 Following cartesian coordinates:
            Coordinates               Weight
  0.000000  0.000000  0.000000      1.000000
  0.023213  0.000232  0.000234      6.000000
  0.046425  0.000464  0.000469      6.000000
  0.069638  0.000696  0.000703      3.000000
  0.023213  0.023446  0.000469      6.000000
  0.046425  0.023678  0.000703     12.000000
  0.069638  0.023910  0.000938     12.000000
 -0.046425  0.022750 -0.000234     12.000000
 -0.023213  0.022982 -0.000000      6.000000
  0.046425  0.046892  0.000938      6.000000
  0.069638  0.047124  0.001172     12.000000
 -0.046425  0.045963 -0.000000      6.000000
  0.069638  0.070338  0.001407      3.000000
  0.023213  0.023446  0.023684      2.000000
  0.046425  0.023678  0.023918      6.000000
  0.069638  0.023910  0.024153      6.000000
 -0.046425  0.022750  0.022980      6.000000
 -0.023213  0.022982  0.023215      6.000000
  0.046425  0.046892  0.024153      6.000000
  0.069638  0.047124  0.024387     12.000000
 -0.046425  0.045963  0.023215     12.000000
 -0.023213  0.046195  0.023449     12.000000
  0.069638  0.070338  0.024622      6.000000
 -0.046425  0.069177  0.023449     12.000000
 -0.023213  0.069409  0.023684      6.000000
 -0.046425 -0.046892  0.022277      6.000000
  0.046425  0.046892  0.047368      2.000000
  0.069638  0.047124  0.047602      6.000000
 -0.046425  0.045963  0.046430      6.000000
  0.069638  0.070338  0.047837      6.000000
 -0.046425  0.069177  0.046664      6.000000
  0.069638  0.070338  0.071052      1.000000
 
 
 Subroutine IBZKPT_HF returns following result:
 ==============================================
 
 Found    216 k-points in 1st BZ
 the following    216 k-points will be used (e.g. in the exchange kernel)
 Following reciprocal coordinates:   # in IRBZ
  0.000000  0.000000  0.000000    0.00462963   1 t-inv F
  0.166667 -0.000000 -0.000000    0.00462963   2 t-inv F
  0.333333 -0.000000  0.000000    0.00462963   3 t-inv F
  0.500000 -0.000000 -0.000000    0.00462963   4 t-inv F
  0.166667  0.166667  0.000000    0.00462963   5 t-inv F
  0.333333  0.166667 -0.000000    0.00462963   6 t-inv F
  0.500000  0.166667  0.000000    0.00462963   7 t-inv F
 -0.333333  0.166667  0.000000    0.00462963   8 t-inv F
 -0.166667  0.166667 -0.000000    0.00462963   9 t-inv F
  0.333333  0.333333 -0.000000    0.00462963  10 t-inv F
  0.500000  0.333333  0.000000    0.00462963  11 t-inv F
 -0.333333  0.333333  0.000000    0.00462963  12 t-inv F
  0.500000  0.500000  0.000000    0.00462963  13 t-inv F
  0.166667  0.166667  0.166667    0.00462963  14 t-inv F
  0.333333  0.166667  0.166667    0.00462963  15 t-inv F
  0.500000  0.166667  0.166667    0.00462963  16 t-inv F
 -0.333333  0.166667  0.166667    0.00462963  17 t-inv F
 -0.166667  0.166667  0.166667    0.00462963  18 t-inv F
  0.333333  0.333333  0.166667    0.00462963  19 t-inv F
  0.500000  0.333333  0.166667    0.00462963  20 t-inv F
 -0.333333  0.333333  0.166667    0.00462963  21 t-inv F
 -0.166667  0.333333  0.166667    0.00462963  22 t-inv F
  0.500000  0.500000  0.166667    0.00462963  23 t-inv F
 -0.333333  0.500000  0.166667    0.00462963  24 t-inv F
 -0.166667  0.500000  0.166667    0.00462963  25 t-inv F
 -0.333333 -0.333333  0.166667    0.00462963  26 t-inv F
  0.333333  0.333333  0.333333    0.00462963  27 t-inv F
  0.500000  0.333333  0.333333    0.00462963  28 t-inv F
 -0.333333  0.333333  0.333333    0.00462963  29 t-inv F
  0.500000  0.500000  0.333333    0.00462963  30 t-inv F
 -0.333333  0.500000  0.333333    0.00462963  31 t-inv F
  0.500000  0.500000  0.500000    0.00462963  32 t-inv F
 -0.000000  0.166667 -0.000000    0.00462963   2 t-inv F
 -0.000000 -0.000000  0.166667    0.00462963   2 t-inv F
 -0.166667  0.000000  0.000000    0.00462963   2 t-inv F
  0.000000 -0.166667  0.000000    0.00462963   2 t-inv F
  0.000000  0.000000 -0.166667    0.00462963   2 t-inv F
  0.000000  0.333333 -0.000000    0.00462963   3 t-inv F
 -0.000000  0.000000  0.333333    0.00462963   3 t-inv F
 -0.333333  0.000000 -0.000000    0.00462963   3 t-inv F
 -0.000000 -0.333333  0.000000    0.00462963   3 t-inv F
  0.000000 -0.000000 -0.333333    0.00462963   3 t-inv F
 -0.000000  0.500000 -0.000000    0.00462963   4 t-inv F
 -0.000000 -0.000000  0.500000    0.00462963   4 t-inv F
  0.166667  0.000000  0.166667    0.00462963   5 t-inv F
  0.000000  0.166667  0.166667    0.00462963   5 t-inv F
 -0.166667 -0.166667 -0.000000    0.00462963   5 t-inv F
 -0.166667 -0.000000 -0.166667    0.00462963   5 t-inv F
 -0.000000 -0.166667 -0.166667    0.00462963   5 t-inv F
  0.333333 -0.000000  0.166667    0.00462963   6 t-inv F
 -0.000000  0.333333  0.166667    0.00462963   6 t-inv F
  0.166667  0.333333 -0.000000    0.00462963   6 t-inv F
  0.166667 -0.000000  0.333333    0.00462963   6 t-inv F
 -0.000000  0.166667  0.333333    0.00462963   6 t-inv F
 -0.333333 -0.166667  0.000000    0.00462963   6 t-inv F
 -0.333333  0.000000 -0.166667    0.00462963   6 t-inv F
  0.000000 -0.333333 -0.166667    0.00462963   6 t-inv F
 -0.166667 -0.333333  0.000000    0.00462963   6 t-inv F
 -0.166667  0.000000 -0.333333    0.00462963   6 t-inv F
  0.000000 -0.166667 -0.333333    0.00462963   6 t-inv F
  0.500000  0.000000  0.166667    0.00462963   7 t-inv F
  0.000000  0.500000  0.166667    0.00462963   7 t-inv F
  0.166667  0.500000  0.000000    0.00462963   7 t-inv F
  0.166667  0.000000  0.500000    0.00462963   7 t-inv F
  0.000000  0.166667  0.500000    0.00462963   7 t-inv F
 -0.500000 -0.166667 -0.000000    0.00462963   7 t-inv F
 -0.500000 -0.000000 -0.166667    0.00462963   7 t-inv F
 -0.000000 -0.500000 -0.166667    0.00462963   7 t-inv F
 -0.166667 -0.500000 -0.000000    0.00462963   7 t-inv F
 -0.166667 -0.000000 -0.500000    0.00462963   7 t-inv F
 -0.000000 -0.166667 -0.500000    0.00462963   7 t-inv F
 -0.333333  0.000000  0.166667    0.00462963   8 t-inv F
  0.000000 -0.333333  0.166667    0.00462963   8 t-inv F
  0.166667 -0.333333  0.000000    0.00462963   8 t-inv F
  0.166667  0.000000 -0.333333    0.00462963   8 t-inv F
  0.000000  0.166667 -0.333333    0.00462963   8 t-inv F
  0.333333 -0.166667 -0.000000    0.00462963   8 t-inv F
  0.333333 -0.000000 -0.166667    0.00462963   8 t-inv F
 -0.000000  0.333333 -0.166667    0.00462963   8 t-inv F
 -0.166667  0.333333 -0.000000    0.00462963   8 t-inv F
 -0.166667 -0.000000  0.333333    0.00462963   8 t-inv F
 -0.000000 -0.166667  0.333333    0.00462963   8 t-inv F
 -0.166667 -0.000000  0.166667    0.00462963   9 t-inv F
 -0.000000 -0.166667  0.166667    0.00462963   9 t-inv F
  0.166667 -0.166667 -0.000000    0.00462963   9 t-inv F
  0.166667 -0.000000 -0.166667    0.00462963   9 t-inv F
 -0.000000  0.166667 -0.166667    0.00462963   9 t-inv F
  0.333333 -0.000000  0.333333    0.00462963  10 t-inv F
 -0.000000  0.333333  0.333333    0.00462963  10 t-inv F
 -0.333333 -0.333333  0.000000    0.00462963  10 t-inv F
 -0.333333  0.000000 -0.333333    0.00462963  10 t-inv F
  0.000000 -0.333333 -0.333333    0.00462963  10 t-inv F
  0.500000  0.000000  0.333333    0.00462963  11 t-inv F
  0.000000  0.500000  0.333333    0.00462963  11 t-inv F
  0.333333  0.500000  0.000000    0.00462963  11 t-inv F
  0.333333  0.000000  0.500000    0.00462963  11 t-inv F
  0.000000  0.333333  0.500000    0.00462963  11 t-inv F
 -0.500000 -0.333333 -0.000000    0.00462963  11 t-inv F
 -0.500000 -0.000000 -0.333333    0.00462963  11 t-inv F
 -0.000000 -0.500000 -0.333333    0.00462963  11 t-inv F
 -0.333333 -0.500000 -0.000000    0.00462963  11 t-inv F
 -0.333333 -0.000000 -0.500000    0.00462963  11 t-inv F
 -0.000000 -0.333333 -0.500000    0.00462963  11 t-inv F
 -0.333333  0.000000  0.333333    0.00462963  12 t-inv F
  0.000000 -0.333333  0.333333    0.00462963  12 t-inv F
  0.333333 -0.333333  0.000000    0.00462963  12 t-inv F
  0.333333  0.000000 -0.333333    0.00462963  12 t-inv F
  0.000000  0.333333 -0.333333    0.00462963  12 t-inv F
  0.500000  0.000000  0.500000    0.00462963  13 t-inv F
  0.000000  0.500000  0.500000    0.00462963  13 t-inv F
 -0.166667 -0.166667 -0.166667    0.00462963  14 t-inv F
  0.166667  0.333333  0.166667    0.00462963  15 t-inv F
  0.166667  0.166667  0.333333    0.00462963  15 t-inv F
 -0.333333 -0.166667 -0.166667    0.00462963  15 t-inv F
 -0.166667 -0.333333 -0.166667    0.00462963  15 t-inv F
 -0.166667 -0.166667 -0.333333    0.00462963  15 t-inv F
  0.166667  0.500000  0.166667    0.00462963  16 t-inv F
  0.166667  0.166667  0.500000    0.00462963  16 t-inv F
 -0.500000 -0.166667 -0.166667    0.00462963  16 t-inv F
 -0.166667 -0.500000 -0.166667    0.00462963  16 t-inv F
 -0.166667 -0.166667 -0.500000    0.00462963  16 t-inv F
  0.166667 -0.333333  0.166667    0.00462963  17 t-inv F
  0.166667  0.166667 -0.333333    0.00462963  17 t-inv F
  0.333333 -0.166667 -0.166667    0.00462963  17 t-inv F
 -0.166667  0.333333 -0.166667    0.00462963  17 t-inv F
 -0.166667 -0.166667  0.333333    0.00462963  17 t-inv F
  0.166667 -0.166667  0.166667    0.00462963  18 t-inv F
  0.166667  0.166667 -0.166667    0.00462963  18 t-inv F
  0.166667 -0.166667 -0.166667    0.00462963  18 t-inv F
 -0.166667  0.166667 -0.166667    0.00462963  18 t-inv F
 -0.166667 -0.166667  0.166667    0.00462963  18 t-inv F
  0.333333  0.166667  0.333333    0.00462963  19 t-inv F
  0.166667  0.333333  0.333333    0.00462963  19 t-inv F
 -0.333333 -0.333333 -0.166667    0.00462963  19 t-inv F
 -0.333333 -0.166667 -0.333333    0.00462963  19 t-inv F
 -0.166667 -0.333333 -0.333333    0.00462963  19 t-inv F
  0.500000  0.166667  0.333333    0.00462963  20 t-inv F
  0.166667  0.500000  0.333333    0.00462963  20 t-inv F
  0.333333  0.500000  0.166667    0.00462963  20 t-inv F
  0.333333  0.166667  0.500000    0.00462963  20 t-inv F
  0.166667  0.333333  0.500000    0.00462963  20 t-inv F
 -0.500000 -0.333333 -0.166667    0.00462963  20 t-inv F
 -0.500000 -0.166667 -0.333333    0.00462963  20 t-inv F
 -0.166667 -0.500000 -0.333333    0.00462963  20 t-inv F
 -0.333333 -0.500000 -0.166667    0.00462963  20 t-inv F
 -0.333333 -0.166667 -0.500000    0.00462963  20 t-inv F
 -0.166667 -0.333333 -0.500000    0.00462963  20 t-inv F
 -0.333333  0.166667  0.333333    0.00462963  21 t-inv F
  0.166667 -0.333333  0.333333    0.00462963  21 t-inv F
  0.333333 -0.333333  0.166667    0.00462963  21 t-inv F
  0.333333  0.166667 -0.333333    0.00462963  21 t-inv F
  0.166667  0.333333 -0.333333    0.00462963  21 t-inv F
  0.333333 -0.333333 -0.166667    0.00462963  21 t-inv F
  0.333333 -0.166667 -0.333333    0.00462963  21 t-inv F
 -0.166667  0.333333 -0.333333    0.00462963  21 t-inv F
 -0.333333  0.333333 -0.166667    0.00462963  21 t-inv F
 -0.333333 -0.166667  0.333333    0.00462963  21 t-inv F
 -0.166667 -0.333333  0.333333    0.00462963  21 t-inv F
 -0.166667  0.166667  0.333333    0.00462963  22 t-inv F
  0.166667 -0.166667  0.333333    0.00462963  22 t-inv F
  0.333333 -0.166667  0.166667    0.00462963  22 t-inv F
  0.333333  0.166667 -0.166667    0.00462963  22 t-inv F
  0.166667  0.333333 -0.166667    0.00462963  22 t-inv F
  0.166667 -0.333333 -0.166667    0.00462963  22 t-inv F
  0.166667 -0.166667 -0.333333    0.00462963  22 t-inv F
 -0.166667  0.166667 -0.333333    0.00462963  22 t-inv F
 -0.333333  0.166667 -0.166667    0.00462963  22 t-inv F
 -0.333333 -0.166667  0.166667    0.00462963  22 t-inv F
 -0.166667 -0.333333  0.166667    0.00462963  22 t-inv F
  0.500000  0.166667  0.500000    0.00462963  23 t-inv F
  0.166667  0.500000  0.500000    0.00462963  23 t-inv F
 -0.500000 -0.500000 -0.166667    0.00462963  23 t-inv F
 -0.500000 -0.166667 -0.500000    0.00462963  23 t-inv F
 -0.166667 -0.500000 -0.500000    0.00462963  23 t-inv F
 -0.333333  0.166667  0.500000    0.00462963  24 t-inv F
  0.166667 -0.333333  0.500000    0.00462963  24 t-inv F
  0.500000 -0.333333  0.166667    0.00462963  24 t-inv F
  0.500000  0.166667 -0.333333    0.00462963  24 t-inv F
  0.166667  0.500000 -0.333333    0.00462963  24 t-inv F
  0.333333 -0.500000 -0.166667    0.00462963  24 t-inv F
  0.333333 -0.166667 -0.500000    0.00462963  24 t-inv F
 -0.166667  0.333333 -0.500000    0.00462963  24 t-inv F
 -0.500000  0.333333 -0.166667    0.00462963  24 t-inv F
 -0.500000 -0.166667  0.333333    0.00462963  24 t-inv F
 -0.166667 -0.500000  0.333333    0.00462963  24 t-inv F
 -0.166667  0.166667  0.500000    0.00462963  25 t-inv F
  0.166667 -0.166667  0.500000    0.00462963  25 t-inv F
  0.500000 -0.166667  0.166667    0.00462963  25 t-inv F
  0.500000  0.166667 -0.166667    0.00462963  25 t-inv F
  0.166667  0.500000 -0.166667    0.00462963  25 t-inv F
 -0.333333  0.166667 -0.333333    0.00462963  26 t-inv F
  0.166667 -0.333333 -0.333333    0.00462963  26 t-inv F
  0.333333  0.333333 -0.166667    0.00462963  26 t-inv F
  0.333333 -0.166667  0.333333    0.00462963  26 t-inv F
 -0.166667  0.333333  0.333333    0.00462963  26 t-inv F
 -0.333333 -0.333333 -0.333333    0.00462963  27 t-inv F
  0.333333  0.500000  0.333333    0.00462963  28 t-inv F
  0.333333  0.333333  0.500000    0.00462963  28 t-inv F
 -0.500000 -0.333333 -0.333333    0.00462963  28 t-inv F
 -0.333333 -0.500000 -0.333333    0.00462963  28 t-inv F
 -0.333333 -0.333333 -0.500000    0.00462963  28 t-inv F
  0.333333 -0.333333  0.333333    0.00462963  29 t-inv F
  0.333333  0.333333 -0.333333    0.00462963  29 t-inv F
  0.333333 -0.333333 -0.333333    0.00462963  29 t-inv F
 -0.333333  0.333333 -0.333333    0.00462963  29 t-inv F
 -0.333333 -0.333333  0.333333    0.00462963  29 t-inv F
  0.500000  0.333333  0.500000    0.00462963  30 t-inv F
  0.333333  0.500000  0.500000    0.00462963  30 t-inv F
 -0.500000 -0.500000 -0.333333    0.00462963  30 t-inv F
 -0.500000 -0.333333 -0.500000    0.00462963  30 t-inv F
 -0.333333 -0.500000 -0.500000    0.00462963  30 t-inv F
 -0.333333  0.333333  0.500000    0.00462963  31 t-inv F
  0.333333 -0.333333  0.500000    0.00462963  31 t-inv F
  0.500000 -0.333333  0.333333    0.00462963  31 t-inv F
  0.500000  0.333333 -0.333333    0.00462963  31 t-inv F
  0.333333  0.500000 -0.333333    0.00462963  31 t-inv F


--------------------------------------------------------------------------------------------------------




 Dimension of arrays:
   k-points           NKPTS =     32   k-points in BZ     NKDIM =     32   number of bands    NBANDS=    192
   number of dos      NEDOS =    301   number of ions     NIONS =     64
   non local maximal  LDIM  =      4   non local SUM 2l+1 LMDIM =      8
   total plane-waves  NPLWV = 110592
   max r-space proj   IRMAX =      1   max aug-charges    IRDMAX=  28407
   dimension x,y,z NGX =    48 NGY =   48 NGZ =   48
   dimension x,y,z NGXF=    96 NGYF=   96 NGZF=   96
   support grid    NGXF=   192 NGYF=  192 NGZF=  192
   ions per type =              64
   NGX,Y,Z   is equivalent  to a cutoff of  11.11, 11.11, 11.11 a.u.
   NGXF,Y,Z  is equivalent  to a cutoff of  22.23, 22.23, 22.23 a.u.

 SYSTEM =  unknown system                          
 POSCAR =  generated by phonopy                    

 Startparameter for this run:
   NWRITE =      2    write-flag & timer
   PREC   = accura    normal or accurate (medium, high low for compatibility)
   ISTART =      0    job   : 0-new  1-cont  2-samecut
   ICHARG =      2    charge: 1-file 2-atom 10-const
   ISPIN  =      1    spin polarized calculation?
   LNONCOLLINEAR =      F non collinear calculations
   LSORBIT =      F    spin-orbit coupling
   INIWAV =      1    electr: 0-lowe 1-rand  2-diag
   LASPH  =      F    aspherical Exc in radial PAW
   METAGGA=      F    non-selfconsistent MetaGGA calc.

 Electronic Relaxation 1
   ENCUT  =  400.0 eV  29.40 Ry    5.42 a.u.  11.71 11.71 11.71*2*pi/ulx,y,z
   ENINI  =  400.0     initial cutoff
   ENAUG  =  644.9 eV  augmentation charge cutoff
   NELM   =     60;   NELMIN=  2; NELMDL= -5     # of ELM steps 
   EDIFF  = 0.1E-07   stopping-criterion for ELM
   LREAL  =      F    real-space projection
   NLSPLINE    = F    spline interpolate recip. space projectors
   LCOMPAT=      F    compatible to vasp.4.4
   GGA_COMPAT  = T    GGA compatible to vasp.4.4-vasp.4.6
   LMAXPAW     = -100 max onsite density
   LMAXMIX     =    2 max onsite mixed and CHGCAR
   VOSKOWN=      0    Vosko Wilk Nusair interpolation
   ROPT   =    0.00000
 Ionic relaxation
   EDIFFG = 0.1E-06   stopping-criterion for IOM
   NSW    =      1    number of steps for IOM
   NBLOCK =      1;   KBLOCK =      1    inner block; outer block 
   IBRION =      8    ionic relax: 0-MD 1-quasi-New 2-CG
   NFREE  =      0    steps in history (QN), initial steepest desc. (CG)
   ISIF   =      2    stress and relaxation
   IWAVPR =     11    prediction:  0-non 1-charg 2-wave 3-comb
   ISYM   =      2    0-nonsym 1-usesym 2-fastsym
   LCORR  =      T    Harris-Foulkes like correction to forces

   POTIM  = 0.5000    time-step for ionic-motion
   TEIN   =    0.0    initial temperature
   TEBEG  =    0.0;   TEEND  =   0.0 temperature during run
   SMASS  =  -3.00    Nose mass-parameter (am)
   estimated Nose-frequenzy (Omega)   =  0.10E-29 period in steps =****** mass=  -0.118E-26a.u.
   SCALEE = 1.0000    scale energy and forces
   NPACO  =    256;   APACO  = 16.0  distance and # of slots for P.C.
   PSTRESS=    0.0 pullay stress

  Mass of Ions in am
   POMASS =  12.01
  Ionic Valenz
   ZVAL   =   4.00
  Atomic Wigner-Seitz radii
   RWIGS  =  -1.00
  virtual crystal weights 
   VCA    =   1.00
   NELECT =     256.0000    total number of electrons
   NUPDOWN=      -1.0000    fix difference up-down

 DOS related values:
   EMIN   =  10.00;   EMAX   =-10.00  energy-range for DOS
   EFERMI =   0.00
   ISMEAR =     0;   SIGMA  =   0.06  broadening in eV -4-tet -1-fermi 0-gaus

 Electronic relaxation 2 (details)
   IALGO  =     38    algorithm
   LDIAG  =      T    sub-space diagonalisation (order eigenvalues)
   LSUBROT=      F    optimize rotation matrix (better conditioning)
   TURBO    =      0    0=normal 1=particle mesh
   IRESTART =      0    0=no restart 2=restart with 2 vectors
   NREBOOT  =      0    no. of reboots
   NMIN     =      0    reboot dimension
   EREF     =   0.00    reference energy to select bands
   IMIX   =      4    mixing-type and parameters
     AMIX     =   0.40;   BMIX     =  1.00
     AMIX_MAG =   1.60;   BMIX_MAG =  1.00
     AMIN     =   0.10
     WC   =   100.;   INIMIX=   1;  MIXPRE=   1;  MAXMIX= -45

 Intra band minimization:
   WEIMIN = 0.0010     energy-eigenvalue tresh-hold
   EBREAK =  0.13E-10  absolut break condition
   DEPER  =   0.30     relativ break condition  

   TIME   =   0.40     timestep for ELM

  volume/ion in A,a.u.               =       5.78        39.02
  Fermi-wavevector in a.u.,A,eV,Ry     =   1.447835  2.736011 28.520879  2.096225
  Thomas-Fermi vector in A             =   2.565744
 
 Write flags
   LWAVE        =      F    write WAVECAR
   LDOWNSAMPLE  =      F    k-point downsampling of WAVECAR
   LCHARG       =      F    write CHGCAR
   LVTOT        =      F    write LOCPOT, total local potential
   LVHAR        =      F    write LOCPOT, Hartree potential only
   LELF         =      F    write electronic localiz. function (ELF)
   LORBIT       =      0    0 simple, 1 ext, 2 COOP (PROOUT), +10 PAW based schemes


 Dipole corrections
   LMONO  =      F    monopole corrections only (constant potential shift)
   LDIPOL =      F    correct potential (dipole corrections)
   IDIPOL =      0    1-x, 2-y, 3-z, 4-all directions 
   EPSILON=  1.0000000 bulk dielectric constant

 Exchange correlation treatment:
   GGA     =    --    GGA type
   LEXCH   =     8    internal setting for exchange type
   VOSKOWN=      0    Vosko Wilk Nusair interpolation
   LHFCALC =     F    Hartree Fock is set to
   LHFONE  =     F    Hartree Fock one center treatment
   AEXX    =    0.0000 exact exchange contribution

 Linear response parameters
   LEPSILON=     F    determine dielectric tensor
   LRPA    =     F    only Hartree local field effects (RPA)
   LNABLA  =     F    use nabla operator in PAW spheres
   LVEL    =     F    velocity operator in full k-point grid
   LINTERFAST=   F  fast interpolation
   KINTER  =     0    interpolate to denser k-point grid
   CSHIFT  =0.1000    complex shift for real part using Kramers Kronig
   OMEGAMAX=  -1.0    maximum frequency
   DEG_THRESHOLD= 0.2000000E-02 threshold for treating states as degnerate
   RTIME   =   -0.100 relaxation time in fs
  (WPLASMAI=    0.000 imaginary part of plasma frequency in eV, 0.658/RTIME)
   DFIELD  = 0.0000000 0.0000000 0.0000000 field for delta impulse in time
 
 Orbital magnetization related:
   ORBITALMAG=     F  switch on orbital magnetization
   LCHIMAG   =     F  perturbation theory with respect to B field
   DQ        =  0.001000  dq finite difference perturbation B field
   LLRAUG    =     F  two centre corrections for induced B field



--------------------------------------------------------------------------------------------------------


 linear response using symmetry
 charge density and potential will be updated during run
 non-spin polarized calculation
 Variant of blocked Davidson
 Davidson routine will perform the subspace rotation
 perform sub-space diagonalisation
    after iterative eigenvector-optimisation
 modified Broyden-mixing scheme, WC =      100.0
 initial mixing is a Kerker type mixing with AMIX =  0.4000 and BMIX =      1.0000
 Hartree-type preconditioning will be used
 using additional bands           64
 reciprocal scheme for non local part
 calculate Harris-corrections to forces 
   (improved forces if not selfconsistent)
 use gradient corrections 
 use of overlap-Matrix (Vanderbilt PP)
 Gauss-broadening in eV      SIGMA  =   0.06


--------------------------------------------------------------------------------------------------------


  energy-cutoff  :      400.00
  volume of cell :      370.09
      direct lattice vectors                 reciprocal lattice vectors
     7.179998718  0.000000000  0.000000000     0.139275791  0.001392824  0.001406964
    -0.071799786  7.179639086  0.000000000     0.000000000  0.139282767  0.001406958
    -0.071799786 -0.072521059  7.179273427     0.000000000  0.000000000  0.139289861

  length of vectors
     7.179998718  7.179998093  7.179998708     0.139289861  0.139289873  0.139289861


 
 k-points in units of 2pi/SCALE and weight: kpt_density=3000                        
   0.00000000  0.00000000  0.00000000       0.005
   0.02321263  0.00023214  0.00023449       0.028
   0.04642526  0.00046427  0.00046899       0.028
   0.06963790  0.00069641  0.00070348       0.014
   0.02321263  0.02344593  0.00046899       0.028
   0.04642526  0.02367807  0.00070348       0.056
   0.06963790  0.02391021  0.00093798       0.056
  -0.04642526  0.02274952 -0.00023450       0.056
  -0.02321263  0.02298166 -0.00000000       0.028
   0.04642526  0.04689186  0.00093797       0.028
   0.06963790  0.04712400  0.00117247       0.056
  -0.04642526  0.04596331 -0.00000000       0.028
   0.06963790  0.07033780  0.00140696       0.014
   0.02321263  0.02344593  0.02368396       0.009
   0.04642526  0.02367807  0.02391846       0.028
   0.06963790  0.02391021  0.02415295       0.028
  -0.04642526  0.02274952  0.02298048       0.028
  -0.02321263  0.02298166  0.02321498       0.028
   0.04642526  0.04689186  0.02415295       0.028
   0.06963790  0.04712400  0.02438744       0.056
  -0.04642526  0.04596331  0.02321497       0.056
  -0.02321263  0.04619545  0.02344947       0.056
   0.06963790  0.07033780  0.02462194       0.028
  -0.04642526  0.06917711  0.02344947       0.056
  -0.02321263  0.06940925  0.02368396       0.028
  -0.04642526 -0.04689186  0.02227700       0.028
   0.04642526  0.04689186  0.04736793       0.009
   0.06963790  0.04712400  0.04760242       0.028
  -0.04642526  0.04596331  0.04642995       0.028
   0.06963790  0.07033780  0.04783691       0.028
  -0.04642526  0.06917711  0.04666444       0.028
   0.06963790  0.07033780  0.07105189       0.005
 
 k-points in reciprocal lattice and weights: kpt_density=3000                        
   0.00000000  0.00000000  0.00000000       0.005
   0.16666667 -0.00000000 -0.00000000       0.028
   0.33333333 -0.00000000  0.00000000       0.028
   0.50000000 -0.00000000 -0.00000000       0.014
   0.16666667  0.16666667  0.00000000       0.028
   0.33333333  0.16666667 -0.00000000       0.056
   0.50000000  0.16666667  0.00000000       0.056
  -0.33333333  0.16666667  0.00000000       0.056
  -0.16666667  0.16666667 -0.00000000       0.028
   0.33333333  0.33333333 -0.00000000       0.028
   0.50000000  0.33333333  0.00000000       0.056
  -0.33333333  0.33333333  0.00000000       0.028
   0.50000000  0.50000000  0.00000000       0.014
   0.16666667  0.16666667  0.16666667       0.009
   0.33333333  0.16666667  0.16666667       0.028
   0.50000000  0.16666667  0.16666667       0.028
  -0.33333333  0.16666667  0.16666667       0.028
  -0.16666667  0.16666667  0.16666667       0.028
   0.33333333  0.33333333  0.16666667       0.028
   0.50000000  0.33333333  0.16666667       0.056
  -0.33333333  0.33333333  0.16666667       0.056
  -0.16666667  0.33333333  0.16666667       0.056
   0.50000000  0.50000000  0.16666667       0.028
  -0.33333333  0.50000000  0.16666667       0.056
  -0.16666667  0.50000000  0.16666667       0.028
  -0.33333333 -0.33333333  0.16666667       0.028
   0.33333333  0.33333333  0.33333333       0.009
   0.50000000  0.33333333  0.33333333       0.028
  -0.33333333  0.33333333  0.33333333       0.028
   0.50000000  0.50000000  0.33333333       0.028
  -0.33333333  0.50000000  0.33333333       0.028
   0.50000000  0.50000000  0.50000000       0.005
 
 position of ions in fractional coordinates (direct lattice) 
   0.12500000  0.37500000  0.12500000
   0.62500000  0.37500000  0.12500000
   0.12500000  0.87500000  0.12500000
   0.62500000  0.87500000  0.12500000
   0.12500000  0.37500000  0.62500000
   0.62500000  0.37500000  0.62500000
   0.12500000  0.87500000  0.62500000
   0.62500000  0.87500000  0.62500000
   0.00000000  0.00000000  0.25000000
   0.50000000  0.00000000  0.25000000
   0.00000000  0.50000000  0.25000000
   0.50000000  0.50000000  0.25000000
   0.00000000  0.00000000  0.75000000
   0.50000000  0.00000000  0.75000000
   0.00000000  0.50000000  0.75000000
   0.50000000  0.50000000  0.75000000
   0.12500000  0.12500000  0.37500000
   0.62500000  0.12500000  0.37500000
   0.12500000  0.62500000  0.37500000
   0.62500000  0.62500000  0.37500000
   0.12500000  0.12500000  0.87500000
   0.62500000  0.12500000  0.87500000
   0.12500000  0.62500000  0.87500000
   0.62500000  0.62500000  0.87500000
   0.00000000  0.25000000  0.00000000
   0.50000000  0.25000000  0.00000000
   0.00000000  0.75000000  0.00000000
   0.50000000  0.75000000  0.00000000
   0.00000000  0.25000000  0.50000000
   0.50000000  0.25000000  0.50000000
   0.00000000  0.75000000  0.50000000
   0.50000000  0.75000000  0.50000000
   0.37500000  0.37500000  0.37500000
   0.87500000  0.37500000  0.37500000
   0.37500000  0.87500000  0.37500000
   0.87500000  0.87500000  0.37500000
   0.37500000  0.37500000  0.87500000
   0.87500000  0.37500000  0.87500000
   0.37500000  0.87500000  0.87500000
   0.87500000  0.87500000  0.87500000
   0.25000000  0.00000000  0.00000000
   0.75000000  0.00000000  0.00000000
   0.25000000  0.50000000  0.00000000
   0.75000000  0.50000000  0.00000000
   0.25000000  0.00000000  0.50000000
   0.75000000  0.00000000  0.50000000
   0.25000000  0.50000000  0.50000000
   0.75000000  0.50000000  0.50000000
   0.37500000  0.12500000  0.12500000
   0.87500000  0.12500000  0.12500000
   0.37500000  0.62500000  0.12500000
   0.87500000  0.62500000  0.12500000
   0.37500000  0.12500000  0.62500000
   0.87500000  0.12500000  0.62500000
   0.37500000  0.62500000  0.62500000
   0.87500000  0.62500000  0.62500000
   0.25000000  0.25000000  0.25000000
   0.75000000  0.25000000  0.25000000
   0.25000000  0.75000000  0.25000000
   0.75000000  0.75000000  0.25000000
   0.25000000  0.25000000  0.75000000
   0.75000000  0.25000000  0.75000000
   0.25000000  0.75000000  0.75000000
   0.75000000  0.75000000  0.75000000
 
 position of ions in cartesian coordinates  (Angst):
   0.86159995  2.68329952  0.89740918
   4.45159931  2.68329952  0.89740918
   0.82570005  6.27311907  0.89740918
   4.41569941  6.27311907  0.89740918
   0.82570005  2.64703900  4.48704589
   4.41569941  2.64703900  4.48704589
   0.78980016  6.23685854  4.48704589
   4.37979952  6.23685854  4.48704589
  -0.01794995 -0.01813026  1.79481836
   3.57204941 -0.01813026  1.79481836
  -0.05384984  3.57168928  1.79481836
   3.53614952  3.57168928  1.79481836
  -0.05384984 -0.05439079  5.38445507
   3.53614952 -0.05439079  5.38445507
  -0.08974973  3.53542875  5.38445507
   3.50024963  3.53542875  5.38445507
   0.86159995  0.87025949  2.69222754
   4.45159931  0.87025949  2.69222754
   0.82570005  4.46007903  2.69222754
   4.41569941  4.46007903  2.69222754
   0.82570005  0.83399896  6.28186425
   4.41569941  0.83399896  6.28186425
   0.78980016  4.42381850  6.28186425
   4.37979952  4.42381850  6.28186425
  -0.01794995  1.79490977  0.00000000
   3.57204941  1.79490977  0.00000000
  -0.05384984  5.38472931  0.00000000
   3.53614952  5.38472931  0.00000000
  -0.05384984  1.75864924  3.58963671
   3.53614952  1.75864924  3.58963671
  -0.08974973  5.34846879  3.58963671
   3.50024963  5.34846879  3.58963671
   2.63864968  2.66516926  2.69222754
   6.22864904  2.66516926  2.69222754
   2.60274979  6.25498880  2.69222754
   6.19274915  6.25498880  2.69222754
   2.60274979  2.62890873  6.28186425
   6.19274915  2.62890873  6.28186425
   2.56684989  6.21872827  6.28186425
   6.15684925  6.21872827  6.28186425
   1.79499968  0.00000000  0.00000000
   5.38499904  0.00000000  0.00000000
   1.75909979  3.58981954  0.00000000
   5.34909915  3.58981954  0.00000000
   1.75909979 -0.03626053  3.58963671
   5.34909915 -0.03626053  3.58963671
   1.72319989  3.55355901  3.58963671
   5.31319925  3.55355901  3.58963671
   2.67454957  0.88838975  0.89740918
   6.26454893  0.88838975  0.89740918
   2.63864968  4.47820930  0.89740918
   6.22864904  4.47820930  0.89740918
   2.63864968  0.85212922  4.48704589
   6.22864904  0.85212922  4.48704589
   2.60274979  4.44194877  4.48704589
   6.19274915  4.44194877  4.48704589
   1.75909979  1.77677951  1.79481836
   5.34909915  1.77677951  1.79481836
   1.72319989  5.36659905  1.79481836
   5.31319925  5.36659905  1.79481836
   1.72319989  1.74051898  5.38445507
   5.31319925  1.74051898  5.38445507
   1.68730000  5.33033852  5.38445507
   5.27729936  5.33033852  5.38445507
 


--------------------------------------------------------------------------------------------------------


 k-point  1 :   0.0000 0.0000 0.0000  plane waves:    6733
 k-point  2 :   0.1667-0.0000-0.0000  plane waves:    6740
 k-point  3 :   0.3333-0.0000 0.0000  plane waves:    6713
 k-point  4 :   0.5000-0.0000-0.0000  plane waves:    6732
 k-point  5 :   0.1667 0.1667 0.0000  plane waves:    6742
 k-point  6 :   0.3333 0.1667-0.0000  plane waves:    6720
 k-point  7 :   0.5000 0.1667 0.0000  plane waves:    6720
 k-point  8 :  -0.3333 0.1667 0.0000  plane waves:    6727
 k-point  9 :  -0.1667 0.1667-0.0000  plane waves:    6739
 k-point 10 :   0.3333 0.3333-0.0000  plane waves:    6737
 k-point 11 :   0.5000 0.3333 0.0000  plane waves:    6724
 k-point 12 :  -0.3333 0.3333 0.0000  plane waves:    6712
 k-point 13 :   0.5000 0.5000 0.0000  plane waves:    6708
 k-point 14 :   0.1667 0.1667 0.1667  plane waves:    6739
 k-point 15 :   0.3333 0.1667 0.1667  plane waves:    6720
 k-point 16 :   0.5000 0.1667 0.1667  plane waves:    6720
 k-point 17 :  -0.3333 0.1667 0.1667  plane waves:    6718
 k-point 18 :  -0.1667 0.1667 0.1667  plane waves:    6731
 k-point 19 :   0.3333 0.3333 0.1667  plane waves:    6713
 k-point 20 :   0.5000 0.3333 0.1667  plane waves:    6719
 k-point 21 :  -0.3333 0.3333 0.1667  plane waves:    6714
 k-point 22 :  -0.1667 0.3333 0.1667  plane waves:    6720
 k-point 23 :   0.5000 0.5000 0.1667  plane waves:    6718
 k-point 24 :  -0.3333 0.5000 0.1667  plane waves:    6718
 k-point 25 :  -0.1667 0.5000 0.1667  plane waves:    6728
 k-point 26 :  -0.3333-0.3333 0.1667  plane waves:    6712
 k-point 27 :   0.3333 0.3333 0.3333  plane waves:    6716
 k-point 28 :   0.5000 0.3333 0.3333  plane waves:    6719
 k-point 29 :  -0.3333 0.3333 0.3333  plane waves:    6731
 k-point 30 :   0.5000 0.5000 0.3333  plane waves:    6738
 k-point 31 :  -0.3333 0.5000 0.3333  plane waves:    6742
 k-point 32 :   0.5000 0.5000 0.5000  plane waves:    6746

 maximum and minimum number of plane-waves per node :      6746     6708

 maximum number of plane-waves:      6746
 maximum index in each direction: 
   IXMAX=   12   IYMAX=   12   IZMAX=   11
   IXMIN=  -12   IYMIN=  -12   IZMIN=  -12


 serial   3D FFT for wavefunctions
 parallel 3D FFT for charge:
    minimum data exchange during FFTs selected (reduces bandwidth)


 total amount of memory used by VASP MPI-rank0    83596. kBytes
=======================================================================

   base      :      30000. kBytes
   nonl-proj :      20742. kBytes
   fftplans  :       4537. kBytes
   grid      :       5806. kBytes
   one-center:        196. kBytes
   wavefun   :      22315. kBytes
 
     INWAV:  cpu time    0.0004: real time    0.0509
 Broyden mixing: mesh for mixing (old mesh)
   NGX = 23   NGY = 23   NGZ = 23
  (NGX  = 96   NGY  = 96   NGZ  = 96)
  gives a total of  12167 points

 initial charge density was supplied:
 charge density of overlapping atoms calculated
 number of electron     256.0000000 magnetization 
 keeping initial charge density in first step


--------------------------------------------------------------------------------------------------------


 Maximum index for augmentation-charges         1097 (set IRDMAX)


--------------------------------------------------------------------------------------------------------


 First call to EWALD:  gamma=   0.247
 Maximum number of real-space cells 3x 3x 3
 Maximum number of reciprocal cells 3x 3x 3

    FEWALD:  cpu time    0.0087: real time    0.0087


--------------------------------------- Iteration      1(   1)  ---------------------------------------


    POTLOK:  cpu time    0.0658: real time    0.1716
    SETDIJ:  cpu time    0.0437: real time    0.0439
     EDDAV:  cpu time   21.7721: real time   21.7827
       DOS:  cpu time    0.0073: real time    0.0073
    --------------------------------------------
      LOOP:  cpu time   21.8890: real time   22.0056

 eigenvalue-minimisations  : 12288
 total energy-change (2. order) : 0.5026803E+03  (-0.1135448E+05)
 number of electron     256.0000000 magnetization 
 augmentation part      256.0000000 magnetization 

 Free energy of the ion-electron system (eV)
  ---------------------------------------------------
  alpha Z        PSCENC =       901.78782685
  Ewald energy   TEWEN  =    -11062.66292856
  -Hartree energ DENC   =      -577.58340032
  -exchange      EXHF   =         0.00000000
  -V(xc)+E(xc)   XCENC  =       911.17892403
  PAW double counting   =      2421.21235816    -2494.84305711
  entropy T*S    EENTRO =        -0.01086290
  eigenvalues    EBANDS =       987.45907946
  atomic energy  EATOM  =      9416.14232778
  Solvation  Ediel_sol  =         0.00000000
  ---------------------------------------------------
  free energy    TOTEN  =       502.68026740 eV

  energy without entropy =      502.69113029  energy(sigma->0) =      502.68569885


--------------------------------------------------------------------------------------------------------




--------------------------------------- Iteration      1(   2)  ---------------------------------------


     EDDAV:  cpu time   27.5534: real time   27.5552
       DOS:  cpu time    0.0037: real time    0.0037
    --------------------------------------------
      LOOP:  cpu time   27.5571: real time   27.5589

 eigenvalue-minimisations  : 16288
 total energy-change (2. order) :-0.1061520E+04  (-0.1011980E+04)
 number of electron     256.0000000 magnetization 
 augmentation part      256.0000000 magnetization 

 Free energy of the ion-electron system (eV)
  ---------------------------------------------------
  alpha Z        PSCENC =       901.78782685
  Ewald energy   TEWEN  =    -11062.66292856
  -Hartree energ DENC   =      -577.58340032
  -exchange      EXHF   =         0.00000000
  -V(xc)+E(xc)   XCENC  =       911.17892403
  PAW double counting   =      2421.21235816    -2494.84305711
  entropy T*S    EENTRO =        -0.00000000
  eigenvalues    EBANDS =       -74.07156024
  atomic energy  EATOM  =      9416.14232778
  Solvation  Ediel_sol  =         0.00000000
  ---------------------------------------------------
  free energy    TOTEN  =      -558.83950941 eV

  energy without entropy =     -558.83950941  energy(sigma->0) =     -558.83950941


--------------------------------------------------------------------------------------------------------




--------------------------------------- Iteration      1(   3)  ---------------------------------------


     EDDAV:  cpu time   28.2350: real time   28.2367
       DOS:  cpu time    0.0039: real time    0.0039
    --------------------------------------------
      LOOP:  cpu time   28.2389: real time   28.2406

 eigenvalue-minimisations  : 16256
 total energy-change (2. order) :-0.4151768E+02  (-0.4126938E+02)
 number of electron     256.0000000 magnetization 
 augmentation part      256.0000000 magnetization 

 Free energy of the ion-electron system (eV)
  ---------------------------------------------------
  alpha Z        PSCENC =       901.78782685
  Ewald energy   TEWEN  =    -11062.66292856
  -Hartree energ DENC   =      -577.58340032
  -exchange      EXHF   =         0.00000000
  -V(xc)+E(xc)   XCENC  =       911.17892403
  PAW double counting   =      2421.21235816    -2494.84305711
  entropy T*S    EENTRO =        -0.00000000
  eigenvalues    EBANDS =      -115.58924436
  atomic energy  EATOM  =      9416.14232778
  Solvation  Ediel_sol  =         0.00000000
  ---------------------------------------------------
  free energy    TOTEN  =      -600.35719353 eV

  energy without entropy =     -600.35719353  energy(sigma->0) =     -600.35719353


--------------------------------------------------------------------------------------------------------




--------------------------------------- Iteration      1(   4)  ---------------------------------------


     EDDAV:  cpu time   28.3498: real time   28.3516
       DOS:  cpu time    0.0038: real time    0.0038
    --------------------------------------------
      LOOP:  cpu time   28.3536: real time   28.3554

 eigenvalue-minimisations  : 16192
 total energy-change (2. order) :-0.4573740E+00  (-0.4564747E+00)
 number of electron     256.0000000 magnetization 
 augmentation part      256.0000000 magnetization 

 Free energy of the ion-electron system (eV)
  ---------------------------------------------------
  alpha Z        PSCENC =       901.78782685
  Ewald energy   TEWEN  =    -11062.66292856
  -Hartree energ DENC   =      -577.58340032
  -exchange      EXHF   =         0.00000000
  -V(xc)+E(xc)   XCENC  =       911.17892403
  PAW double counting   =      2421.21235816    -2494.84305711
  entropy T*S    EENTRO =        -0.00000000
  eigenvalues    EBANDS =      -116.04661841
  atomic energy  EATOM  =      9416.14232778
  Solvation  Ediel_sol  =         0.00000000
  ---------------------------------------------------
  free energy    TOTEN  =      -600.81456758 eV

  energy without entropy =     -600.81456758  energy(sigma->0) =     -600.81456758


--------------------------------------------------------------------------------------------------------




--------------------------------------- Iteration      1(   5)  ---------------------------------------


     EDDAV:  cpu time   26.0674: real time   26.0740
       DOS:  cpu time    0.0038: real time    0.0038
    CHARGE:  cpu time    0.6608: real time    0.6610
    MIXING:  cpu time    0.0040: real time    0.0039
    --------------------------------------------
      LOOP:  cpu time   26.7359: real time   26.7428

 eigenvalue-minimisations  : 15360
 total energy-change (2. order) :-0.9847754E-02  (-0.9843744E-02)
 number of electron     255.9999995 magnetization 
 augmentation part        6.1886868 magnetization 

 Broyden mixing:
  rms(total) = 0.26269E+01    rms(broyden)= 0.26264E+01
  rms(prec ) = 0.38395E+01
  weight for this iteration     100.00

 Free energy of the ion-electron system (eV)
  ---------------------------------------------------
  alpha Z        PSCENC =       901.78782685
  Ewald energy   TEWEN  =    -11062.66292856
  -Hartree energ DENC   =      -577.58340032
  -exchange      EXHF   =         0.00000000
  -V(xc)+E(xc)   XCENC  =       911.17892403
  PAW double counting   =      2421.21235816    -2494.84305711
  entropy T*S    EENTRO =        -0.00000000
  eigenvalues    EBANDS =      -116.05646616
  atomic energy  EATOM  =      9416.14232778
  Solvation  Ediel_sol  =         0.00000000
  ---------------------------------------------------
  free energy    TOTEN  =      -600.82441533 eV

  energy without entropy =     -600.82441533  energy(sigma->0) =     -600.82441533


--------------------------------------------------------------------------------------------------------




--------------------------------------- Iteration      1(   6)  ---------------------------------------


    POTLOK:  cpu time    0.0606: real time    0.0609
    SETDIJ:  cpu time    0.0401: real time    0.0401
     EDDAV:  cpu time   25.4376: real time   25.4390
       DOS:  cpu time    0.0039: real time    0.0039
    CHARGE:  cpu time    0.6520: real time    0.6520
    MIXING:  cpu time    0.0043: real time    0.0043
    --------------------------------------------
      LOOP:  cpu time   26.1985: real time   26.2002

 eigenvalue-minimisations  : 14496
 total energy-change (2. order) : 0.1433711E+02  (-0.9518248E+00)
 number of electron     255.9999995 magnetization 
 augmentation part        6.0469067 magnetization 

 Broyden mixing:
  rms(total) = 0.14444E+01    rms(broyden)= 0.14444E+01
  rms(prec ) = 0.20914E+01
  weight for this iteration     100.00

 eigenvalues of (default mixing * dielectric matrix)
  average eigenvalue GAMMA=   2.1738
  2.1738

 Free energy of the ion-electron system (eV)
  ---------------------------------------------------
  alpha Z        PSCENC =       901.78782685
  Ewald energy   TEWEN  =    -11062.66292856
  -Hartree energ DENC   =      -696.98876954
  -exchange      EXHF   =         0.00000000
  -V(xc)+E(xc)   XCENC  =       922.33702524
  PAW double counting   =      3124.38197181    -3202.15140163
  entropy T*S    EENTRO =        -0.00000000
  eigenvalues    EBANDS =        10.66664548
  atomic energy  EATOM  =      9416.14232778
  Solvation  Ediel_sol  =         0.00000000
  ---------------------------------------------------
  free energy    TOTEN  =      -586.48730256 eV

  energy without entropy =     -586.48730256  energy(sigma->0) =     -586.48730256


--------------------------------------------------------------------------------------------------------




--------------------------------------- Iteration      1(   7)  ---------------------------------------


    POTLOK:  cpu time    0.0582: real time    0.0585
    SETDIJ:  cpu time    0.0477: real time    0.0477
     EDDAV:  cpu time   25.6466: real time   25.6480
       DOS:  cpu time    0.0038: real time    0.0038
    CHARGE:  cpu time    0.6467: real time    0.6467
    MIXING:  cpu time    0.0042: real time    0.0042
    --------------------------------------------
      LOOP:  cpu time   26.4072: real time   26.4089

 eigenvalue-minimisations  : 15104
 total energy-change (2. order) : 0.4842978E+01  (-0.1092841E+01)
 number of electron     255.9999995 magnetization 
 augmentation part        5.8982588 magnetization 

 Broyden mixing:
  rms(total) = 0.19471E+00    rms(broyden)= 0.19377E+00
  rms(prec ) = 0.23848E+00
  weight for this iteration     100.00

 eigenvalues of (default mixing * dielectric matrix)
  average eigenvalue GAMMA=   2.2735
  2.0135  2.5335

 Free energy of the ion-electron system (eV)
  ---------------------------------------------------
  alpha Z        PSCENC =       901.78782685
  Ewald energy   TEWEN  =    -11062.66292856
  -Hartree energ DENC   =      -850.01529353
  -exchange      EXHF   =         0.00000000
  -V(xc)+E(xc)   XCENC  =       936.81398746
  PAW double counting   =      4080.65913641    -4162.36146213
  entropy T*S    EENTRO =        -0.00000000
  eigenvalues    EBANDS =       157.99208131
  atomic energy  EATOM  =      9416.14232778
  Solvation  Ediel_sol  =         0.00000000
  ---------------------------------------------------
  free energy    TOTEN  =      -581.64432439 eV

  energy without entropy =     -581.64432439  energy(sigma->0) =     -581.64432439


--------------------------------------------------------------------------------------------------------




--------------------------------------- Iteration      1(   8)  ---------------------------------------


    POTLOK:  cpu time    0.0718: real time    0.0723
    SETDIJ:  cpu time    0.0401: real time    0.0401
     EDDAV:  cpu time   26.0394: real time   26.0407
       DOS:  cpu time    0.0039: real time    0.0039
    CHARGE:  cpu time    0.6514: real time    0.6514
    MIXING:  cpu time    0.0046: real time    0.0046
    --------------------------------------------
      LOOP:  cpu time   26.8111: real time   26.8130

 eigenvalue-minimisations  : 15424
 total energy-change (2. order) :-0.5909847E-01  (-0.2514403E-01)
 number of electron     255.9999995 magnetization 
 augmentation part        5.9064941 magnetization 

 Broyden mixing:
  rms(total) = 0.21319E-01    rms(broyden)= 0.21024E-01
  rms(prec ) = 0.25869E-01
  weight for this iteration     100.00

 eigenvalues of (default mixing * dielectric matrix)
  average eigenvalue GAMMA=   2.1028
  1.4641  2.6851  2.1591

 Free energy of the ion-electron system (eV)
  ---------------------------------------------------
  alpha Z        PSCENC =       901.78782685
  Ewald energy   TEWEN  =    -11062.66292856
  -Hartree energ DENC   =      -852.97784241
  -exchange      EXHF   =         0.00000000
  -V(xc)+E(xc)   XCENC  =       937.12152764
  PAW double counting   =      4144.96604830    -4225.62677499
  entropy T*S    EENTRO =        -0.00000000
  eigenvalues    EBANDS =       159.54639252
  atomic energy  EATOM  =      9416.14232778
  Solvation  Ediel_sol  =         0.00000000
  ---------------------------------------------------
  free energy    TOTEN  =      -581.70342286 eV

  energy without entropy =     -581.70342286  energy(sigma->0) =     -581.70342286


--------------------------------------------------------------------------------------------------------




--------------------------------------- Iteration      1(   9)  ---------------------------------------


    POTLOK:  cpu time    0.0686: real time    0.0690
    SETDIJ:  cpu time    0.0446: real time    0.0446
     EDDAV:  cpu time   27.7852: real time   27.7866
       DOS:  cpu time    0.0040: real time    0.0040
    CHARGE:  cpu time    0.6456: real time    0.6457
    MIXING:  cpu time    0.0069: real time    0.0069
    --------------------------------------------
      LOOP:  cpu time   28.5550: real time   28.5568

 eigenvalue-minimisations  : 15840
 total energy-change (2. order) :-0.2155721E-02  (-0.3693896E-03)
 number of electron     255.9999995 magnetization 
 augmentation part        5.9054649 magnetization 

 Broyden mixing:
  rms(total) = 0.80376E-02    rms(broyden)= 0.80158E-02
  rms(prec ) = 0.10218E-01
  weight for this iteration     100.00

 eigenvalues of (default mixing * dielectric matrix)
  average eigenvalue GAMMA=   2.0298
  0.9581  2.7435  2.4390  1.9786

 Free energy of the ion-electron system (eV)
  ---------------------------------------------------
  alpha Z        PSCENC =       901.78782685
  Ewald energy   TEWEN  =    -11062.66292856
  -Hartree energ DENC   =      -852.51087271
  -exchange      EXHF   =         0.00000000
  -V(xc)+E(xc)   XCENC  =       937.07596044
  PAW double counting   =      4140.72701057    -4221.28664089
  entropy T*S    EENTRO =        -0.00000000
  eigenvalues    EBANDS =       159.02173793
  atomic energy  EATOM  =      9416.14232778
  Solvation  Ediel_sol  =         0.00000000
  ---------------------------------------------------
  free energy    TOTEN  =      -581.70557858 eV

  energy without entropy =     -581.70557858  energy(sigma->0) =     -581.70557858


--------------------------------------------------------------------------------------------------------




--------------------------------------- Iteration      1(  10)  ---------------------------------------


    POTLOK:  cpu time    0.0623: real time    0.0629
    SETDIJ:  cpu time    0.0507: real time    0.0507
     EDDAV:  cpu time   26.3381: real time   26.3394
       DOS:  cpu time    0.0038: real time    0.0038
    CHARGE:  cpu time    0.6455: real time    0.6455
    MIXING:  cpu time    0.0079: real time    0.0079
    --------------------------------------------
      LOOP:  cpu time   27.1083: real time   27.1102

 eigenvalue-minimisations  : 14816
 total energy-change (2. order) :-0.4617656E-03  (-0.4057956E-04)
 number of electron     255.9999995 magnetization 
 augmentation part        5.9051734 magnetization 

 Broyden mixing:
  rms(total) = 0.81711E-03    rms(broyden)= 0.80146E-03
  rms(prec ) = 0.12122E-02
  weight for this iteration     100.00

 eigenvalues of (default mixing * dielectric matrix)
  average eigenvalue GAMMA=   1.9573
  2.9381  2.5510  2.0635  0.9845  1.2494

 Free energy of the ion-electron system (eV)
  ---------------------------------------------------
  alpha Z        PSCENC =       901.78782685
  Ewald energy   TEWEN  =    -11062.66292856
  -Hartree energ DENC   =      -852.91050515
  -exchange      EXHF   =         0.00000000
  -V(xc)+E(xc)   XCENC  =       937.11076430
  PAW double counting   =      4137.29626934    -4217.86994071
  entropy T*S    EENTRO =        -0.00000000
  eigenvalues    EBANDS =       159.40014580
  atomic energy  EATOM  =      9416.14232778
  Solvation  Ediel_sol  =         0.00000000
  ---------------------------------------------------
  free energy    TOTEN  =      -581.70604034 eV

  energy without entropy =     -581.70604034  energy(sigma->0) =     -581.70604034


--------------------------------------------------------------------------------------------------------




--------------------------------------- Iteration      1(  11)  ---------------------------------------


    POTLOK:  cpu time    0.0627: real time    0.0643
    SETDIJ:  cpu time    0.0441: real time    0.0441
     EDDAV:  cpu time   27.6837: real time   27.6851
       DOS:  cpu time    0.0038: real time    0.0038
    CHARGE:  cpu time    0.6483: real time    0.6484
    MIXING:  cpu time    0.0051: real time    0.0051
    --------------------------------------------
      LOOP:  cpu time   28.4477: real time   28.4508

 eigenvalue-minimisations  : 16224
 total energy-change (2. order) :-0.6271131E-05  (-0.1172083E-05)
 number of electron     255.9999995 magnetization 
 augmentation part        5.9049854 magnetization 

 Broyden mixing:
  rms(total) = 0.22475E-03    rms(broyden)= 0.21934E-03
  rms(prec ) = 0.29134E-03
  weight for this iteration     100.00

 eigenvalues of (default mixing * dielectric matrix)
  average eigenvalue GAMMA=   1.9804
  2.9558  2.5545  2.3635  2.0238  0.9923  0.9923

 Free energy of the ion-electron system (eV)
  ---------------------------------------------------
  alpha Z        PSCENC =       901.78782685
  Ewald energy   TEWEN  =    -11062.66292856
  -Hartree energ DENC   =      -853.03049542
  -exchange      EXHF   =         0.00000000
  -V(xc)+E(xc)   XCENC  =       937.12187768
  PAW double counting   =      4137.55984206    -4218.13820663
  entropy T*S    EENTRO =        -0.00000000
  eigenvalues    EBANDS =       159.51370961
  atomic energy  EATOM  =      9416.14232778
  Solvation  Ediel_sol  =         0.00000000
  ---------------------------------------------------
  free energy    TOTEN  =      -581.70604662 eV

  energy without entropy =     -581.70604662  energy(sigma->0) =     -581.70604662


--------------------------------------------------------------------------------------------------------




--------------------------------------- Iteration      1(  12)  ---------------------------------------


    POTLOK:  cpu time    0.0774: real time    0.0778
    SETDIJ:  cpu time    0.0428: real time    0.0428
     EDDAV:  cpu time   27.0362: real time   27.0376
       DOS:  cpu time    0.0038: real time    0.0038
    CHARGE:  cpu time    0.6445: real time    0.6445
    MIXING:  cpu time    0.0050: real time    0.0050
    --------------------------------------------
      LOOP:  cpu time   27.8097: real time   27.8114

 eigenvalue-minimisations  : 15840
 total energy-change (2. order) :-0.9637915E-07  (-0.4067910E-07)
 number of electron     255.9999995 magnetization 
 augmentation part        5.9050020 magnetization 

 Broyden mixing:
  rms(total) = 0.29636E-04    rms(broyden)= 0.28143E-04
  rms(prec ) = 0.39155E-04
  weight for this iteration     100.00

 eigenvalues of (default mixing * dielectric matrix)
  average eigenvalue GAMMA=   1.9182
  2.8670  2.6575  2.5310  2.0458  0.9977  0.9977  1.3309

 Free energy of the ion-electron system (eV)
  ---------------------------------------------------
  alpha Z        PSCENC =       901.78782685
  Ewald energy   TEWEN  =    -11062.66292856
  -Hartree energ DENC   =      -853.01527532
  -exchange      EXHF   =         0.00000000
  -V(xc)+E(xc)   XCENC  =       937.12047172
  PAW double counting   =      4137.62209491    -4218.19883131
  entropy T*S    EENTRO =        -0.00000000
  eigenvalues    EBANDS =       159.49826721
  atomic energy  EATOM  =      9416.14232778
  Solvation  Ediel_sol  =         0.00000000
  ---------------------------------------------------
  free energy    TOTEN  =      -581.70604671 eV

  energy without entropy =     -581.70604671  energy(sigma->0) =     -581.70604671


--------------------------------------------------------------------------------------------------------




--------------------------------------- Iteration      1(  13)  ---------------------------------------


    POTLOK:  cpu time    0.0627: real time    0.0630
    SETDIJ:  cpu time    0.0426: real time    0.0426
     EDDAV:  cpu time   22.7443: real time   22.7454
       DOS:  cpu time    0.0038: real time    0.0038
    CHARGE:  cpu time    0.6563: real time    0.6563
    MIXING:  cpu time    0.0056: real time    0.0056
    --------------------------------------------
      LOOP:  cpu time   23.5153: real time   23.5168

 eigenvalue-minimisations  : 11872
 total energy-change (2. order) :-0.8573079E-07  (-0.7699380E-09)
 number of electron     255.9999995 magnetization 
 augmentation part        5.9050006 magnetization 

 Broyden mixing:
  rms(total) = 0.10068E-04    rms(broyden)= 0.83711E-05
  rms(prec ) = 0.10933E-04
  weight for this iteration     100.00
  WARNING: grid for Broyden might be to small

 eigenvalues of (default mixing * dielectric matrix)
  average eigenvalue GAMMA=   1.9459
  2.9711  2.5741  2.4636  2.4636  2.0413  0.9931  0.9931  1.0675

 Free energy of the ion-electron system (eV)
  ---------------------------------------------------
  alpha Z        PSCENC =       901.78782685
  Ewald energy   TEWEN  =    -11062.66292856
  -Hartree energ DENC   =      -853.01256541
  -exchange      EXHF   =         0.00000000
  -V(xc)+E(xc)   XCENC  =       937.12021773
  PAW double counting   =      4137.61878651    -4218.19539506
  entropy T*S    EENTRO =        -0.00000000
  eigenvalues    EBANDS =       159.49568336
  atomic energy  EATOM  =      9416.14232778
  Solvation  Ediel_sol  =         0.00000000
  ---------------------------------------------------
  free energy    TOTEN  =      -581.70604680 eV

  energy without entropy =     -581.70604680  energy(sigma->0) =     -581.70604680


--------------------------------------------------------------------------------------------------------




--------------------------------------- Iteration      1(  14)  ---------------------------------------


    POTLOK:  cpu time    0.0633: real time    0.0637
    SETDIJ:  cpu time    0.0403: real time    0.0403
     EDDAV:  cpu time   21.1681: real time   21.1692
       DOS:  cpu time    0.0037: real time    0.0037
    CHARGE:  cpu time    0.6503: real time    0.6504
    MIXING:  cpu time    0.0055: real time    0.0054
    --------------------------------------------
      LOOP:  cpu time   21.9312: real time   21.9327

 eigenvalue-minimisations  : 10688
 total energy-change (2. order) :-0.1642184E-07  (-0.1623453E-09)
 number of electron     255.9999995 magnetization 
 augmentation part        5.9050010 magnetization 

 Broyden mixing:
  rms(total) = 0.60737E-05    rms(broyden)= 0.27437E-05
  rms(prec ) = 0.37825E-05
  weight for this iteration     100.00
  WARNING: grid for Broyden might be to small

 eigenvalues of (default mixing * dielectric matrix)
  average eigenvalue GAMMA=   1.8455
  2.9425  2.6302  2.4675  2.0675  2.0675  0.9985  0.9985  0.9510  1.4862

 Free energy of the ion-electron system (eV)
  ---------------------------------------------------
  alpha Z        PSCENC =       901.78782685
  Ewald energy   TEWEN  =    -11062.66292856
  -Hartree energ DENC   =      -853.01210859
  -exchange      EXHF   =         0.00000000
  -V(xc)+E(xc)   XCENC  =       937.12017719
  PAW double counting   =      4137.61791909    -4218.19446409
  entropy T*S    EENTRO =        -0.00000000
  eigenvalues    EBANDS =       159.49520352
  atomic energy  EATOM  =      9416.14232778
  Solvation  Ediel_sol  =         0.00000000
  ---------------------------------------------------
  free energy    TOTEN  =      -581.70604681 eV

  energy without entropy =     -581.70604681  energy(sigma->0) =     -581.70604681


--------------------------------------------------------------------------------------------------------




--------------------------------------- Iteration      1(  15)  ---------------------------------------


    POTLOK:  cpu time    0.0751: real time    0.0755
    SETDIJ:  cpu time    0.0398: real time    0.0398
     EDDAV:  cpu time   19.7501: real time   19.7511
       DOS:  cpu time    0.0040: real time    0.0040
    --------------------------------------------
      LOOP:  cpu time   19.8690: real time   19.8704

 eigenvalue-minimisations  :  9440
 total energy-change (2. order) :-0.5478796E-08  (-0.3025585E-10)
 number of electron     255.9999995 magnetization 
 augmentation part        5.9050010 magnetization 

 Free energy of the ion-electron system (eV)
  ---------------------------------------------------
  alpha Z        PSCENC =       901.78782685
  Ewald energy   TEWEN  =    -11062.66292856
  -Hartree energ DENC   =      -853.01242845
  -exchange      EXHF   =         0.00000000
  -V(xc)+E(xc)   XCENC  =       937.12020701
  PAW double counting   =      4137.61921111    -4218.19578236
  entropy T*S    EENTRO =        -0.00000000
  eigenvalues    EBANDS =       159.49551979
  atomic energy  EATOM  =      9416.14232778
  Solvation  Ediel_sol  =         0.00000000
  ---------------------------------------------------
  free energy    TOTEN  =      -581.70604682 eV

  energy without entropy =     -581.70604682  energy(sigma->0) =     -581.70604682


--------------------------------------------------------------------------------------------------------




 average (electrostatic) potential at core
  the test charge radii are     0.6991
  (the norm of the test charge is              1.0000)
       1 -45.6566       2 -45.6566       3 -45.6566       4 -45.6566       5 -45.6566
       6 -45.6566       7 -45.6566       8 -45.6566       9 -45.6566      10 -45.6566
      11 -45.6566      12 -45.6566      13 -45.6566      14 -45.6566      15 -45.6566
      16 -45.6566      17 -45.6566      18 -45.6566      19 -45.6566      20 -45.6566
      21 -45.6566      22 -45.6566      23 -45.6566      24 -45.6566      25 -45.6566
      26 -45.6566      27 -45.6566      28 -45.6566      29 -45.6566      30 -45.6566
      31 -45.6566      32 -45.6566      33 -45.6566      34 -45.6566      35 -45.6566
      36 -45.6566      37 -45.6566      38 -45.6566      39 -45.6566      40 -45.6566
      41 -45.6566      42 -45.6566      43 -45.6566      44 -45.6566      45 -45.6566
      46 -45.6566      47 -45.6566      48 -45.6566      49 -45.6566      50 -45.6566
      51 -45.6566      52 -45.6566      53 -45.6566      54 -45.6566      55 -45.6566
      56 -45.6566      57 -45.6566      58 -45.6566      59 -45.6566      60 -45.6566
      61 -45.6566      62 -45.6566      63 -45.6566      64 -45.6566
 
 
 
 E-fermi :   9.7877     XC(G=0): -13.1267     alpha+bet :-17.3605


 k-point     1 :       0.0000    0.0000    0.0000
  band No.  band energies     occupation 
      1     -11.7431      2.00000
      2      -9.4893      2.00000
      3      -9.4893      2.00000
      4      -9.4893      2.00000
      5      -9.4893      2.00000
      6      -9.4893      2.00000
      7      -9.4893      2.00000
      8      -7.3919      2.00000
      9      -7.3919      2.00000
     10      -7.3919      2.00000
     11      -7.3919      2.00000
     12      -7.3919      2.00000
     13      -7.3919      2.00000
     14      -7.2886      2.00000
     15      -7.2886      2.00000
     16      -7.2886      2.00000
     17      -7.2886      2.00000
     18      -7.2886      2.00000
     19      -7.2886      2.00000
     20      -6.1500      2.00000
     21      -6.1500      2.00000
     22      -6.1500      2.00000
     23      -5.8649      2.00000
     24      -3.7013      2.00000
     25      -3.6772      2.00000
     26      -3.6772      2.00000
     27      -3.6772      2.00000
     28      -3.2129      2.00000
     29      -3.2129      2.00000
     30      -3.2129      2.00000
     31      -3.0947      2.00000
     32      -3.0947      2.00000
     33      -3.0947      2.00000
     34      -2.5233      2.00000
     35      -2.5233      2.00000
     36      -2.5233      2.00000
     37      -2.5233      2.00000
     38      -2.5233      2.00000
     39      -2.5233      2.00000
     40      -2.2638      2.00000
     41      -2.2638      2.00000
     42      -2.2638      2.00000
     43      -2.2638      2.00000
     44      -2.2638      2.00000
     45      -2.2638      2.00000
     46       0.8328      2.00000
     47       0.8328      2.00000
     48       0.8328      2.00000
     49       0.8328      2.00000
     50       0.8328      2.00000
     51       0.8328      2.00000
     52       0.9041      2.00000
     53       0.9041      2.00000
     54       0.9041      2.00000
     55       0.9041      2.00000
     56       0.9041      2.00000
     57       0.9041      2.00000
     58       1.3230      2.00000
     59       1.3230      2.00000
     60       1.3230      2.00000
     61       1.3230      2.00000
     62       1.3230      2.00000
     63       1.3230      2.00000
     64       1.3252      2.00000
     65       1.3252      2.00000
     66       1.3252      2.00000
     67       1.3252      2.00000
     68       1.3252      2.00000
     69       1.3252      2.00000
     70       1.9713      2.00000
     71       1.9713      2.00000
     72       1.9713      2.00000
     73       1.9713      2.00000
     74       1.9713      2.00000
     75       1.9713      2.00000
     76       2.0445      2.00000
     77       2.0445      2.00000
[...]
      4.415699  0.833999  6.281864     0.000000   -0.097998    0.097012  
      0.789800  4.423819  6.281864    -0.000000    0.097998   -0.097012  
      4.379800  4.423819  6.281864     0.000000   -0.097998    0.097012  
     -0.017950  1.794910  0.000000     0.000000   -0.009417    0.009322  
      3.572049  1.794910  0.000000    -0.000000    0.009417   -0.009322  
     -0.053850  5.384729  0.000000     0.000000   -0.009417    0.009322  
      3.536150  5.384729  0.000000    -0.000000    0.009417   -0.009322  
     -0.053850  1.758649  3.589637     0.000000   -0.009417    0.009322  
      3.536150  1.758649  3.589637    -0.000000    0.009417   -0.009322  
     -0.089750  5.348469  3.589637     0.000000   -0.009417    0.009322  
      3.500250  5.348469  3.589637    -0.000000    0.009417   -0.009322  
      2.638650  2.665169  2.692228    -0.000000    0.078609   -0.077818  
      6.228649  2.665169  2.692228     0.000000   -0.078609    0.077818  
      2.602750  6.254989  2.692228    -0.000000    0.078609   -0.077818  
      6.192749  6.254989  2.692228     0.000000   -0.078609    0.077818  
      2.602750  2.628909  6.281864    -0.000000    0.078609   -0.077818  
      6.192749  2.628909  6.281864     0.000000   -0.078609    0.077818  
      2.566850  6.218728  6.281864    -0.000000    0.078609   -0.077818  
      6.156849  6.218728  6.281864     0.000000   -0.078609    0.077818  
      1.795000  0.000000  0.000000    -0.000000    0.125277   -0.124017  
      5.384999  0.000000  0.000000     0.000000   -0.125277    0.124017  
      1.759100  3.589820  0.000000    -0.000000    0.125277   -0.124017  
      5.349099  3.589820  0.000000     0.000000   -0.125277    0.124017  
      1.759100 -0.036261  3.589637    -0.000000    0.125277   -0.124017  
      5.349099 -0.036261  3.589637     0.000000   -0.125277    0.124017  
      1.723200  3.553559  3.589637    -0.000000    0.125277   -0.124017  
      5.313199  3.553559  3.589637     0.000000   -0.125277    0.124017  
      2.674550  0.888390  0.897409    -0.000000    0.078609   -0.077818  
      6.264549  0.888390  0.897409     0.000000   -0.078609    0.077818  
      2.638650  4.478209  0.897409    -0.000000    0.078609   -0.077818  
      6.228649  4.478209  0.897409     0.000000   -0.078609    0.077818  
      2.638650  0.852129  4.487046    -0.000000    0.078609   -0.077818  
      6.228649  0.852129  4.487046     0.000000   -0.078609    0.077818  
      2.602750  4.441949  4.487046    -0.000000    0.078609   -0.077818  
      6.192749  4.441949  4.487046     0.000000   -0.078609    0.077818  
      1.759100  1.776780  1.794818    -0.000000    0.125277   -0.124017  
      5.349099  1.776780  1.794818     0.000000   -0.125277    0.124017  
      1.723200  5.366599  1.794818    -0.000000    0.125277   -0.124017  
      5.313199  5.366599  1.794818     0.000000   -0.125277    0.124017  
      1.723200  1.740519  5.384455    -0.000000    0.125277   -0.124017  
      5.313199  1.740519  5.384455     0.000000   -0.125277    0.124017  
      1.687300  5.330339  5.384455    -0.000000    0.125277   -0.124017  
      5.277299  5.330339  5.384455     0.000000   -0.125277    0.124017  
 
 190 f  =    0.000002 THz     0.000016 2PiTHz    0.000083 cm-1     0.000010 meV
             X         Y         Z           dx          dy          dz
      0.861600  2.683300  0.897409    -0.088363   -0.043791   -0.076807  
      4.451599  2.683300  0.897409    -0.088363   -0.043791   -0.076807  
      0.825700  6.273119  0.897409    -0.088363   -0.043791   -0.076807  
      4.415699  6.273119  0.897409    -0.088363   -0.043791   -0.076807  
      0.825700  2.647039  4.487046    -0.088363   -0.043791   -0.076807  
      4.415699  2.647039  4.487046    -0.088363   -0.043791   -0.076807  
      0.789800  6.236859  4.487046    -0.088363   -0.043791   -0.076807  
      4.379800  6.236859  4.487046    -0.088363   -0.043791   -0.076807  
     -0.017950 -0.018130  1.794818    -0.088363   -0.043791   -0.076807  
      3.572049 -0.018130  1.794818    -0.088363   -0.043791   -0.076807  
     -0.053850  3.571689  1.794818    -0.088363   -0.043791   -0.076807  
      3.536150  3.571689  1.794818    -0.088363   -0.043791   -0.076807  
     -0.053850 -0.054391  5.384455    -0.088363   -0.043791   -0.076807  
      3.536150 -0.054391  5.384455    -0.088363   -0.043791   -0.076807  
     -0.089750  3.535429  5.384455    -0.088363   -0.043791   -0.076807  
      3.500250  3.535429  5.384455    -0.088363   -0.043791   -0.076807  
      0.861600  0.870259  2.692228    -0.088363   -0.043791   -0.076807  
      4.451599  0.870259  2.692228    -0.088363   -0.043791   -0.076807  
      0.825700  4.460079  2.692228    -0.088363   -0.043791   -0.076807  
      4.415699  4.460079  2.692228    -0.088363   -0.043791   -0.076807  
      0.825700  0.833999  6.281864    -0.088363   -0.043791   -0.076807  
      4.415699  0.833999  6.281864    -0.088363   -0.043791   -0.076807  
      0.789800  4.423819  6.281864    -0.088363   -0.043791   -0.076807  
      4.379800  4.423819  6.281864    -0.088363   -0.043791   -0.076807  
     -0.017950  1.794910  0.000000    -0.088363   -0.043791   -0.076807  
      3.572049  1.794910  0.000000    -0.088363   -0.043791   -0.076807  
     -0.053850  5.384729  0.000000    -0.088363   -0.043791   -0.076807  
      3.536150  5.384729  0.000000    -0.088363   -0.043791   -0.076807  
     -0.053850  1.758649  3.589637    -0.088363   -0.043791   -0.076807  
      3.536150  1.758649  3.589637    -0.088363   -0.043791   -0.076807  
     -0.089750  5.348469  3.589637    -0.088363   -0.043791   -0.076807  
      3.500250  5.348469  3.589637    -0.088363   -0.043791   -0.076807  
      2.638650  2.665169  2.692228    -0.088363   -0.043791   -0.076807  
      6.228649  2.665169  2.692228    -0.088363   -0.043791   -0.076807  
      2.602750  6.254989  2.692228    -0.088363   -0.043791   -0.076807  
      6.192749  6.254989  2.692228    -0.088363   -0.043791   -0.076807  
      2.602750  2.628909  6.281864    -0.088363   -0.043791   -0.076807  
      6.192749  2.628909  6.281864    -0.088363   -0.043791   -0.076807  
      2.566850  6.218728  6.281864    -0.088363   -0.043791   -0.076807  
      6.156849  6.218728  6.281864    -0.088363   -0.043791   -0.076807  
      1.795000  0.000000  0.000000    -0.088363   -0.043791   -0.076807  
      5.384999  0.000000  0.000000    -0.088363   -0.043791   -0.076807  
      1.759100  3.589820  0.000000    -0.088363   -0.043791   -0.076807  
      5.349099  3.589820  0.000000    -0.088363   -0.043791   -0.076807  
      1.759100 -0.036261  3.589637    -0.088363   -0.043791   -0.076807  
      5.349099 -0.036261  3.589637    -0.088363   -0.043791   -0.076807  
      1.723200  3.553559  3.589637    -0.088363   -0.043791   -0.076807  
      5.313199  3.553559  3.589637    -0.088363   -0.043791   -0.076807  
      2.674550  0.888390  0.897409    -0.088363   -0.043791   -0.076807  
      6.264549  0.888390  0.897409    -0.088363   -0.043791   -0.076807  
      2.638650  4.478209  0.897409    -0.088363   -0.043791   -0.076807  
      6.228649  4.478209  0.897409    -0.088363   -0.043791   -0.076807  
      2.638650  0.852129  4.487046    -0.088363   -0.043791   -0.076807  
      6.228649  0.852129  4.487046    -0.088363   -0.043791   -0.076807  
      2.602750  4.441949  4.487046    -0.088363   -0.043791   -0.076807  
      6.192749  4.441949  4.487046    -0.088363   -0.043791   -0.076807  
      1.759100  1.776780  1.794818    -0.088363   -0.043791   -0.076807  
      5.349099  1.776780  1.794818    -0.088363   -0.043791   -0.076807  
      1.723200  5.366599  1.794818    -0.088363   -0.043791   -0.076807  
      5.313199  5.366599  1.794818    -0.088363   -0.043791   -0.076807  
      1.723200  1.740519  5.384455    -0.088363   -0.043791   -0.076807  
      5.313199  1.740519  5.384455    -0.088363   -0.043791   -0.076807  
      1.687300  5.330339  5.384455    -0.088363   -0.043791   -0.076807  
      5.277299  5.330339  5.384455    -0.088363   -0.043791   -0.076807  
 
 191 f  =    0.000002 THz     0.000011 2PiTHz    0.000058 cm-1     0.000007 meV
             X         Y         Z           dx          dy          dz
      0.861600  2.683300  0.897409    -0.079623   -0.007791    0.096044  
      4.451599  2.683300  0.897409    -0.079623   -0.007791    0.096044  
      0.825700  6.273119  0.897409    -0.079623   -0.007791    0.096044  
      4.415699  6.273119  0.897409    -0.079623   -0.007791    0.096044  
      0.825700  2.647039  4.487046    -0.079623   -0.007791    0.096044  
      4.415699  2.647039  4.487046    -0.079623   -0.007791    0.096044  
      0.789800  6.236859  4.487046    -0.079623   -0.007791    0.096044  
      4.379800  6.236859  4.487046    -0.079623   -0.007791    0.096044  
     -0.017950 -0.018130  1.794818    -0.079623   -0.007791    0.096044  
      3.572049 -0.018130  1.794818    -0.079623   -0.007791    0.096044  
     -0.053850  3.571689  1.794818    -0.079623   -0.007791    0.096044  
      3.536150  3.571689  1.794818    -0.079623   -0.007791    0.096044  
     -0.053850 -0.054391  5.384455    -0.079623   -0.007791    0.096044  
      3.536150 -0.054391  5.384455    -0.079623   -0.007791    0.096044  
     -0.089750  3.535429  5.384455    -0.079623   -0.007791    0.096044  
      3.500250  3.535429  5.384455    -0.079623   -0.007791    0.096044  
      0.861600  0.870259  2.692228    -0.079623   -0.007791    0.096044  
      4.451599  0.870259  2.692228    -0.079623   -0.007791    0.096044  
      0.825700  4.460079  2.692228    -0.079623   -0.007791    0.096044  
      4.415699  4.460079  2.692228    -0.079623   -0.007791    0.096044  
      0.825700  0.833999  6.281864    -0.079623   -0.007791    0.096044  
      4.415699  0.833999  6.281864    -0.079623   -0.007791    0.096044  
      0.789800  4.423819  6.281864    -0.079623   -0.007791    0.096044  
      4.379800  4.423819  6.281864    -0.079623   -0.007791    0.096044  
     -0.017950  1.794910  0.000000    -0.079623   -0.007791    0.096044  
      3.572049  1.794910  0.000000    -0.079623   -0.007791    0.096044  
     -0.053850  5.384729  0.000000    -0.079623   -0.007791    0.096044  
      3.536150  5.384729  0.000000    -0.079623   -0.007791    0.096044  
     -0.053850  1.758649  3.589637    -0.079623   -0.007791    0.096044  
      3.536150  1.758649  3.589637    -0.079623   -0.007791    0.096044  
     -0.089750  5.348469  3.589637    -0.079623   -0.007791    0.096044  
      3.500250  5.348469  3.589637    -0.079623   -0.007791    0.096044  
      2.638650  2.665169  2.692228    -0.079623   -0.007791    0.096044  
      6.228649  2.665169  2.692228    -0.079623   -0.007791    0.096044  
      2.602750  6.254989  2.692228    -0.079623   -0.007791    0.096044  
      6.192749  6.254989  2.692228    -0.079623   -0.007791    0.096044  
      2.602750  2.628909  6.281864    -0.079623   -0.007791    0.096044  
      6.192749  2.628909  6.281864    -0.079623   -0.007791    0.096044  
      2.566850  6.218728  6.281864    -0.079623   -0.007791    0.096044  
      6.156849  6.218728  6.281864    -0.079623   -0.007791    0.096044  
      1.795000  0.000000  0.000000    -0.079623   -0.007791    0.096044  
      5.384999  0.000000  0.000000    -0.079623   -0.007791    0.096044  
      1.759100  3.589820  0.000000    -0.079623   -0.007791    0.096044  
      5.349099  3.589820  0.000000    -0.079623   -0.007791    0.096044  
      1.759100 -0.036261  3.589637    -0.079623   -0.007791    0.096044  
      5.349099 -0.036261  3.589637    -0.079623   -0.007791    0.096044  
      1.723200  3.553559  3.589637    -0.079623   -0.007791    0.096044  
      5.313199  3.553559  3.589637    -0.079623   -0.007791    0.096044  
      2.674550  0.888390  0.897409    -0.079623   -0.007791    0.096044  
      6.264549  0.888390  0.897409    -0.079623   -0.007791    0.096044  
      2.638650  4.478209  0.897409    -0.079623   -0.007791    0.096044  
      6.228649  4.478209  0.897409    -0.079623   -0.007791    0.096044  
      2.638650  0.852129  4.487046    -0.079623   -0.007791    0.096044  
      6.228649  0.852129  4.487046    -0.079623   -0.007791    0.096044  
      2.602750  4.441949  4.487046    -0.079623   -0.007791    0.096044  
      6.192749  4.441949  4.487046    -0.079623   -0.007791    0.096044  
      1.759100  1.776780  1.794818    -0.079623   -0.007791    0.096044  
      5.349099  1.776780  1.794818    -0.079623   -0.007791    0.096044  
      1.723200  5.366599  1.794818    -0.079623   -0.007791    0.096044  
      5.313199  5.366599  1.794818    -0.079623   -0.007791    0.096044  
      1.723200  1.740519  5.384455    -0.079623   -0.007791    0.096044  
      5.313199  1.740519  5.384455    -0.079623   -0.007791    0.096044  
      1.687300  5.330339  5.384455    -0.079623   -0.007791    0.096044  
      5.277299  5.330339  5.384455    -0.079623   -0.007791    0.096044  
 
 192 f  =    0.000001 THz     0.000005 2PiTHz    0.000029 cm-1     0.000004 meV
             X         Y         Z           dx          dy          dz
      0.861600  2.683300  0.897409    -0.038434    0.116819   -0.022387  
      4.451599  2.683300  0.897409    -0.038434    0.116819   -0.022387  
      0.825700  6.273119  0.897409    -0.038434    0.116819   -0.022387  
      4.415699  6.273119  0.897409    -0.038434    0.116819   -0.022387  
      0.825700  2.647039  4.487046    -0.038434    0.116819   -0.022387  
      4.415699  2.647039  4.487046    -0.038434    0.116819   -0.022387  
      0.789800  6.236859  4.487046    -0.038434    0.116819   -0.022387  
      4.379800  6.236859  4.487046    -0.038434    0.116819   -0.022387  
     -0.017950 -0.018130  1.794818    -0.038434    0.116819   -0.022387  
      3.572049 -0.018130  1.794818    -0.038434    0.116819   -0.022387  
     -0.053850  3.571689  1.794818    -0.038434    0.116819   -0.022387  
      3.536150  3.571689  1.794818    -0.038434    0.116819   -0.022387  
     -0.053850 -0.054391  5.384455    -0.038434    0.116819   -0.022387  
      3.536150 -0.054391  5.384455    -0.038434    0.116819   -0.022387  
     -0.089750  3.535429  5.384455    -0.038434    0.116819   -0.022387  
      3.500250  3.535429  5.384455    -0.038434    0.116819   -0.022387  
      0.861600  0.870259  2.692228    -0.038434    0.116819   -0.022387  
      4.451599  0.870259  2.692228    -0.038434    0.116819   -0.022387  
      0.825700  4.460079  2.692228    -0.038434    0.116819   -0.022387  
      4.415699  4.460079  2.692228    -0.038434    0.116819   -0.022387  
      0.825700  0.833999  6.281864    -0.038434    0.116819   -0.022387  
      4.415699  0.833999  6.281864    -0.038434    0.116819   -0.022387  
      0.789800  4.423819  6.281864    -0.038434    0.116819   -0.022387  
      4.379800  4.423819  6.281864    -0.038434    0.116819   -0.022387  
     -0.017950  1.794910  0.000000    -0.038434    0.116819   -0.022387  
      3.572049  1.794910  0.000000    -0.038434    0.116819   -0.022387  
     -0.053850  5.384729  0.000000    -0.038434    0.116819   -0.022387  
      3.536150  5.384729  0.000000    -0.038434    0.116819   -0.022387  
     -0.053850  1.758649  3.589637    -0.038434    0.116819   -0.022387  
      3.536150  1.758649  3.589637    -0.038434    0.116819   -0.022387  
     -0.089750  5.348469  3.589637    -0.038434    0.116819   -0.022387  
      3.500250  5.348469  3.589637    -0.038434    0.116819   -0.022387  
      2.638650  2.665169  2.692228    -0.038434    0.116819   -0.022387  
      6.228649  2.665169  2.692228    -0.038434    0.116819   -0.022387  
      2.602750  6.254989  2.692228    -0.038434    0.116819   -0.022387  
      6.192749  6.254989  2.692228    -0.038434    0.116819   -0.022387  
      2.602750  2.628909  6.281864    -0.038434    0.116819   -0.022387  
      6.192749  2.628909  6.281864    -0.038434    0.116819   -0.022387  
      2.566850  6.218728  6.281864    -0.038434    0.116819   -0.022387  
      6.156849  6.218728  6.281864    -0.038434    0.116819   -0.022387  
      1.795000  0.000000  0.000000    -0.038434    0.116819   -0.022387  
      5.384999  0.000000  0.000000    -0.038434    0.116819   -0.022387  
      1.759100  3.589820  0.000000    -0.038434    0.116819   -0.022387  
      5.349099  3.589820  0.000000    -0.038434    0.116819   -0.022387  
      1.759100 -0.036261  3.589637    -0.038434    0.116819   -0.022387  
      5.349099 -0.036261  3.589637    -0.038434    0.116819   -0.022387  
      1.723200  3.553559  3.589637    -0.038434    0.116819   -0.022387  
      5.313199  3.553559  3.589637    -0.038434    0.116819   -0.022387  
      2.674550  0.888390  0.897409    -0.038434    0.116819   -0.022387  
      6.264549  0.888390  0.897409    -0.038434    0.116819   -0.022387  
      2.638650  4.478209  0.897409    -0.038434    0.116819   -0.022387  
      6.228649  4.478209  0.897409    -0.038434    0.116819   -0.022387  
      2.638650  0.852129  4.487046    -0.038434    0.116819   -0.022387  
      6.228649  0.852129  4.487046    -0.038434    0.116819   -0.022387  
      2.602750  4.441949  4.487046    -0.038434    0.116819   -0.022387  
      6.192749  4.441949  4.487046    -0.038434    0.116819   -0.022387  
      1.759100  1.776780  1.794818    -0.038434    0.116819   -0.022387  
      5.349099  1.776780  1.794818    -0.038434    0.116819   -0.022387  
      1.723200  5.366599  1.794818    -0.038434    0.116819   -0.022387  
      5.313199  5.366599  1.794818    -0.038434    0.116819   -0.022387  
      1.723200  1.740519  5.384455    -0.038434    0.116819   -0.022387  
      5.313199  1.740519  5.384455    -0.038434    0.116819   -0.022387  
      1.687300  5.330339  5.384455    -0.038434    0.116819   -0.022387  
      5.277299  5.330339  5.384455    -0.038434    0.116819   -0.022387  
 


--------------------------------------------------------------------------------------------------------



 ELASTIC MODULI CONTR FROM IONIC RELAXATION (kBar)
 Direction    XX          YY          ZZ          XY          YZ          ZX
 --------------------------------------------------------------------------------
 XX          -2.9606     -3.0311     -3.1990     -7.2230     -8.3098     -7.2977
 YY          -3.0311     -3.2606     -3.3749     -7.7730     -7.6985     -8.5524
 ZZ          -3.1990     -3.3749     -3.5831     -8.7962     -8.2670     -8.1838
 XY          -7.2230     -7.7730     -8.7962    -27.4698    -15.9673    -15.7990
 YZ          -8.3098     -7.6985     -8.2670    -15.9673    -28.1117    -16.1363
 ZX          -7.2977     -8.5524     -8.1838    -15.7990    -16.1363    -27.7887
 --------------------------------------------------------------------------------



--------------------------------------------------------------------------------------------------------


     LOOP+:  cpu time 1226.9233: real time 1228.5228
    4ORBIT:  cpu time    0.0000: real time    0.0000

 total amount of memory used by VASP MPI-rank0    83596. kBytes
=======================================================================

   base      :      30000. kBytes
   nonl-proj :      20742. kBytes
   fftplans  :       4537. kBytes
   grid      :       5806. kBytes
   one-center:        196. kBytes
   wavefun   :      22315. kBytes
 
  
  
 General timing and accounting informations for this job:
 ========================================================
  
                  Total CPU time used (sec):     1239.269
                            User time (sec):     1232.097
                          System time (sec):        7.171
                         Elapsed time (sec):     1241.205
  
                   Maximum memory used (kb):      432248.
                   Average memory used (kb):           0.
  
                          Minor page faults:        39317
                          Major page faults:           36
                 Voluntary context switches:          850
