# Thermal properties / unit cell (natom)

unit:
  temperature:   K
  free_energy:   kJ/mol
  entropy:       J/K/mol
  heat_capacity: J/K/mol

natom: 8    
cutoff_frequency:    0.000
num_modes: 2654208
num_integrated_modes: 2654208

zero_point_energy:     136.3214401
high_T_entropy:        436.3669833

thermal_properties:
- temperature:         0.0000000
  free_energy:       136.3214401
  entropy:             0.0000000
  heat_capacity:       0.0000000
  energy:            136.3214401

- temperature:         2.0000000
  free_energy:       136.3214401
  entropy:             0.0000000
  heat_capacity:       0.0000000
  energy:            136.3214401

- temperature:         4.0000000
  free_energy:       136.3214401
  entropy:             0.0000091
  heat_capacity:       0.0000566
  energy:            136.3214402

- temperature:         6.0000000
  free_energy:       136.3214401
  entropy:             0.0000732
  heat_capacity:       0.0003130
  energy:            136.3214405

- temperature:         8.0000000
  free_energy:       136.3214398
  entropy:             0.0002242
  heat_capacity:       0.0008034
  energy:            136.3214416

- temperature:        10.0000000
  free_energy:       136.3214391
  entropy:             0.0004819
  heat_capacity:       0.0015915
  energy:            136.3214439

- temperature:        12.0000000
  free_energy:       136.3214378
  entropy:             0.0008689
  heat_capacity:       0.0027594
  energy:            136.3214482

- temperature:        14.0000000
  free_energy:       136.3214355
  entropy:             0.0014102
  heat_capacity:       0.0043881
  energy:            136.3214553

- temperature:        16.0000000
  free_energy:       136.3214320
  entropy:             0.0021313
  heat_capacity:       0.0065582
  energy:            136.3214661

- temperature:        18.0000000
  free_energy:       136.3214269
  entropy:             0.0030585
  heat_capacity:       0.0093500
  energy:            136.3214819

- temperature:        20.0000000
  free_energy:       136.3214196
  entropy:             0.0042179
  heat_capacity:       0.0128444
  energy:            136.3215040

- temperature:        22.0000000
  free_energy:       136.3214098
  entropy:             0.0056362
  heat_capacity:       0.0171237
  energy:            136.3215338

- temperature:        24.0000000
  free_energy:       136.3213969
  entropy:             0.0073403
  heat_capacity:       0.0222714
  energy:            136.3215731

- temperature:        26.0000000
  free_energy:       136.3213803
  entropy:             0.0093572
  heat_capacity:       0.0283727
  energy:            136.3216235

- temperature:        28.0000000
  free_energy:       136.3213592
  entropy:             0.0117146
  heat_capacity:       0.0355144
  energy:            136.3216872

- temperature:        30.0000000
  free_energy:       136.3213331
  entropy:             0.0144401
  heat_capacity:       0.0437858
  energy:            136.3217664

- temperature:        32.0000000
  free_energy:       136.3213012
  entropy:             0.0175622
  heat_capacity:       0.0532784
  energy:            136.3218632

- temperature:        34.0000000
  free_energy:       136.3212626
  entropy:             0.0211096
  heat_capacity:       0.0640869
  energy:            136.3219803

- temperature:        36.0000000
  free_energy:       136.3212165
  entropy:             0.0251117
  heat_capacity:       0.0763088
  energy:            136.3221205

- temperature:        38.0000000
  free_energy:       136.3211618
  entropy:             0.0295984
  heat_capacity:       0.0900457
  energy:            136.3222866

- temperature:        40.0000000
  free_energy:       136.3210977
  entropy:             0.0346005
  heat_capacity:       0.1054039
  energy:            136.3224818

- temperature:        42.0000000
  free_energy:       136.3210231
  entropy:             0.0401495
  heat_capacity:       0.1224943
  energy:            136.3227094

- temperature:        44.0000000
  free_energy:       136.3209368
  entropy:             0.0462776
  heat_capacity:       0.1414344
  energy:            136.3229730

- temperature:        46.0000000
  free_energy:       136.3208376
  entropy:             0.0530185
  heat_capacity:       0.1623480
  energy:            136.3232764

- temperature:        48.0000000
  free_energy:       136.3207242
  entropy:             0.0604066
  heat_capacity:       0.1853669
  energy:            136.3236238

- temperature:        50.0000000
  free_energy:       136.3205955
  entropy:             0.0684779
  heat_capacity:       0.2106314
  energy:            136.3240194

- temperature:        52.0000000
  free_energy:       136.3204499
  entropy:             0.0772698
  heat_capacity:       0.2382911
  energy:            136.3244679

- temperature:        54.0000000
  free_energy:       136.3202859
  entropy:             0.0868213
  heat_capacity:       0.2685056
  energy:            136.3249742

- temperature:        56.0000000
  free_energy:       136.3201020
  entropy:             0.0971730
  heat_capacity:       0.3014446
  energy:            136.3255437

- temperature:        58.0000000
  free_energy:       136.3198966
  entropy:             0.1083675
  heat_capacity:       0.3372885
  energy:            136.3261820

- temperature:        60.0000000
  free_energy:       136.3196680
  entropy:             0.1204494
  heat_capacity:       0.3762284
  energy:            136.3268949

- temperature:        62.0000000
  free_energy:       136.3194142
  entropy:             0.1334653
  heat_capacity:       0.4184654
  energy:            136.3276891

- temperature:        64.0000000
  free_energy:       136.3191335
  entropy:             0.1474638
  heat_capacity:       0.4642105
  energy:            136.3285711

- temperature:        66.0000000
  free_energy:       136.3188237
  entropy:             0.1624958
  heat_capacity:       0.5136834
  energy:            136.3295484

- temperature:        68.0000000
  free_energy:       136.3184828
  entropy:             0.1786141
  heat_capacity:       0.5671118
  energy:            136.3306285

- temperature:        70.0000000
  free_energy:       136.3181085
  entropy:             0.1958740
  heat_capacity:       0.6247303
  energy:            136.3318196

- temperature:        72.0000000
  free_energy:       136.3176985
  entropy:             0.2143324
  heat_capacity:       0.6867787
  energy:            136.3331304

- temperature:        74.0000000
  free_energy:       136.3172503
  entropy:             0.2340483
  heat_capacity:       0.7535008
  energy:            136.3345699

- temperature:        76.0000000
  free_energy:       136.3167614
  entropy:             0.2550827
  heat_capacity:       0.8251429
  energy:            136.3361477

- temperature:        78.0000000
  free_energy:       136.3162290
  entropy:             0.2774980
  heat_capacity:       0.9019523
  energy:            136.3378739

- temperature:        80.0000000
  free_energy:       136.3156504
  entropy:             0.3013582
  heat_capacity:       0.9841754
  energy:            136.3397591

- temperature:        82.0000000
  free_energy:       136.3150226
  entropy:             0.3267288
  heat_capacity:       1.0720567
  energy:            136.3418144

- temperature:        84.0000000
  free_energy:       136.3143425
  entropy:             0.3536760
  heat_capacity:       1.1658371
  energy:            136.3440512

- temperature:        86.0000000
  free_energy:       136.3136068
  entropy:             0.3822674
  heat_capacity:       1.2657525
  energy:            136.3464818

- temperature:        88.0000000
  free_energy:       136.3128123
  entropy:             0.4125710
  heat_capacity:       1.3720329
  energy:            136.3491185

- temperature:        90.0000000
  free_energy:       136.3119553
  entropy:             0.4446555
  heat_capacity:       1.4849007
  energy:            136.3519743

- temperature:        92.0000000
  free_energy:       136.3110324
  entropy:             0.4785896
  heat_capacity:       1.6045705
  energy:            136.3550626

- temperature:        94.0000000
  free_energy:       136.3100397
  entropy:             0.5144424
  heat_capacity:       1.7312476
  energy:            136.3583973

- temperature:        96.0000000
  free_energy:       136.3089733
  entropy:             0.5522826
  heat_capacity:       1.8651274
  energy:            136.3619924

- temperature:        98.0000000
  free_energy:       136.3078292
  entropy:             0.5921788
  heat_capacity:       2.0063953
  energy:            136.3658627

- temperature:       100.0000000
  free_energy:       136.3066032
  entropy:             0.6341988
  heat_capacity:       2.1552255
  energy:            136.3700231

- temperature:       102.0000000
  free_energy:       136.3052909
  entropy:             0.6784101
  heat_capacity:       2.3117815
  energy:            136.3744888

- temperature:       104.0000000
  free_energy:       136.3038880
  entropy:             0.7248789
  heat_capacity:       2.4762151
  energy:            136.3792754

- temperature:       106.0000000
  free_energy:       136.3023899
  entropy:             0.7736707
  heat_capacity:       2.6486669
  energy:            136.3843990

- temperature:       108.0000000
  free_energy:       136.3007918
  entropy:             0.8248498
  heat_capacity:       2.8292659
  energy:            136.3898755

- temperature:       110.0000000
  free_energy:       136.2990888
  entropy:             0.8784791
  heat_capacity:       3.0181298
  energy:            136.3957215

- temperature:       112.0000000
  free_energy:       136.2972762
  entropy:             0.9346203
  heat_capacity:       3.2153650
  energy:            136.4019536

- temperature:       114.0000000
  free_energy:       136.2953486
  entropy:             0.9933334
  heat_capacity:       3.4210669
  energy:            136.4085886

- temperature:       116.0000000
  free_energy:       136.2933011
  entropy:             1.0546770
  heat_capacity:       3.6353199
  energy:            136.4156436

- temperature:       118.0000000
  free_energy:       136.2911281
  entropy:             1.1187079
  heat_capacity:       3.8581981
  energy:            136.4231357

- temperature:       120.0000000
  free_energy:       136.2888244
  entropy:             1.1854814
  heat_capacity:       4.0897652
  energy:            136.4310822

- temperature:       122.0000000
  free_energy:       136.2863844
  entropy:             1.2550509
  heat_capacity:       4.3300751
  energy:            136.4395006

- temperature:       124.0000000
  free_energy:       136.2838023
  entropy:             1.3274680
  heat_capacity:       4.5791722
  energy:            136.4484083

- temperature:       126.0000000
  free_energy:       136.2810725
  entropy:             1.4027824
  heat_capacity:       4.8370915
  energy:            136.4578231

- temperature:       128.0000000
  free_energy:       136.2781892
  entropy:             1.4810421
  heat_capacity:       5.1038595
  energy:            136.4677626

- temperature:       130.0000000
  free_energy:       136.2751464
  entropy:             1.5622931
  heat_capacity:       5.3794941
  energy:            136.4782445

- temperature:       132.0000000
  free_energy:       136.2719380
  entropy:             1.6465794
  heat_capacity:       5.6640051
  energy:            136.4892865

- temperature:       134.0000000
  free_energy:       136.2685580
  entropy:             1.7339434
  heat_capacity:       5.9573945
  energy:            136.5009064

- temperature:       136.0000000
  free_energy:       136.2650002
  entropy:             1.8244252
  heat_capacity:       6.2596570
  energy:            136.5131220

- temperature:       138.0000000
  free_energy:       136.2612582
  entropy:             1.9180634
  heat_capacity:       6.5707803
  energy:            136.5259510

- temperature:       140.0000000
  free_energy:       136.2573258
  entropy:             2.0148945
  heat_capacity:       6.8907451
  energy:            136.5394110

- temperature:       142.0000000
  free_energy:       136.2531965
  entropy:             2.1149531
  heat_capacity:       7.2195257
  energy:            136.5535198

- temperature:       144.0000000
  free_energy:       136.2488638
  entropy:             2.2182720
  heat_capacity:       7.5570904
  energy:            136.5682950

- temperature:       146.0000000
  free_energy:       136.2443212
  entropy:             2.3248823
  heat_capacity:       7.9034014
  energy:            136.5837540

- temperature:       148.0000000
  free_energy:       136.2395621
  entropy:             2.4348130
  heat_capacity:       8.2584153
  energy:            136.5999144

- temperature:       150.0000000
  free_energy:       136.2345797
  entropy:             2.5480915
  heat_capacity:       8.6220831
  energy:            136.6167934

- temperature:       152.0000000
  free_energy:       136.2293674
  entropy:             2.6647434
  heat_capacity:       8.9943509
  energy:            136.6344084

- temperature:       154.0000000
  free_energy:       136.2239185
  entropy:             2.7847926
  heat_capacity:       9.3751596
  energy:            136.6527765

- temperature:       156.0000000
  free_energy:       136.2182260
  entropy:             2.9082612
  heat_capacity:       9.7644454
  energy:            136.6719147

- temperature:       158.0000000
  free_energy:       136.2122831
  entropy:             3.0351695
  heat_capacity:      10.1621397
  energy:            136.6918399

- temperature:       160.0000000
  free_energy:       136.2060830
  entropy:             3.1655365
  heat_capacity:      10.5681697
  energy:            136.7125689

- temperature:       162.0000000
  free_energy:       136.1996187
  entropy:             3.2993792
  heat_capacity:      10.9824584
  energy:            136.7341181

- temperature:       164.0000000
  free_energy:       136.1928832
  entropy:             3.4367132
  heat_capacity:      11.4049243
  energy:            136.7565041

- temperature:       166.0000000
  free_energy:       136.1858695
  entropy:             3.5775525
  heat_capacity:      11.8354824
  energy:            136.7797432

- temperature:       168.0000000
  free_energy:       136.1785706
  entropy:             3.7219095
  heat_capacity:      12.2740438
  energy:            136.8038514

- temperature:       170.0000000
  free_energy:       136.1709795
  entropy:             3.8697950
  heat_capacity:      12.7205158
  energy:            136.8288447

- temperature:       172.0000000
  free_energy:       136.1630891
  entropy:             4.0212186
  heat_capacity:      13.1748024
  energy:            136.8547387

- temperature:       174.0000000
  free_energy:       136.1548923
  entropy:             4.1761882
  heat_capacity:      13.6368040
  energy:            136.8815490

- temperature:       176.0000000
  free_energy:       136.1463819
  entropy:             4.3347103
  heat_capacity:      14.1064181
  energy:            136.9092910

- temperature:       178.0000000
  free_energy:       136.1375510
  entropy:             4.4967901
  heat_capacity:      14.5835387
  energy:            136.9379797

- temperature:       180.0000000
  free_energy:       136.1283924
  entropy:             4.6624313
  heat_capacity:      15.0680573
  energy:            136.9676301

- temperature:       182.0000000
  free_energy:       136.1188989
  entropy:             4.8316364
  heat_capacity:      15.5598621
  energy:            136.9982568

- temperature:       184.0000000
  free_energy:       136.1090635
  entropy:             5.0044065
  heat_capacity:      16.0588389
  energy:            137.0298743

- temperature:       186.0000000
  free_energy:       136.0988789
  entropy:             5.1807413
  heat_capacity:      16.5648709
  energy:            137.0624968

- temperature:       188.0000000
  free_energy:       136.0883382
  entropy:             5.3606396
  heat_capacity:      17.0778386
  energy:            137.0961384

- temperature:       190.0000000
  free_energy:       136.0774340
  entropy:             5.5440985
  heat_capacity:      17.5976204
  energy:            137.1308127

- temperature:       192.0000000
  free_energy:       136.0661594
  entropy:             5.7311143
  heat_capacity:      18.1240924
  energy:            137.1665333

- temperature:       194.0000000
  free_energy:       136.0545072
  entropy:             5.9216819
  heat_capacity:      18.6571288
  energy:            137.2033135

- temperature:       196.0000000
  free_energy:       136.0424703
  entropy:             6.1157951
  heat_capacity:      19.1966015
  energy:            137.2411661

- temperature:       198.0000000
  free_energy:       136.0300416
  entropy:             6.3134467
  heat_capacity:      19.7423810
  energy:            137.2801041

- temperature:       200.0000000
  free_energy:       136.0172142
  entropy:             6.5146281
  heat_capacity:      20.2943357
  energy:            137.3201398

- temperature:       202.0000000
  free_energy:       136.0039808
  entropy:             6.7193300
  heat_capacity:      20.8523328
  energy:            137.3612855

- temperature:       204.0000000
  free_energy:       135.9903345
  entropy:             6.9275419
  heat_capacity:      21.4162378
  energy:            137.4035530

- temperature:       206.0000000
  free_energy:       135.9762683
  entropy:             7.1392523
  heat_capacity:      21.9859149
  energy:            137.4469543

- temperature:       208.0000000
  free_energy:       135.9617752
  entropy:             7.3544486
  heat_capacity:      22.5612272
  energy:            137.4915005

- temperature:       210.0000000
  free_energy:       135.9468482
  entropy:             7.5731174
  heat_capacity:      23.1420367
  energy:            137.5372028

- temperature:       212.0000000
  free_energy:       135.9314804
  entropy:             7.7952443
  heat_capacity:      23.7282046
  energy:            137.5840722

- temperature:       214.0000000
  free_energy:       135.9156649
  entropy:             8.0208141
  heat_capacity:      24.3195909
  energy:            137.6321191

- temperature:       216.0000000
  free_energy:       135.8993948
  entropy:             8.2498106
  heat_capacity:      24.9160552
  energy:            137.6813539

- temperature:       218.0000000
  free_energy:       135.8826634
  entropy:             8.4822167
  heat_capacity:      25.5174565
  energy:            137.7317866

- temperature:       220.0000000
  free_energy:       135.8654637
  entropy:             8.7180147
  heat_capacity:      26.1236532
  energy:            137.7834270

- temperature:       222.0000000
  free_energy:       135.8477891
  entropy:             8.9571859
  heat_capacity:      26.7345035
  energy:            137.8362843

- temperature:       224.0000000
  free_energy:       135.8296327
  entropy:             9.1997109
  heat_capacity:      27.3498653
  energy:            137.8903680

- temperature:       226.0000000
  free_energy:       135.8109880
  entropy:             9.4455695
  heat_capacity:      27.9695964
  energy:            137.9456867

- temperature:       228.0000000
  free_energy:       135.7918483
  entropy:             9.6947409
  heat_capacity:      28.5935544
  energy:            138.0022492

- temperature:       230.0000000
  free_energy:       135.7722069
  entropy:             9.9472035
  heat_capacity:      29.2215973
  energy:            138.0600637

- temperature:       232.0000000
  free_energy:       135.7520573
  entropy:            10.2029351
  heat_capacity:      29.8535831
  energy:            138.1191382

- temperature:       234.0000000
  free_energy:       135.7313929
  entropy:            10.4619127
  heat_capacity:      30.4893702
  energy:            138.1794805

- temperature:       236.0000000
  free_energy:       135.7102075
  entropy:            10.7241130
  heat_capacity:      31.1288174
  energy:            138.2410981

- temperature:       238.0000000
  free_energy:       135.6884944
  entropy:            10.9895117
  heat_capacity:      31.7717839
  energy:            138.3039981

- temperature:       240.0000000
  free_energy:       135.6662473
  entropy:            11.2580842
  heat_capacity:      32.4181296
  energy:            138.3681875

- temperature:       242.0000000
  free_energy:       135.6434599
  entropy:            11.5298054
  heat_capacity:      33.0677150
  energy:            138.4336728

- temperature:       244.0000000
  free_energy:       135.6201260
  entropy:            11.8046494
  heat_capacity:      33.7204014
  energy:            138.5004604

- temperature:       246.0000000
  free_energy:       135.5962393
  entropy:            12.0825900
  heat_capacity:      34.3760510
  energy:            138.5685564

- temperature:       248.0000000
  free_energy:       135.5717936
  entropy:            12.3636006
  heat_capacity:      35.0345270
  energy:            138.6379665

- temperature:       250.0000000
  free_energy:       135.5467828
  entropy:            12.6476539
  heat_capacity:      35.6956934
  energy:            138.7086963

- temperature:       252.0000000
  free_energy:       135.5212010
  entropy:            12.9347224
  heat_capacity:      36.3594154
  energy:            138.7807510

- temperature:       254.0000000
  free_energy:       135.4950420
  entropy:            13.2247781
  heat_capacity:      37.0255595
  energy:            138.8541356

- temperature:       256.0000000
  free_energy:       135.4682999
  entropy:            13.5177925
  heat_capacity:      37.6939933
  energy:            138.9288548

- temperature:       258.0000000
  free_energy:       135.4409688
  entropy:            13.8137371
  heat_capacity:      38.3645856
  energy:            139.0049130

- temperature:       260.0000000
  free_energy:       135.4130430
  entropy:            14.1125826
  heat_capacity:      39.0372066
  energy:            139.0823145

- temperature:       262.0000000
  free_energy:       135.3845166
  entropy:            14.4142996
  heat_capacity:      39.7117281
  energy:            139.1610631

- temperature:       264.0000000
  free_energy:       135.3553839
  entropy:            14.7188585
  heat_capacity:      40.3880232
  energy:            139.2411626

- temperature:       266.0000000
  free_energy:       135.3256393
  entropy:            15.0262293
  heat_capacity:      41.0659666
  energy:            139.3226163

- temperature:       268.0000000
  free_energy:       135.2952771
  entropy:            15.3363818
  heat_capacity:      41.7454344
  energy:            139.4054274

- temperature:       270.0000000
  free_energy:       135.2642919
  entropy:            15.6492853
  heat_capacity:      42.4263045
  energy:            139.4895990

- temperature:       272.0000000
  free_energy:       135.2326782
  entropy:            15.9649093
  heat_capacity:      43.1084563
  energy:            139.5751335

- temperature:       274.0000000
  free_energy:       135.2004305
  entropy:            16.2832229
  heat_capacity:      43.7917711
  energy:            139.6620336

- temperature:       276.0000000
  free_energy:       135.1675435
  entropy:            16.6041949
  heat_capacity:      44.4761317
  energy:            139.7503013

- temperature:       278.0000000
  free_energy:       135.1340120
  entropy:            16.9277940
  heat_capacity:      45.1614228
  energy:            139.8399387

- temperature:       280.0000000
  free_energy:       135.0998306
  entropy:            17.2539890
  heat_capacity:      45.8475308
  energy:            139.9309475

- temperature:       282.0000000
  free_energy:       135.0649943
  entropy:            17.5827482
  heat_capacity:      46.5343441
  energy:            140.0233293

- temperature:       284.0000000
  free_energy:       135.0294979
  entropy:            17.9140401
  heat_capacity:      47.2217526
  energy:            140.1170853

- temperature:       286.0000000
  free_energy:       134.9933365
  entropy:            18.2478327
  heat_capacity:      47.9096485
  energy:            140.2122166

- temperature:       288.0000000
  free_energy:       134.9565049
  entropy:            18.5840945
  heat_capacity:      48.5979254
  energy:            140.3087241

- temperature:       290.0000000
  free_energy:       134.9189985
  entropy:            18.9227933
  heat_capacity:      49.2864793
  energy:            140.4066085

- temperature:       292.0000000
  free_energy:       134.8808122
  entropy:            19.2638973
  heat_capacity:      49.9752076
  energy:            140.5058702

- temperature:       294.0000000
  free_energy:       134.8419413
  entropy:            19.6073745
  heat_capacity:      50.6640101
  energy:            140.6065094

- temperature:       296.0000000
  free_energy:       134.8023811
  entropy:            19.9531929
  heat_capacity:      51.3527881
  energy:            140.7085262

- temperature:       298.0000000
  free_energy:       134.7621270
  entropy:            20.3013204
  heat_capacity:      52.0414453
  energy:            140.8119205

- temperature:       300.0000000
  free_energy:       134.7211743
  entropy:            20.6517251
  heat_capacity:      52.7298869
  energy:            140.9166918

- temperature:       302.0000000
  free_energy:       134.6795186
  entropy:            21.0043749
  heat_capacity:      53.4180204
  energy:            141.0228398

- temperature:       304.0000000
  free_energy:       134.6371553
  entropy:            21.3592379
  heat_capacity:      54.1057549
  energy:            141.1303637

- temperature:       306.0000000
  free_energy:       134.5940802
  entropy:            21.7162821
  heat_capacity:      54.7930018
  energy:            141.2392625

- temperature:       308.0000000
  free_energy:       134.5502888
  entropy:            22.0754757
  heat_capacity:      55.4796742
  energy:            141.3495353

- temperature:       310.0000000
  free_energy:       134.5057769
  entropy:            22.4367868
  heat_capacity:      56.1656873
  energy:            141.4611808

- temperature:       312.0000000
  free_energy:       134.4605402
  entropy:            22.8001837
  heat_capacity:      56.8509581
  energy:            141.5741975

- temperature:       314.0000000
  free_energy:       134.4145748
  entropy:            23.1656347
  heat_capacity:      57.5354056
  energy:            141.6885840

- temperature:       316.0000000
  free_energy:       134.3678763
  entropy:            23.5331083
  heat_capacity:      58.2189508
  energy:            141.8043386

- temperature:       318.0000000
  free_energy:       134.3204410
  entropy:            23.9025730
  heat_capacity:      58.9015164
  energy:            141.9214592

- temperature:       320.0000000
  free_energy:       134.2722647
  entropy:            24.2739974
  heat_capacity:      59.5830271
  energy:            142.0399439

- temperature:       322.0000000
  free_energy:       134.2233437
  entropy:            24.6473504
  heat_capacity:      60.2634096
  energy:            142.1597906

- temperature:       324.0000000
  free_energy:       134.1736741
  entropy:            25.0226009
  heat_capacity:      60.9425923
  energy:            142.2809968

- temperature:       326.0000000
  free_energy:       134.1232521
  entropy:            25.3997178
  heat_capacity:      61.6205056
  energy:            142.4035601

- temperature:       328.0000000
  free_energy:       134.0720740
  entropy:            25.7786704
  heat_capacity:      62.2970816
  energy:            142.5274779

- temperature:       330.0000000
  free_energy:       134.0201362
  entropy:            26.1594281
  heat_capacity:      62.9722543
  energy:            142.6527475

- temperature:       332.0000000
  free_energy:       133.9674351
  entropy:            26.5419603
  heat_capacity:      63.6459595
  energy:            142.7793659

- temperature:       334.0000000
  free_energy:       133.9139672
  entropy:            26.9262368
  heat_capacity:      64.3181348
  energy:            142.9073303

- temperature:       336.0000000
  free_energy:       133.8597290
  entropy:            27.3122274
  heat_capacity:      64.9887195
  energy:            143.0366374

- temperature:       338.0000000
  free_energy:       133.8047172
  entropy:            27.6999021
  heat_capacity:      65.6576547
  energy:            143.1672841

- temperature:       340.0000000
  free_energy:       133.7489283
  entropy:            28.0892312
  heat_capacity:      66.3248832
  energy:            143.2992669

- temperature:       342.0000000
  free_energy:       133.6923591
  entropy:            28.4801850
  heat_capacity:      66.9903496
  energy:            143.4325824

- temperature:       344.0000000
  free_energy:       133.6350065
  entropy:            28.8727343
  heat_capacity:      67.6540001
  energy:            143.5672271

- temperature:       346.0000000
  free_energy:       133.5768672
  entropy:            29.2668497
  heat_capacity:      68.3157825
  energy:            143.7031972

- temperature:       348.0000000
  free_energy:       133.5179381
  entropy:            29.6625025
  heat_capacity:      68.9756463
  energy:            143.8404889

- temperature:       350.0000000
  free_energy:       133.4582161
  entropy:            30.0596637
  heat_capacity:      69.6335426
  energy:            143.9790984

- temperature:       352.0000000
  free_energy:       133.3976984
  entropy:            30.4583049
  heat_capacity:      70.2894242
  energy:            144.1190218

- temperature:       354.0000000
  free_energy:       133.3363820
  entropy:            30.8583978
  heat_capacity:      70.9432453
  energy:            144.2602548

- temperature:       356.0000000
  free_energy:       133.2742639
  entropy:            31.2599142