<?xml version="1.0" encoding="ISO-8859-1"?>
<modeling>
 <generator>
  <i name="program" type="string">vasp </i>
  <i name="version" type="string">5.4.4.18Apr17-6-g9f103f2a35  </i>
  <i name="subversion" type="string">(build Mar 12 2022 03:36:41) complex            parallel </i>
  <i name="platform" type="string">IFC19.0.3.199_CrayMPICH7.7.19 </i>
  <i name="date" type="string">2022 12 02 </i>
  <i name="time" type="string">02:07:43 </i>
 </generator>
 <incar>
  <i type="string" name="PREC">accurate</i>
  <i type="int" name="IALGO">    38</i>
  <i type="logical" name="ADDGRID"> T  </i>
  <i type="int" name="IBRION">     8</i>
  <i name="EDIFF">      0.00000001</i>
  <i type="logical" name="LREAL"> F  </i>
  <i type="int" name="ISMEAR">     0</i>
  <i name="SIGMA">      0.06000000</i>
  <i type="logical" name="LWAVE"> F  </i>
  <i type="logical" name="LCHARG"> F  </i>
  <v type="int" name="KPOINT_BSE">    -1     0     0     0</v>
 </incar>
 <structure name="primitive_cell" >
  <crystal>
   <varray name="basis" >
    <v>      -0.03589989       1.77677951       1.79481836 </v>
    <v>       1.77704973      -0.01813026       1.79481836 </v>
    <v>       1.77704973       1.79490977       0.00000000 </v>
   </varray>
   <i name="volume">     11.56531579 </i>
   <varray name="rec_basis" >
    <v>      -0.27855158       0.27577989       0.27857971 </v>
    <v>       0.27855158      -0.27577989       0.27857974 </v>
    <v>       0.27855158       0.28135118      -0.27295188 </v>
   </varray>
  </crystal>
  <varray name="positions" >
   <v>      -0.25000000      -0.25000000      -0.25000000 </v>
   <v>      -0.50000000      -0.50000000      -0.50000000 </v>
  </varray>
 </structure>
 <varray name="primitive_index" >
  <v type="int" >        1 </v>
  <v type="int" >       25 </v>
 </varray>
 <kpoints>
  <generation param="Gamma">
   <v type="int" name="divisions">       6        6        6 </v>
   <v name="usershift">      0.00000000       0.00000000       0.00000000 </v>
   <v name="genvec1">      0.16666667      -0.00000000      -0.00000000 </v>
   <v name="genvec2">      0.00000000       0.16666667       0.00000000 </v>
   <v name="genvec3">      0.00000000       0.00000000       0.16666667 </v>
   <v name="shift">      0.00000000       0.00000000       0.00000000 </v>
  </generation>
  <varray name="kpointlist" >
   <v>       0.00000000       0.00000000       0.00000000 </v>
   <v>       0.16666667      -0.00000000      -0.00000000 </v>
   <v>       0.33333333      -0.00000000       0.00000000 </v>
   <v>       0.50000000      -0.00000000      -0.00000000 </v>
   <v>       0.16666667       0.16666667       0.00000000 </v>
   <v>       0.33333333       0.16666667      -0.00000000 </v>
   <v>       0.50000000       0.16666667       0.00000000 </v>
   <v>      -0.33333333       0.16666667       0.00000000 </v>
   <v>      -0.16666667       0.16666667      -0.00000000 </v>
   <v>       0.33333333       0.33333333      -0.00000000 </v>
   <v>       0.50000000       0.33333333       0.00000000 </v>
   <v>      -0.33333333       0.33333333       0.00000000 </v>
   <v>       0.50000000       0.50000000       0.00000000 </v>
   <v>       0.16666667       0.16666667       0.16666667 </v>
   <v>       0.33333333       0.16666667       0.16666667 </v>
   <v>       0.50000000       0.16666667       0.16666667 </v>
   <v>      -0.33333333       0.16666667       0.16666667 </v>
   <v>      -0.16666667       0.16666667       0.16666667 </v>
   <v>       0.33333333       0.33333333       0.16666667 </v>
   <v>       0.50000000       0.33333333       0.16666667 </v>
   <v>      -0.33333333       0.33333333       0.16666667 </v>
   <v>      -0.16666667       0.33333333       0.16666667 </v>
   <v>       0.50000000       0.50000000       0.16666667 </v>
   <v>      -0.33333333       0.50000000       0.16666667 </v>
   <v>      -0.16666667       0.50000000       0.16666667 </v>
   <v>      -0.33333333      -0.33333333       0.16666667 </v>
   <v>       0.33333333       0.33333333       0.33333333 </v>
   <v>       0.50000000       0.33333333       0.33333333 </v>
   <v>      -0.33333333       0.33333333       0.33333333 </v>
   <v>       0.50000000       0.50000000       0.33333333 </v>
   <v>      -0.33333333       0.50000000       0.33333333 </v>
   <v>       0.50000000       0.50000000       0.50000000 </v>
  </varray>
  <varray name="weights" >
   <v>       0.00462963 </v>
   <v>       0.02777778 </v>
   <v>       0.02777778 </v>
   <v>       0.01388889 </v>
   <v>       0.02777778 </v>
   <v>       0.05555556 </v>
   <v>       0.05555556 </v>
   <v>       0.05555556 </v>
   <v>       0.02777778 </v>
   <v>       0.02777778 </v>
   <v>       0.05555556 </v>
   <v>       0.02777778 </v>
   <v>       0.01388889 </v>
   <v>       0.00925926 </v>
   <v>       0.02777778 </v>
   <v>       0.02777778 </v>
   <v>       0.02777778 </v>
   <v>       0.02777778 </v>
   <v>       0.02777778 </v>
   <v>       0.05555556 </v>
   <v>       0.05555556 </v>
   <v>       0.05555556 </v>
   <v>       0.02777778 </v>
   <v>       0.05555556 </v>
   <v>       0.02777778 </v>
   <v>       0.02777778 </v>
   <v>       0.00925926 </v>
   <v>       0.02777778 </v>
   <v>       0.02777778 </v>
   <v>       0.02777778 </v>
   <v>       0.02777778 </v>
   <v>       0.00462963 </v>
  </varray>
 </kpoints>
 <parameters>
  <separator name="general" >
   <i type="string" name="SYSTEM">unknown system</i>
   <i type="logical" name="LCOMPAT"> F  </i>
  </separator>
  <separator name="electronic" >
   <i type="string" name="PREC">accura</i>
   <i name="ENMAX">    400.00000000</i>
   <i name="ENAUG">    644.87300000</i>
   <i name="EDIFF">      0.00000001</i>
   <i type="int" name="IALGO">    38</i>
   <i type="int" name="IWAVPR">    11</i>
   <i type="int" name="NBANDS">   192</i>
   <i name="NELECT">    256.00000000</i>
   <i type="int" name="TURBO">     0</i>
   <i type="int" name="IRESTART">     0</i>
   <i type="int" name="NREBOOT">     0</i>
   <i type="int" name="NMIN">     0</i>
   <i name="EREF">      0.00000000</i>
   <separator name="electronic smearing" >
    <i type="int" name="ISMEAR">     0</i>
    <i name="SIGMA">      0.06000000</i>
    <i name="KSPACING">      0.50000000</i>
    <i type="logical" name="KGAMMA"> T  </i>
   </separator>
   <separator name="electronic projectors" >
    <i type="logical" name="LREAL"> F  </i>
    <v name="ROPT">      0.00000000</v>
    <i type="int" name="LMAXPAW">  -100</i>
    <i type="int" name="LMAXMIX">     2</i>
    <i type="logical" name="NLSPLINE"> F  </i>
   </separator>
   <separator name="electronic startup" >
    <i type="int" name="ISTART">     0</i>
    <i type="int" name="ICHARG">     2</i>
    <i type="int" name="INIWAV">     1</i>
   </separator>
   <separator name="electronic spin" >
    <i type="int" name="ISPIN">     1</i>
    <i type="logical" name="LNONCOLLINEAR"> F  </i>
    <v name="MAGMOM">      1.00000000      1.00000000      1.00000000      1.00000000      1.00000000      1.00000000      1.00000000      1.00000000      1.00000000      1.00000000      1.00000000      1.00000000      1.00000000      1.00000000      1.00000000      1.00000000      1.00000000      1.00000000      1.00000000      1.00000000
      1.00000000      1.00000000      1.00000000      1.00000000      1.00000000      1.00000000      1.00000000      1.00000000      1.00000000      1.00000000      1.00000000      1.00000000      1.00000000      1.00000000      1.00000000      1.00000000      1.00000000      1.00000000      1.00000000      1.00000000
      1.00000000      1.00000000      1.00000000      1.00000000      1.00000000      1.00000000      1.00000000      1.00000000      1.00000000      1.00000000      1.00000000      1.00000000      1.00000000      1.00000000      1.00000000      1.00000000      1.00000000      1.00000000      1.00000000      1.00000000
      1.00000000      1.00000000      1.00000000      1.00000000</v>
    <i name="NUPDOWN">     -1.00000000</i>
    <i type="logical" name="LSORBIT"> F  </i>
    <v name="SAXIS">      0.00000000      0.00000000      1.00000000</v>
    <i type="logical" name="LSPIRAL"> F  </i>
    <v name="QSPIRAL">      0.00000000      0.00000000      0.00000000</v>
    <i type="logical" name="LZEROZ"> F  </i>
   </separator>
   <separator name="electronic exchange-correlation" >
    <i type="logical" name="LASPH"> F  </i>
    <i type="logical" name="LMETAGGA"> F  </i>
   </separator>
   <separator name="electronic convergence" >
    <i type="int" name="NELM">    60</i>
    <i type="int" name="NELMDL">    -5</i>
    <i type="int" name="NELMIN">     2</i>
    <i name="ENINI">    400.00000000</i>
    <separator name="electronic convergence detail" >
     <i type="logical" name="LDIAG"> T  </i>
     <i type="logical" name="LSUBROT"> F  </i>
     <i name="WEIMIN">      0.00100000</i>
     <i name="EBREAK">      0.00000000</i>
     <i name="DEPER">      0.30000000</i>
     <i type="int" name="NRMM">     4</i>
     <i name="TIME">      0.40000000</i>
    </separator>
   </separator>
   <separator name="electronic mixer" >
    <i name="AMIX">      0.40000000</i>
    <i name="BMIX">      1.00000000</i>
    <i name="AMIN">      0.10000000</i>
    <i name="AMIX_MAG">      1.60000000</i>
    <i name="BMIX_MAG">      1.00000000</i>
    <separator name="electronic mixer details" >
     <i type="int" name="IMIX">     4</i>
     <i type="logical" name="MIXFIRST"> F  </i>
     <i type="int" name="MAXMIX">   -45</i>
     <i name="WC">    100.00000000</i>
     <i type="int" name="INIMIX">     1</i>
     <i type="int" name="MIXPRE">     1</i>
     <i type="int" name="MREMOVE">     5</i>
    </separator>
   </separator>
   <separator name="electronic dipolcorrection" >
    <i type="logical" name="LDIPOL"> F  </i>
    <i type="logical" name="LMONO"> F  </i>
    <i type="int" name="IDIPOL">     0</i>
    <i name="EPSILON">      1.00000000</i>
    <v name="DIPOL">   -100.00000000   -100.00000000   -100.00000000</v>
    <i name="EFIELD">      0.00000000</i>
   </separator>
  </separator>
  <separator name="grids" >
   <i type="int" name="NGX">    48</i>
   <i type="int" name="NGY">    48</i>
   <i type="int" name="NGZ">    48</i>
   <i type="int" name="NGXF">    96</i>
   <i type="int" name="NGYF">    96</i>
   <i type="int" name="NGZF">    96</i>
   <i type="logical" name="ADDGRID"> T  </i>
  </separator>
  <separator name="ionic" >
   <i type="int" name="NSW">     1</i>
   <i type="int" name="IBRION">     8</i>
   <i type="int" name="MDALGO">     0</i>
   <i type="int" name="ISIF">     2</i>
   <i name="PSTRESS">      0.00000000</i>
   <i name="EDIFFG">      0.00000010</i>
   <i type="int" name="NFREE">     0</i>
   <i name="POTIM">      0.50000000</i>
   <i name="SMASS">     -3.00000000</i>
   <i name="SCALEE">      1.00000000</i>
  </separator>
  <separator name="ionic md" >
   <i name="TEBEG">      0.00010000</i>
   <i name="TEEND">      0.00010000</i>
   <i type="int" name="NBLOCK">     1</i>
   <i type="int" name="KBLOCK">     1</i>
   <i type="int" name="NPACO">   256</i>
   <i name="APACO">     16.00000000</i>
  </separator>
  <separator name="symmetry" >
   <i type="int" name="ISYM">     2</i>
   <i name="SYMPREC">      0.00001000</i>
  </separator>
  <separator name="dos" >
   <i type="int" name="LORBIT">     0</i>
   <v name="RWIGS">     -1.00000000</v>
   <i type="int" name="NEDOS">   301</i>
   <i name="EMIN">     10.00000000</i>
   <i name="EMAX">    -10.00000000</i>
   <i name="EFERMI">      0.00000000</i>
  </separator>
  <separator name="writing" >
   <i type="int" name="NWRITE">     2</i>
   <i type="logical" name="LWAVE"> F  </i>
   <i type="logical" name="LDOWNSAMPLE"> F  </i>
   <i type="logical" name="LCHARG"> F  </i>
   <i type="logical" name="LPARD"> F  </i>
   <i type="logical" name="LVTOT"> F  </i>
   <i type="logical" name="LVHAR"> F  </i>
   <i type="logical" name="LELF"> F  </i>
   <i type="logical" name="LOPTICS"> F  </i>
   <v name="STM">      0.00000000      0.00000000      0.00000000      0.00000000      0.00000000      0.00000000      0.00000000</v>
  </separator>
  <separator name="performance" >
   <i type="int" name="NPAR">    32</i>
   <i type="int" name="NSIM">     4</i>
   <i type="int" name="NBLK">    -1</i>
   <i type="logical" name="LPLANE"> T  </i>
   <i type="logical" name="LSCALAPACK"> T  </i>
   <i type="logical" name="LSCAAWARE"> F  </i>
   <i type="logical" name="LSCALU"> F  </i>
   <i type="logical" name="LASYNC"> F  </i>
   <i type="logical" name="LORBITALREAL"> F  </i>
  </separator>
  <separator name="miscellaneous" >
   <i type="int" name="IDIOT">     3</i>
   <i type="int" name="ISPECIAL">     0</i>
   <i type="logical" name="LMUSIC"> F  </i>
   <v name="POMASS">     12.01100000</v>
   <v name="DARWINR">      0.00000000</v>
   <v name="DARWINV">      1.00000000</v>
   <i type="logical" name="LCORR"> T  </i>
  </separator>
  <i type="logical" name="GGA_COMPAT"> T  </i>
  <i type="logical" name="LBERRY"> F  </i>
  <i type="int" name="ICORELEVEL">     0</i>
  <i type="logical" name="LDAU"> F  </i>
  <i type="int" name="I_CONSTRAINED_M">     0</i>
  <separator name="electronic exchange-correlation" >
   <i type="string" name="GGA">--</i>
   <i type="int" name="VOSKOWN">     0</i>
   <i type="logical" name="LHFCALC"> F  </i>
   <i type="string" name="PRECFOCK"></i>
   <i type="logical" name="LSYMGRAD"> F  </i>
   <i type="logical" name="LHFONE"> F  </i>
   <i type="logical" name="LRHFCALC"> F  </i>
   <i type="logical" name="LTHOMAS"> F  </i>
   <i type="logical" name="LMODELHF"> F  </i>
   <i name="ENCUT4O">     -1.00000000</i>
   <i type="int" name="EXXOEP">     0</i>
   <i type="int" name="FOURORBIT">     0</i>
   <i name="AEXX">      0.00000000</i>
   <i name="HFALPHA">      0.00000000</i>
   <i name="MCALPHA">      0.00000000</i>
   <i name="ALDAX">      1.00000000</i>
   <i name="AGGAX">      1.00000000</i>
   <i name="ALDAC">      1.00000000</i>
   <i name="AGGAC">      1.00000000</i>
   <i type="int" name="NKREDX">     1</i>
   <i type="int" name="NKREDY">     1</i>
   <i type="int" name="NKREDZ">     1</i>
   <i type="logical" name="SHIFTRED"> F  </i>
   <i type="logical" name="ODDONLY"> F  </i>
   <i type="logical" name="EVENONLY"> F  </i>
   <i type="int" name="LMAXFOCK">     0</i>
   <i type="int" name="NMAXFOCKAE">     0</i>
   <i type="logical" name="LFOCKAEDFT"> F  </i>
   <i name="HFSCREEN">      0.00000000</i>
   <i name="HFSCREENC">      0.00000000</i>
   <i type="int" name="NBANDSGWLOW">     0</i>
  </separator>
  <separator name="vdW DFT" >
   <i type="logical" name="LUSE_VDW"> F  </i>
   <i name="Zab_VDW">     -0.84910000</i>
   <i name="PARAM1">      0.12340000</i>
   <i name="PARAM2">      1.00000000</i>
   <i name="PARAM3">      0.00000000</i>
  </separator>
  <separator name="model GW" >
   <i type="int" name="MODEL_GW">     0</i>
   <i name="MODEL_EPS0">      3.46959474</i>
   <i name="MODEL_ALPHA">      1.00000000</i>
  </separator>
  <separator name="linear response parameters" >
   <i type="logical" name="LEPSILON"> F  </i>
   <i type="logical" name="LRPA"> F  </i>
   <i type="logical" name="LNABLA"> F  </i>
   <i type="logical" name="LVEL"> F  </i>
   <i type="int" name="KINTER">     0</i>
   <i name="CSHIFT">      0.10000000</i>
   <i name="OMEGAMAX">     -1.00000000</i>
   <i name="DEG_THRESHOLD">      0.00200000</i>
   <i name="RTIME">     -0.10000000</i>
   <i name="WPLASMAI">      0.00000000</i>
   <v name="DFIELD">      0.00000000      0.00000000      0.00000000</v>
   <v name="WPLASMA">      0.00000000      0.00000000      0.00000000      0.00000000      0.00000000      0.00000000      0.00000000      0.00000000      0.00000000</v>
  </separator>
  <separator name="orbital magnetization" >
   <i type="logical" name="NUCIND"> F  </i>
   <v name="MAGPOS">      0.00000000      0.00000000      0.00000000</v>
   <i type="logical" name="LNICSALL"> T  </i>
   <i type="logical" name="ORBITALMAG"> F  </i>
   <i type="logical" name="LMAGBLOCH"> F  </i>
   <i type="logical" name="LCHIMAG"> F  </i>
   <i type="logical" name="LGAUGE"> T  </i>
   <i type="int" name="MAGATOM">     0</i>
   <v name="MAGDIPOL">      0.00000000      0.00000000      0.00000000</v>
   <v name="AVECCONST">      0.00000000      0.00000000      0.00000000</v>
  </separator>
  <separator name="response functions" >
   <i type="logical" name="LADDER"> F  </i>
   <i type="logical" name="LRPAFORCE"> F  </i>
   <i type="logical" name="LFXC"> F  </i>
   <i type="logical" name="LHARTREE"> T  </i>
   <i type="int" name="IBSE">     0</i>
   <v type="int" name="KPOINT">    -1     0     0     0</v>
   <i type="logical" name="LTCTE"> F  </i>
   <i type="logical" name="LTETE"> F  </i>
   <i type="logical" name="LTRIPLET"> F  </i>
   <i type="logical" name="LFXCEPS"> F  </i>
   <i type="logical" name="LFXHEG"> F  </i>
   <i type="int" name="NATURALO">     2</i>
   <i type="logical" name="L2ORDER"> F  </i>
   <i type="logical" name="LMP2LT"> F  </i>
   <i type="logical" name="LUSEW"> F  </i>
   <i name="ENCUTGW">     -2.00000000</i>
   <i name="ENCUTGWSOFT">     -2.00000000</i>
   <i name="ENCUTLF">     -1.00000000</i>
   <i type="int" name="LMAXMP2">    -1</i>
   <i name="SCISSOR">      0.00000000</i>
   <i type="int" name="NOMEGA">     0</i>
   <i type="int" name="NOMEGAR">     0</i>
   <i type="int" name="NBANDSGW">    -1</i>
   <i type="int" name="NBANDSO">    -1</i>
   <i type="int" name="NBANDSV">    -1</i>
   <i type="int" name="NELM">     1</i>
   <i type="int" name="NELMHF">     1</i>
   <i type="int" name="DIM">     3</i>
   <i type="int" name="ANTIRES">     0</i>
   <i name="OMEGAMAX">    -30.00000000</i>
   <i name="OMEGAMIN">    -30.00000000</i>
   <i name="OMEGATL">   -200.00000000</i>
   <i type="int" name="OMEGAGRID">   140</i>
   <i name="CSHIFT">     -0.10000000</i>
   <i type="logical" name="SELFENERGY"> F  </i>
   <i type="logical" name="LSPECTRAL"> F  </i>
   <i type="logical" name="LSPECTRALGW"> F  </i>
   <i type="logical" name="LSINGLES"> F  </i>
   <i type="logical" name="LFERMIGW"> F  </i>
   <i type="logical" name="ODDONLYGW"> F  </i>
   <i type="logical" name="EVENONLYGW"> F  </i>
   <i type="int" name="NKREDLFX">     1</i>
   <i type="int" name="NKREDLFY">     1</i>
   <i type="int" name="NKREDLFZ">     1</i>
   <i type="int" name="MAXMEM">  2800</i>
   <i type="int" name="TELESCOPE">     0</i>
   <i type="int" name="TAUPAR">     1</i>
   <i type="int" name="OMEGAPAR">    -1</i>
   <i name="LAMBDA">      1.00000000</i>
  </separator>
  <separator name="External order field" >
   <i name="OFIELD_KAPPA">      0.00000000</i>
   <v name="OFIELD_K">      0.00000000      0.00000000      0.00000000</v>
   <i name="OFIELD_Q6_NEAR">      0.00000000</i>
   <i name="OFIELD_Q6_FAR">      0.00000000</i>
   <i name="OFIELD_A">      0.00000000</i>
  </separator>
 </parameters>
 <atominfo>
  <atoms>      64 </atoms>
  <types>       1 </types>
  <array name="atoms" >
   <dimension dim="1">ion</dimension>
   <field type="string">element</field>
   <field type="int">atomtype</field>
   <set>
    <rc><c>C </c><c>   1</c></rc>
    <rc><c>C </c><c>   1</c></rc>
    <rc><c>C </c><c>   1</c></rc>
    <rc><c>C </c><c>   1</c></rc>
    <rc><c>C </c><c>   1</c></rc>
    <rc><c>C </c><c>   1</c></rc>
    <rc><c>C </c><c>   1</c></rc>
    <rc><c>C </c><c>   1</c></rc>
    <rc><c>C </c><c>   1</c></rc>
    <rc><c>C </c><c>   1</c></rc>
    <rc><c>C </c><c>   1</c></rc>
    <rc><c>C </c><c>   1</c></rc>
    <rc><c>C </c><c>   1</c></rc>
    <rc><c>C </c><c>   1</c></rc>
    <rc><c>C </c><c>   1</c></rc>
    <rc><c>C </c><c>   1</c></rc>
    <rc><c>C </c><c>   1</c></rc>
    <rc><c>C </c><c>   1</c></rc>
    <rc><c>C </c><c>   1</c></rc>
    <rc><c>C </c><c>   1</c></rc>
    <rc><c>C </c><c>   1</c></rc>
    <rc><c>C </c><c>   1</c></rc>
    <rc><c>C </c><c>   1</c></rc>
    <rc><c>C </c><c>   1</c></rc>
    <rc><c>C </c><c>   1</c></rc>
    <rc><c>C </c><c>   1</c></rc>
    <rc><c>C </c><c>   1</c></rc>
    <rc><c>C </c><c>   1</c></rc>
    <rc><c>C </c><c>   1</c></rc>
    <rc><c>C </c><c>   1</c></rc>
    <rc><c>C </c><c>   1</c></rc>
    <rc><c>C </c><c>   1</c></rc>
    <rc><c>C </c><c>   1</c></rc>
    <rc><c>C </c><c>   1</c></rc>
    <rc><c>C </c><c>   1</c></rc>
    <rc><c>C </c><c>   1</c></rc>
    <rc><c>C </c><c>   1</c></rc>
    <rc><c>C </c><c>   1</c></rc>
    <rc><c>C </c><c>   1</c></rc>
    <rc><c>C </c><c>   1</c></rc>
    <rc><c>C </c><c>   1</c></rc>
    <rc><c>C </c><c>   1</c></rc>
    <rc><c>C </c><c>   1</c></rc>
    <rc><c>C </c><c>   1</c></rc>
    <rc><c>C </c><c>   1</c></rc>
    <rc><c>C </c><c>   1</c></rc>
    <rc><c>C </c><c>   1</c></rc>
    <rc><c>C </c><c>   1</c></rc>
    <rc><c>C </c><c>   1</c></rc>
    <rc><c>C </c><c>   1</c></rc>
    <rc><c>C </c><c>   1</c></rc>
    <rc><c>C </c><c>   1</c></rc>
    <rc><c>C </c><c>   1</c></rc>
    <rc><c>C </c><c>   1</c></rc>
    <rc><c>C </c><c>   1</c></rc>
    <rc><c>C </c><c>   1</c></rc>
    <rc><c>C </c><c>   1</c></rc>
    <rc><c>C </c><c>   1</c></rc>
    <rc><c>C </c><c>   1</c></rc>
    <rc><c>C </c><c>   1</c></rc>
    <rc><c>C </c><c>   1</c></rc>
    <rc><c>C </c><c>   1</c></rc>
    <rc><c>C </c><c>   1</c></rc>
    <rc><c>C </c><c>   1</c></rc>
   </set>
  </array>
  <array name="atomtypes" >
   <dimension dim="1">type</dimension>
   <field type="int">atomspertype</field>
   <field type="string">element</field>
   <field>mass</field>
   <field>valence</field>
   <field type="string">pseudopotential</field>
   <set>
    <rc><c>  64</c><c>C </c><c>     12.01100000</c><c>      4.00000000</c><c> PAW_PBE C 08Apr2002                    </c></rc>
   </set>
  </array>
 </atominfo>
 <structure name="initialpos" >
  <crystal>
   <varray name="basis" >
    <v>       7.17999872       0.00000000       0.00000000 </v>
    <v>      -0.07179979       7.17963909       0.00000000 </v>
    <v>      -0.07179979      -0.07252106       7.17927343 </v>
   </varray>
   <i name="volume">    370.09010524 </i>
   <varray name="rec_basis" >
    <v>       0.13927579       0.00139282       0.00140696 </v>
    <v>       0.00000000       0.13928277       0.00140696 </v>
    <v>       0.00000000       0.00000000       0.13928986 </v>
   </varray>
  </crystal>
  <varray name="positions" >
   <v>       0.12500000       0.37500000       0.12500000 </v>
   <v>       0.62500000       0.37500000       0.12500000 </v>
   <v>       0.12500000       0.87500000       0.12500000 </v>
   <v>       0.62500000       0.87500000       0.12500000 </v>
   <v>       0.12500000       0.37500000       0.62500000 </v>
   <v>       0.62500000       0.37500000       0.62500000 </v>
   <v>       0.12500000       0.87500000       0.62500000 </v>
   <v>       0.62500000       0.87500000       0.62500000 </v>
   <v>       0.00000000       0.00000000       0.25000000 </v>
   <v>       0.50000000       0.00000000       0.25000000 </v>
   <v>       0.00000000       0.50000000       0.25000000 </v>
   <v>       0.50000000       0.50000000       0.25000000 </v>
   <v>       0.00000000       0.00000000       0.75000000 </v>
   <v>       0.50000000       0.00000000       0.75000000 </v>
   <v>       0.00000000       0.50000000       0.75000000 </v>
   <v>       0.50000000       0.50000000       0.75000000 </v>
   <v>       0.12500000       0.12500000       0.37500000 </v>
   <v>       0.62500000       0.12500000       0.37500000 </v>
   <v>       0.12500000       0.62500000       0.37500000 </v>
   <v>       0.62500000       0.62500000       0.37500000 </v>
   <v>       0.12500000       0.12500000       0.87500000 </v>
   <v>       0.62500000       0.12500000       0.87500000 </v>
   <v>       0.12500000       0.62500000       0.87500000 </v>
   <v>       0.62500000       0.62500000       0.87500000 </v>
   <v>       0.00000000       0.25000000       0.00000000 </v>
   <v>       0.50000000       0.25000000       0.00000000 </v>
   <v>       0.00000000       0.75000000       0.00000000 </v>
   <v>       0.50000000       0.75000000       0.00000000 </v>
   <v>       0.00000000       0.25000000       0.50000000 </v>
   <v>       0.50000000       0.25000000       0.50000000 </v>
   <v>       0.00000000       0.75000000       0.50000000 </v>
   <v>       0.50000000       0.75000000       0.50000000 </v>
   <v>       0.37500000       0.37500000       0.37500000 </v>
   <v>       0.87500000       0.37500000       0.37500000 </v>
   <v>       0.37500000       0.87500000       0.37500000 </v>
   <v>       0.87500000       0.87500000       0.37500000 </v>
   <v>       0.37500000       0.37500000       0.87500000 </v>
   <v>       0.87500000       0.37500000       0.87500000 </v>
   <v>       0.37500000       0.87500000       0.87500000 </v>
   <v>       0.87500000       0.87500000       0.87500000 </v>
   <v>       0.25000000       0.00000000       0.00000000 </v>
   <v>       0.75000000       0.00000000       0.00000000 </v>
   <v>       0.25000000       0.50000000       0.00000000 </v>
   <v>       0.75000000       0.50000000       0.00000000 </v>
   <v>       0.25000000       0.00000000       0.50000000 </v>
   <v>       0.75000000       0.00000000       0.50000000 </v>
   <v>       0.25000000       0.50000000       0.50000000 </v>
   <v>       0.75000000       0.50000000       0.50000000 </v>
   <v>       0.37500000       0.12500000       0.12500000 </v>
   <v>       0.87500000       0.12500000       0.12500000 </v>
   <v>       0.37500000       0.62500000       0.12500000 </v>
   <v>       0.87500000       0.62500000       0.12500000 </v>
   <v>       0.37500000       0.12500000       0.62500000 </v>
   <v>       0.87500000       0.12500000       0.62500000 </v>
   <v>       0.37500000       0.62500000       0.62500000 </v>
   <v>       0.87500000       0.62500000       0.62500000 </v>
   <v>       0.25000000       0.25000000       0.25000000 </v>
   <v>       0.75000000       0.25000000       0.25000000 </v>
   <v>       0.25000000       0.75000000       0.25000000 </v>
   <v>       0.75000000       0.75000000       0.25000000 </v>
   <v>       0.25000000       0.25000000       0.75000000 </v>
   <v>       0.75000000       0.25000000       0.75000000 </v>
   <v>       0.25000000       0.75000000       0.75000000 </v>
   <v>       0.75000000       0.75000000       0.75000000 </v>
  </varray>
 </structure>
 <calculation>
  <scstep>
   <time name="dav">   21.77   21.78</time>
   <time name="total">   21.89   22.01</time>
   <energy>
    <i name="alphaZ">    901.78782685 </i>
    <i name="ewald"> -11062.66292856 </i>
    <i name="hartreedc">   -577.58340032 </i>
    <i name="XCdc">    911.17892403 </i>
    <i name="pawpsdc">   2421.21235816 </i>
    <i name="pawaedc">  -2494.84305711 </i>
    <i name="eentropy">     -0.01086290 </i>
    <i name="bandstr">    987.45907946 </i>
    <i name="atom">   9416.14232778 </i>
    <i name="e_fr_energy">    502.68026740 </i>
    <i name="e_wo_entrp">    502.69113029 </i>
    <i name="e_0_energy">    502.68569885 </i>
   </energy>
  </scstep>
  <scstep>
   <time name="dav">   27.55   27.56</time>
   <time name="total">   27.56   27.56</time>
   <energy>
    <i name="e_fr_energy">   -558.83950941 </i>
    <i name="e_wo_entrp">   -558.83950941 </i>
    <i name="e_0_energy">   -558.83950941 </i>
   </energy>
  </scstep>
  <scstep>
   <time name="dav">   28.24   28.24</time>
   <time name="total">   28.24   28.24</time>
   <energy>
    <i name="e_fr_energy">   -600.35719353 </i>
    <i name="e_wo_entrp">   -600.35719353 </i>
    <i name="e_0_energy">   -600.35719353 </i>
   </energy>
  </scstep>
  <scstep>
   <time name="dav">   28.35   28.35</time>
   <time name="total">   28.35   28.36</time>
   <energy>
    <i name="e_fr_energy">   -600.81456758 </i>
    <i name="e_wo_entrp">   -600.81456758 </i>
    <i name="e_0_energy">   -600.81456758 </i>
   </energy>
  </scstep>
  <scstep>
   <time name="dav">   26.07   26.07</time>
   <time name="total">   26.74   26.74</time>
   <energy>
    <i name="e_fr_energy">   -600.82441533 </i>
    <i name="e_wo_entrp">   -600.82441533 </i>
    <i name="e_0_energy">   -600.82441533 </i>
   </energy>
  </scstep>
  <scstep>
   <time name="dav">   25.44   25.44</time>
   <time name="total">   26.20   26.20</time>
   <energy>
    <i name="e_fr_energy">   -586.48730256 </i>
    <i name="e_wo_entrp">   -586.48730256 </i>
    <i name="e_0_energy">   -586.48730256 </i>
   </energy>
  </scstep>
  <scstep>
   <time name="dav">   25.65   25.65</time>
   <time name="total">   26.41   26.41</time>
   <energy>
    <i name="e_fr_energy">   -581.64432439 </i>
    <i name="e_wo_entrp">   -581.64432439 </i>
    <i name="e_0_energy">   -581.64432439 </i>
   </energy>
  </scstep>
  <scstep>
   <time name="dav">   26.04   26.04</time>
   <time name="total">   26.81   26.81</time>
   <energy>
    <i name="e_fr_energy">   -581.70342286 </i>
    <i name="e_wo_entrp">   -581.70342286 </i>
    <i name="e_0_energy">   -581.70342286 </i>
   </energy>
  </scstep>
  <scstep>
   <time name="dav">   27.79   27.79</time>
   <time name="total">   28.56   28.56</time>
   <energy>
    <i name="e_fr_energy">   -581.70557858 </i>
    <i name="e_wo_entrp">   -581.70557858 </i>
    <i name="e_0_energy">   -581.70557858 </i>
   </energy>
  </scstep>
  <scstep>
   <time name="dav">   26.34   26.34</time>
   <time name="total">   27.11   27.11</time>
   <energy>
    <i name="e_fr_energy">   -581.70604034 </i>
    <i name="e_wo_entrp">   -581.70604034 </i>
    <i name="e_0_energy">   -581.70604034 </i>
   </energy>
  </scstep>
  <scstep>
   <time name="dav">   27.68   27.69</time>
   <time name="total">   28.45   28.45</time>
   <energy>
    <i name="e_fr_energy">   -581.70604662 </i>
    <i name="e_wo_entrp">   -581.70604662 </i>
    <i name="e_0_energy">   -581.70604662 </i>
   </energy>
  </scstep>
  <scstep>
   <time name="dav">   27.04   27.04</time>
   <time name="total">   27.81   27.81</time>
   <energy>
    <i name="e_fr_energy">   -581.70604671 </i>
    <i name="e_wo_entrp">   -581.70604671 </i>
    <i name="e_0_energy">   -581.70604671 </i>
   </energy>
  </scstep>
  <scstep>
   <time name="dav">   22.74   22.75</time>
   <time name="total">   23.52   23.52</time>
   <energy>
    <i name="e_fr_energy">   -581.70604680 </i>
    <i name="e_wo_entrp">   -581.70604680 </i>
    <i name="e_0_energy">   -581.70604680 </i>
   </energy>
  </scstep>
  <scstep>
   <time name="dav">   21.17   21.17</time>
   <time name="total">   21.93   21.93</time>
   <energy>
    <i name="e_fr_energy">   -581.70604681 </i>
    <i name="e_wo_entrp">   -581.70604681 </i>
    <i name="e_0_energy">   -581.70604681 </i>
   </energy>
  </scstep>
  <scstep>
   <time name="dav">   19.75   19.75</time>
   <time name="total">   19.87   19.87</time>
   <energy>
    <i name="alphaZ">    901.78782685 </i>
    <i name="ewald"> -11062.66292856 </i>
    <i name="hartreedc">   -853.01242845 </i>
    <i name="XCdc">    937.12020701 </i>
    <i name="pawpsdc">   4137.61921111 </i>
    <i name="pawaedc">  -4218.19578236 </i>
    <i name="eentropy">     -0.00000000 </i>
    <i name="bandstr">    159.49551979 </i>
    <i name="atom">   9416.14232778 </i>
    <i name="e_fr_energy">   -581.70604682 </i>
    <i name="e_wo_entrp">   -581.70604682 </i>
    <i name="e_0_energy">   -581.70604682 </i>
   </energy>
  </scstep>
  <structure>
   <crystal>
    <varray name="basis" >
     <v>       7.17999872       0.00000000       0.00000000 </v>
     <v>      -0.07179979       7.17963909       0.00000000 </v>
     <v>      -0.07179979      -0.07252106       7.17927343 </v>
    </varray>
    <i name="volume">    370.09010524 </i>
    <varray name="rec_basis" >
     <v>       0.13927579       0.00139282       0.00140696 </v>
     <v>       0.00000000       0.13928277       0.00140696 </v>
     <v>       0.00000000       0.00000000       0.13928986 </v>
    </varray>
   </crystal>
   <varray name="positions" >
    <v>       0.12500000       0.37500000       0.12500000 </v>
    <v>       0.62500000       0.37500000       0.12500000 </v>
    <v>       0.12500000       0.87500000       0.12500000 </v>
    <v>       0.62500000       0.87500000       0.12500000 </v>
    <v>       0.12500000       0.37500000       0.62500000 </v>
    <v>       0.62500000       0.37500000       0.62500000 </v>
    <v>       0.12500000       0.87500000       0.62500000 </v>
    <v>       0.62500000       0.87500000       0.62500000 </v>
    <v>       0.00000000       0.00000000       0.25000000 </v>
    <v>       0.50000000       0.00000000       0.25000000 </v>
    <v>       0.00000000       0.50000000       0.25000000 </v>
    <v>       0.50000000       0.50000000       0.25000000 </v>
    <v>       0.00000000       0.00000000       0.75000000 </v>
    <v>       0.50000000       0.00000000       0.75000000 </v>
    <v>       0.00000000       0.50000000       0.75000000 </v>
    <v>       0.50000000       0.50000000       0.75000000 </v>
    <v>       0.12500000       0.12500000       0.37500000 </v>
    <v>       0.62500000       0.12500000       0.37500000 </v>
    <v>       0.12500000       0.62500000       0.37500000 </v>
    <v>       0.62500000       0.62500000       0.37500000 </v>
    <v>       0.12500000       0.12500000       0.87500000 </v>
    <v>       0.62500000       0.12500000       0.87500000 </v>
    <v>       0.12500000       0.62500000       0.87500000 </v>
    <v>       0.62500000       0.62500000       0.87500000 </v>
    <v>       0.00000000       0.25000000       0.00000000 </v>
    <v>       0.50000000       0.25000000       0.00000000 </v>
    <v>       0.00000000       0.75000000       0.00000000 </v>
    <v>       0.50000000       0.75000000       0.00000000 </v>
    <v>       0.00000000       0.25000000       0.50000000 </v>
    <v>       0.50000000       0.25000000       0.50000000 </v>
    <v>       0.00000000       0.75000000       0.50000000 </v>
    <v>       0.50000000       0.75000000       0.50000000 </v>
    <v>       0.37500000       0.37500000       0.37500000 </v>
    <v>       0.87500000       0.37500000       0.37500000 </v>
    <v>       0.37500000       0.87500000       0.37500000 </v>
    <v>       0.87500000       0.87500000       0.37500000 </v>
    <v>       0.37500000       0.37500000       0.87500000 </v>
    <v>       0.87500000       0.37500000       0.87500000 </v>
    <v>       0.37500000       0.87500000       0.87500000 </v>
    <v>       0.87500000       0.87500000       0.87500000 </v>
    <v>       0.25000000       0.00000000       0.00000000 </v>
    <v>       0.75000000       0.00000000       0.00000000 </v>
    <v>       0.25000000       0.50000000       0.00000000 </v>
    <v>       0.75000000       0.50000000       0.00000000 </v>
    <v>       0.25000000       0.00000000       0.50000000 </v>
    <v>       0.75000000       0.00000000       0.50000000 </v>
    <v>       0.25000000       0.50000000       0.50000000 </v>
    <v>       0.75000000       0.50000000       0.50000000 </v>
    <v>       0.37500000       0.12500000       0.12500000 </v>
    <v>       0.87500000       0.12500000       0.12500000 </v>
    <v>       0.37500000       0.62500000       0.12500000 </v>
    <v>       0.87500000       0.62500000       0.12500000 </v>
    <v>       0.37500000       0.12500000       0.62500000 </v>
    <v>       0.87500000       0.12500000       0.62500000 </v>
    <v>       0.37500000       0.62500000       0.62500000 </v>
    <v>       0.87500000       0.62500000       0.62500000 </v>
    <v>       0.25000000       0.25000000       0.25000000 </v>
    <v>       0.75000000       0.25000000       0.25000000 </v>
    <v>       0.25000000       0.75000000       0.25000000 </v>
    <v>       0.75000000       0.75000000       0.25000000 </v>
    <v>       0.25000000       0.25000000       0.75000000 </v>
    <v>       0.75000000       0.25000000       0.75000000 </v>
    <v>       0.25000000       0.75000000       0.75000000 </v>
    <v>       0.75000000       0.75000000       0.75000000 </v>
   </varray>
  </structure>
  <varray name="forces" >
   <v>       0.02846267       0.02874873       0.02904060 </v>
   <v>       0.02846267       0.02874873       0.02904060 </v>
   <v>       0.02846267       0.02874873       0.02904060 </v>
   <v>       0.02846267       0.02874873       0.02904060 </v>
   <v>       0.02846267       0.02874873       0.02904060 </v>
   <v>       0.02846267       0.02874873       0.02904060 </v>
   <v>       0.02846267       0.02874873       0.02904060 </v>
   <v>       0.02846267       0.02874873       0.02904060 </v>
   <v>      -0.02846267      -0.02874873      -0.02904060 </v>
   <v>      -0.02846267      -0.02874873      -0.02904060 </v>
   <v>      -0.02846267      -0.02874873      -0.02904060 </v>
   <v>      -0.02846267      -0.02874873      -0.02904060 </v>
   <v>      -0.02846267      -0.02874873      -0.02904060 </v>
   <v>      -0.02846267      -0.02874873      -0.02904060 </v>
   <v>      -0.02846267      -0.02874873      -0.02904060 </v>
   <v>      -0.02846267      -0.02874873      -0.02904060 </v>
   <v>       0.02846267       0.02874873       0.02904060 </v>
   <v>       0.02846267       0.02874873       0.02904060 </v>
   <v>       0.02846267       0.02874873       0.02904060 </v>
   <v>       0.02846267       0.02874873       0.02904060 </v>
   <v>       0.02846267       0.02874873       0.02904060 </v>
   <v>       0.02846267       0.02874873       0.02904060 </v>
   <v>       0.02846267       0.02874873       0.02904060 </v>
   <v>       0.02846267       0.02874873       0.02904060 </v>
   <v>      -0.02846267      -0.02874873      -0.02904060 </v>
   <v>      -0.02846267      -0.02874873      -0.02904060 </v>
   <v>      -0.02846267      -0.02874873      -0.02904060 </v>
   <v>      -0.02846267      -0.02874873      -0.02904060 </v>
   <v>      -0.02846267      -0.02874873      -0.02904060 </v>
   <v>      -0.02846267      -0.02874873      -0.02904060 </v>
   <v>      -0.02846267      -0.02874873      -0.02904060 </v>
   <v>      -0.02846267      -0.02874873      -0.02904060 </v>
   <v>       0.02846267       0.02874873       0.02904060 </v>
   <v>       0.02846267       0.02874873       0.02904060 </v>
   <v>       0.02846267       0.02874873       0.02904060 </v>
   <v>       0.02846267       0.02874873       0.02904060 </v>
   <v>       0.02846267       0.02874873       0.02904060 </v>
   <v>       0.02846267       0.02874873       0.02904060 </v>
   <v>       0.02846267       0.02874873       0.02904060 </v>
   <v>       0.02846267       0.02874873       0.02904060 </v>
   <v>      -0.02846267      -0.02874873      -0.02904060 </v>
   <v>      -0.02846267      -0.02874873      -0.02904060 </v>
   <v>      -0.02846267      -0.02874873      -0.02904060 </v>
   <v>      -0.02846267      -0.02874873      -0.02904060 </v>
   <v>      -0.02846267      -0.02874873      -0.02904060 </v>
   <v>      -0.02846267      -0.02874873      -0.02904060 </v>
   <v>      -0.02846267      -0.02874873      -0.02904060 </v>
   <v>      -0.02846267      -0.02874873      -0.02904060 </v>
   <v>       0.02846267       0.02874873       0.02904060 </v>
   <v>       0.02846267       0.02874873       0.02904060 </v>
   <v>       0.02846267       0.02874873       0.02904060 </v>
   <v>       0.02846267       0.02874873       0.02904060 </v>
   <v>       0.02846267       0.02874873       0.02904060 </v>
   <v>       0.02846267       0.02874873       0.02904060 </v>
   <v>       0.02846267       0.02874873       0.02904060 </v>
   <v>       0.02846267       0.02874873       0.02904060 </v>
   <v>      -0.02846267      -0.02874873      -0.02904060 </v>
   <v>      -0.02846267      -0.02874873      -0.02904060 </v>
   <v>      -0.02846267      -0.02874873      -0.02904060 </v>
   <v>      -0.02846267      -0.02874873      -0.02904060 </v>
   <v>      -0.02846267      -0.02874873      -0.02904060 </v>
   <v>      -0.02846267      -0.02874873      -0.02904060 </v>
   <v>      -0.02846267      -0.02874873      -0.02904060 </v>
   <v>      -0.02846267      -0.02874873      -0.02904060 </v>
  </varray>
  <varray name="stress" >
   <v>    -100.19410836      54.87135716      55.42844158 </v>
   <v>      54.87135716     -99.09660677      55.98551422 </v>
   <v>      55.42844158      55.98551422     -97.96555402 </v>
  </varray>
  <energy>
   <i name="e_fr_energy">   -581.70604682 </i>
   <i name="e_wo_entrp">   -581.70604682 </i>
   <i name="e_0_energy">     -0.00000000 </i>
  </energy>
  <kpoints>
   <generation param="Gamma">
    <v type="int" name="divisions">       6        6        6 </v>
    <v name="usershift">      0.00000000       0.00000000       0.00000000 </v>
    <v name="genvec1">      0.16666667      -0.00000000      -0.00000000 </v>
    <v name="genvec2">      0.00000000       0.16666667       0.00000000 </v>
    <v name="genvec3">      0.00000000       0.00000000       0.16666667 </v>
    <v name="shift">      0.00000000       0.00000000       0.00000000 </v>
   </generation>
   <varray name="kpointlist" >
    <v>       0.00000000       0.00000000       0.00000000 </v>
    <v>       0.16666667      -0.00000000      -0.00000000 </v>
    <v>       0.33333333      -0.00000000       0.00000000 </v>
    <v>       0.50000000      -0.00000000      -0.00000000 </v>
    <v>       0.00000000       0.16666667       0.00000000 </v>
    <v>       0.16666667       0.16666667       0.00000000 </v>
    <v>       0.33333333       0.16666667      -0.00000000 </v>
    <v>       0.50000000       0.16666667       0.00000000 </v>
    <v>      -0.33333333       0.16666667       0.00000000 </v>
    <v>      -0.16666667       0.16666667      -0.00000000 </v>
    <v>       0.00000000       0.33333333      -0.00000000 </v>
    <v>       0.16666667       0.33333333       0.00000000 </v>
    <v>       0.33333333       0.33333333      -0.00000000 </v>
    <v>       0.50000000       0.33333333       0.00000000 </v>
    <v>      -0.33333333       0.33333333       0.00000000 </v>
    <v>      -0.16666667       0.33333333      -0.00000000 </v>
    <v>       0.00000000       0.50000000       0.00000000 </v>
    <v>       0.16666667       0.50000000       0.00000000 </v>
    <v>       0.33333333       0.50000000      -0.00000000 </v>
    <v>       0.50000000       0.50000000       0.00000000 </v>
    <v>       0.00000000       0.16666667       0.16666667 </v>
    <v>       0.16666667       0.16666667       0.16666667 </v>
    <v>       0.33333333       0.16666667       0.16666667 </v>
    <v>       0.50000000       0.16666667       0.16666667 </v>
    <v>      -0.33333333       0.16666667       0.16666667 </v>
    <v>      -0.16666667       0.16666667       0.16666667 </v>
    <v>       0.00000000       0.33333333       0.16666667 </v>
    <v>       0.16666667       0.33333333       0.16666667 </v>
    <v>       0.33333333       0.33333333       0.16666667 </v>
    <v>       0.50000000       0.33333333       0.16666667 </v>
    <v>      -0.33333333       0.33333333       0.16666667 </v>
    <v>      -0.16666667       0.33333333       0.16666667 </v>
    <v>       0.00000000       0.50000000       0.16666667 </v>
    <v>       0.16666667       0.50000000       0.16666667 </v>
    <v>       0.33333333       0.50000000       0.16666667 </v>
    <v>       0.50000000       0.50000000       0.16666667 </v>
    <v>      -0.33333333       0.50000000       0.16666667 </v>
    <v>      -0.16666667       0.50000000       0.16666667 </v>
    <v>       0.00000000      -0.33333333       0.16666667 </v>
    <v>       0.16666667      -0.33333333       0.16666667 </v>
    <v>       0.33333333      -0.33333333       0.16666667 </v>
    <v>       0.50000000      -0.33333333       0.16666667 </v>
    <v>      -0.33333333      -0.33333333       0.16666667 </v>
    <v>      -0.16666667      -0.33333333       0.16666667 </v>
    <v>       0.00000000      -0.16666667       0.16666667 </v>
    <v>       0.16666667      -0.16666667       0.16666667 </v>
    <v>       0.33333333      -0.16666667       0.16666667 </v>
    <v>       0.50000000      -0.16666667       0.16666667 </v>
    <v>       0.00000000       0.33333333       0.33333333 </v>
    <v>       0.16666667       0.33333333       0.33333333 </v>
    <v>       0.33333333       0.33333333       0.33333333 </v>
    <v>       0.50000000       0.33333333       0.33333333 </v>
    <v>      -0.33333333       0.33333333       0.33333333 </v>
    <v>      -0.16666667       0.33333333       0.33333333 </v>
    <v>       0.00000000       0.50000000       0.33333333 </v>
    <v>       0.16666667       0.50000000       0.33333333 </v>
    <v>       0.33333333       0.50000000       0.33333333 </v>
    <v>       0.50000000       0.50000000       0.33333333 </v>
    <v>      -0.33333333       0.50000000       0.33333333 </v>
    <v>      -0.16666667       0.50000000       0.33333333 </v>
    <v>       0.00000000      -0.33333333       0.33333333 </v>
    <v>       0.16666667      -0.33333333       0.33333333 </v>
    <v>       0.33333333      -0.33333333       0.33333333 </v>
    <v>       0.50000000      -0.33333333       0.33333333 </v>
    <v>       0.00000000       0.50000000       0.50000000 </v>
    <v>       0.16666667       0.50000000       0.50000000 </v>
    <v>       0.33333333       0.50000000       0.50000000 </v>
    <v>       0.50000000       0.50000000       0.50000000 </v>
   </varray>
   <varray name="weights" >
    <v>       0.00462963 </v>
    <v>       0.00925926 </v>
    <v>       0.00925926 </v>
    <v>       0.00462963 </v>
    <v>       0.01851852 </v>
    <v>       0.01851852 </v>
    <v>       0.01851852 </v>
    <v>       0.01851852 </v>
    <v>       0.01851852 </v>
    <v>       0.01851852 </v>
    <v>       0.01851852 </v>
    <v>       0.01851852 </v>
    <v>       0.01851852 </v>
    <v>       0.01851852 </v>
    <v>       0.01851852 </v>
    <v>       0.01851852 </v>
    <v>       0.00925926 </v>
    <v>       0.01851852 </v>
    <v>       0.01851852 </v>
    <v>       0.00925926 </v>
    <v>       0.00925926 </v>
    <v>       0.00925926 </v>
    <v>       0.00925926 </v>
    <v>       0.00925926 </v>
    <v>       0.00925926 </v>
    <v>       0.00925926 </v>
    <v>       0.01851852 </v>
    <v>       0.01851852 </v>
    <v>       0.01851852 </v>
    <v>       0.01851852 </v>
    <v>       0.01851852 </v>
    <v>       0.01851852 </v>
    <v>       0.01851852 </v>
    <v>       0.01851852 </v>
    <v>       0.01851852 </v>
    <v>       0.01851852 </v>
    <v>       0.01851852 </v>
    <v>       0.01851852 </v>
    <v>       0.01851852 </v>
    <v>       0.01851852 </v>
    <v>       0.01851852 </v>
    <v>       0.01851852 </v>
    <v>       0.01851852 </v>
    <v>       0.01851852 </v>
    <v>       0.00925926 </v>
    <v>       0.01851852 </v>
    <v>       0.01851852 </v>
    <v>       0.00925926 </v>
    <v>       0.00925926 </v>
    <v>       0.00925926 </v>
    <v>       0.00925926 </v>
    <v>       0.00925926 </v>
    <v>       0.00925926 </v>
    <v>       0.00925926 </v>
    <v>       0.01851852 </v>
    <v>       0.01851852 </v>
    <v>       0.01851852 </v>
    <v>       0.01851852 </v>
    <v>       0.01851852 </v>
    <v>       0.01851852 </v>
    <v>       0.00925926 </v>
    <v>       0.01851852 </v>
    <v>       0.01851852 </v>
    <v>       0.00925926 </v>
    <v>       0.00462963 </v>
    <v>       0.00925926 </v>
    <v>       0.00925926 </v>
    <v>       0.00462963 </v>
   </varray>
  </kpoints>
  <scstep>
   <time name="total">   57.09   57.09</time>
   <energy>
    <i name="e_fr_energy">   -362.47954528 </i>
    <i name="e_wo_entrp">   -362.47954528 </i>
    <i name="e_0_energy">   -362.47954528 </i>
   </energy>
  </scstep>
  <scstep>
   <time name="total">   43.38   43.38</time>
   <energy>
    <i name="e_fr_energy">   -308.61605918 </i>
    <i name="e_wo_entrp">   -308.61605918 </i>
    <i name="e_0_energy">   -308.61605918 </i>
   </energy>
  </scstep>
  <scstep>
   <time name="total">   44.99   44.99</time>
   <energy>
    <i name="e_fr_energy">   -308.26748219 </i>
    <i name="e_wo_entrp">   -308.26748219 </i>
    <i name="e_0_energy">   -308.26748219 </i>
   </energy>
  </scstep>
  <scstep>
   <time name="total">   43.16   43.16</time>
   <energy>
    <i name="e_fr_energy">   -308.91128930 </i>
    <i name="e_wo_entrp">   -308.91128930 </i>
    <i name="e_0_energy">   -308.91128930 </i>
   </energy>
  </scstep>
  <scstep>
   <time name="total">   43.28   43.28</time>
   <energy>
    <i name="e_fr_energy">   -309.11475653 </i>
    <i name="e_wo_entrp">   -309.11475653 </i>
    <i name="e_0_energy">   -309.11475653 </i>
   </energy>
  </scstep>
  <scstep>
   <time name="total">   45.53   45.53</time>
   <energy>
    <i name="e_fr_energy">   -309.07207313 </i>
    <i name="e_wo_entrp">   -309.07207313 </i>
    <i name="e_0_energy">   -309.07207313 </i>
   </energy>
  </scstep>
  <scstep>
   <time name="total">   44.65   44.65</time>
   <energy>
    <i name="e_fr_energy">   -309.05119939 </i>
    <i name="e_wo_entrp">   -309.05119939 </i>
    <i name="e_0_energy">   -309.05119939 </i>
   </energy>
  </scstep>
  <scstep>
   <time name="total">   45.88   45.88</time>
   <energy>
    <i name="e_fr_energy">   -309.04968470 </i>
    <i name="e_wo_entrp">   -309.04968470 </i>
    <i name="e_0_energy">   -309.04968470 </i>
   </energy>
  </scstep>
  <scstep>
   <time name="total">   46.54   46.54</time>
   <energy>
    <i name="e_fr_energy">   -309.04913070 </i>
    <i name="e_wo_entrp">   -309.04913070 </i>
    <i name="e_0_energy">   -309.04913070 </i>
   </energy>
  </scstep>
  <scstep>
   <time name="total">   47.81   47.81</time>
   <energy>
    <i name="e_fr_energy">   -309.04928507 </i>
    <i name="e_wo_entrp">   -309.04928507 </i>
    <i name="e_0_energy">   -309.04928507 </i>
   </energy>
  </scstep>
  <scstep>
   <time name="total">   49.60   49.66</time>
   <energy>
    <i name="e_fr_energy">   -309.04926261 </i>
    <i name="e_wo_entrp">   -309.04926261 </i>
    <i name="e_0_energy">   -309.04926261 </i>
   </energy>
  </scstep>
  <kpoints>
   <generation param="Gamma">
    <v type="int" name="divisions">       6        6        6 </v>
    <v name="usershift">      0.00000000       0.00000000       0.00000000 </v>
    <v name="genvec1">      0.16666667      -0.00000000      -0.00000000 </v>
    <v name="genvec2">      0.00000000       0.16666667       0.00000000 </v>
    <v name="genvec3">      0.00000000       0.00000000       0.16666667 </v>
    <v name="shift">      0.00000000       0.00000000       0.00000000 </v>
   </generation>
   <varray name="kpointlist" >
    <v>       0.00000000       0.00000000       0.00000000 </v>
    <v>       0.16666667      -0.00000000      -0.00000000 </v>
    <v>       0.33333333      -0.00000000       0.00000000 </v>
    <v>       0.50000000      -0.00000000      -0.00000000 </v>
    <v>       0.16666667       0.16666667       0.00000000 </v>
    <v>       0.33333333       0.16666667      -0.00000000 </v>
    <v>       0.50000000       0.16666667       0.00000000 </v>
    <v>      -0.33333333       0.16666667       0.00000000 </v>
    <v>      -0.16666667       0.16666667      -0.00000000 </v>
    <v>       0.33333333       0.33333333      -0.00000000 </v>
    <v>       0.50000000       0.33333333       0.00000000 </v>
    <v>      -0.33333333       0.33333333       0.00000000 </v>
    <v>       0.50000000       0.50000000       0.00000000 </v>
    <v>       0.16666667       0.16666667       0.16666667 </v>
    <v>       0.33333333       0.16666667       0.16666667 </v>
    <v>       0.50000000       0.16666667       0.16666667 </v>
    <v>      -0.33333333       0.16666667       0.16666667 </v>
    <v>      -0.16666667       0.16666667       0.16666667 </v>
    <v>       0.33333333       0.33333333       0.16666667 </v>
    <v>       0.50000000       0.33333333       0.16666667 </v>
    <v>      -0.33333333       0.33333333       0.16666667 </v>
    <v>      -0.16666667       0.33333333       0.16666667 </v>
    <v>       0.50000000       0.50000000       0.16666667 </v>
    <v>      -0.33333333       0.50000000       0.16666667 </v>
    <v>      -0.16666667       0.50000000       0.16666667 </v>
    <v>      -0.33333333      -0.33333333       0.16666667 </v>
    <v>       0.33333333       0.33333333       0.33333333 </v>
    <v>       0.50000000       0.33333333       0.33333333 </v>
    <v>      -0.33333333       0.33333333       0.33333333 </v>
    <v>       0.50000000       0.50000000       0.33333333 </v>
    <v>      -0.33333333       0.50000000       0.33333333 </v>
    <v>       0.50000000       0.50000000       0.50000000 </v>
   </varray>
   <varray name="weights" >
    <v>       0.00462963 </v>
    <v>       0.02777778 </v>
    <v>       0.02777778 </v>
    <v>       0.01388889 </v>
    <v>       0.02777778 </v>
    <v>       0.05555556 </v>
    <v>       0.05555556 </v>
    <v>       0.05555556 </v>
    <v>       0.02777778 </v>
    <v>       0.02777778 </v>
    <v>       0.05555556 </v>
    <v>       0.02777778 </v>
    <v>       0.01388889 </v>
    <v>       0.00925926 </v>
    <v>       0.02777778 </v>
    <v>       0.02777778 </v>
    <v>       0.02777778 </v>
    <v>       0.02777778 </v>
    <v>       0.02777778 </v>
    <v>       0.05555556 </v>
    <v>       0.05555556 </v>
    <v>       0.05555556 </v>
    <v>       0.02777778 </v>
    <v>       0.05555556 </v>
    <v>       0.02777778 </v>
    <v>       0.02777778 </v>
    <v>       0.00925926 </v>
    <v>       0.02777778 </v>
    <v>       0.02777778 </v>
    <v>       0.02777778 </v>
    <v>       0.02777778 </v>
    <v>       0.00462963 </v>
   </varray>
  </kpoints>
  <dynmat>
   <varray name="hessian" >
    <v>      -3.56024477      -0.07953953      -0.08034706       0.01342666      -0.00006610      -0.00006677       0.00773796      -0.00012299      -0.00000989       0.00945619       0.00047351       0.00010561       0.00773796      -0.00000865      -0.00012308       0.00945619       0.00010082       0.00047455      -0.04730050      -0.00046677      -0.00047151       0.00431496      -0.00012056      -0.00012179      -0.01335540      -0.00837568       0.00229602       0.00641289      -0.00770191      -0.01739431       0.72725919      -0.14022112      -0.14164473      -0.00437920      -0.00727317      -0.00734701       0.02978065      -0.01749884      -0.01767650      -0.00283014      -0.00253194      -0.00255764      -0.01335540       0.00238051      -0.00835207       0.00641289      -0.01731562      -0.00787721      -0.11318747       0.05704840      -0.05764838      -0.00449938       0.00308613      -0.00327290      -0.11515453       0.05646533       0.05703859      -0.00477474       0.00287420       0.00290338      -0.11515453      -0.06246444      -0.06309861      -0.00477474      -0.00318844      -0.00322081      -0.11318747      -0.05822168       0.05646319      -0.00449938      -0.00330390       0.00305291       0.77867812       0.20591205       0.20800258      -0.00551061       0.00741074       0.00748597      -0.01306208       0.00733522      -0.00177294       0.00633282       0.00909973       0.01820345      -0.01306208      -0.00184694       0.00731694       0.00633282       0.01811060       0.00928314       0.02773319       0.01832462       0.01851066      -0.00295820       0.00254894       0.00257482       0.12568247      -0.06005594       0.13168776       0.12227410      -0.05586696      -0.12538017       0.00689383      -0.00307175      -0.00647489       0.00683868      -0.00319052       0.00620267       0.12227410       0.05940312      -0.12524407       0.12568247       0.05887381       0.13288913       0.00683868       0.00319951       0.00601352       0.00689383       0.00299089      -0.00641365      -0.01231419       0.00800564       0.00247191       0.00806723       0.00953476      -0.01762057       0.72320742       0.13996669      -0.13885493      -0.00598184       0.00806897      -0.00822086       0.02830008       0.01763214      -0.01691950      -0.00266634       0.00273934      -0.00250276      -0.01292414      -0.00121845      -0.00737131       0.00604268       0.01740956      -0.00753014       0.12227410      -0.12583769       0.05813501       0.12568247       0.13228766       0.06021312       0.12568247       0.13228765      -0.05872271       0.12227410      -0.12480946      -0.05713057       0.00683868       0.00598090       0.00326009       0.00689383      -0.00644353       0.00292596       0.00689383      -0.00644353      -0.00313700       0.00683868       0.00623458      -0.00312770       0.72320742      -0.14026163       0.13855699      -0.00598184      -0.00830194       0.00798552      -0.01292414      -0.00735862      -0.00129285       0.00604268      -0.00770561       0.01733261      -0.01231419       0.00239092       0.00803020       0.00806723      -0.01771598       0.00935629       0.02830008      -0.01709674       0.01746034      -0.00266634      -0.00253030       0.00271392 </v>
    <v>      -0.07953953      -3.56183503      -0.08115475      -0.00006610       0.00773607      -0.00001056      -0.00012299       0.01342476      -0.00006687       0.00047351       0.00946566       0.00010667      -0.00000865       0.00773779      -0.00012432       0.00010082      -0.04730415      -0.00046679      -0.00046677       0.00945253       0.00046986      -0.00012056       0.00431254      -0.00012301      -0.00837568      -0.00614862       0.00800888      -0.00770191       0.00588860       0.01715952      -0.14022112       0.72040235       0.13714743      -0.00727317      -0.01307046      -0.00136639      -0.01749884       0.00771506       0.00917999      -0.00253194      -0.00271697       0.00268848       0.00238051      -0.01226647       0.00794708      -0.01731562       0.02795594       0.01738243      -0.05822168       0.12228588      -0.12596294      -0.00330390       0.00683764       0.00617024      -0.06246444       0.12564656       0.13226476      -0.00318844       0.00689185      -0.00644618       0.05646533       0.12564656       0.13226476       0.00287420       0.00689185      -0.00644618       0.05704840       0.12228588      -0.12468565       0.00308613       0.00683764       0.00604436       0.20591205       0.78279644       0.21009312       0.00741074      -0.01291461      -0.00169816       0.00733522      -0.00536315       0.00746862       0.00909973       0.00651482       0.01838640      -0.00184694      -0.01309902       0.00739047       0.01811060       0.02809755       0.01860442       0.01832462       0.00669719       0.00946872       0.00254894      -0.00290722       0.00260070       0.05887381      -0.11519042       0.05835839       0.05940312      -0.11317564      -0.05890511       0.00299089      -0.00477672       0.00283878       0.00319951      -0.00450042      -0.00321103      -0.05586696      -0.11317564       0.05521351      -0.06005594      -0.11519042      -0.06177280      -0.00319052      -0.00450042       0.00311320      -0.00307175      -0.00477672      -0.00328511       0.00800564      -0.00582108      -0.00819655       0.00953476       0.00825793      -0.01779766       0.13996669       0.72600675      -0.14025044       0.00806897      -0.01215344       0.00238982       0.01763214       0.00639311      -0.00769972       0.00273934      -0.00261155      -0.00252791      -0.00121845      -0.01294851      -0.00744539       0.01740956       0.02865051      -0.01699565      -0.12480946       0.11976749      -0.05655205       0.13228765       0.12832833       0.06081828       0.13228766       0.12832833      -0.05931291      -0.12583769       0.11976749       0.05756658       0.00623458       0.00696084      -0.00309525      -0.00644353       0.00676495       0.00295536      -0.00644353       0.00676495      -0.00316853       0.00598090       0.00696084       0.00322898      -0.14026163       0.72445409      -0.14026613      -0.00830194      -0.01352218       0.00237600      -0.00735862      -0.00452552      -0.00736031      -0.00770561       0.00625880      -0.01722184       0.00239092      -0.01330768      -0.00827218      -0.01771598       0.02942847      -0.01758381      -0.01709674       0.00606874      -0.00770300      -0.00253030      -0.00288076      -0.00253063 </v>
    <v>      -0.08034706      -0.08115475      -3.56347520      -0.00006677      -0.00001056       0.00773586      -0.00000989      -0.00006687       0.00773586       0.00010561       0.00010667      -0.04730780      -0.00012308      -0.00012432       0.01342284       0.00047455      -0.00046679       0.00946203      -0.00047151       0.00046986       0.00946203      -0.00012179      -0.00012301       0.00431006       0.00229602       0.00800888      -0.01210530      -0.01739431       0.01715952       0.02830486      -0.14164473       0.13714743       0.72317325      -0.00734701      -0.00136639      -0.01309807      -0.01767650       0.00917999       0.00790053      -0.00255764       0.00268848      -0.00266265      -0.00835207       0.00794708      -0.00598744      -0.00787721       0.01738243       0.00623752       0.05646319      -0.12468565       0.11975399       0.00305291       0.00604436       0.00696102      -0.06309861       0.13226476       0.12831871      -0.00322081      -0.00644618       0.00676162       0.05703859       0.13226476       0.12831871       0.00290338      -0.00644618       0.00676162      -0.05764838      -0.12596294       0.11975399      -0.00327290       0.00617024       0.00696102       0.20800258       0.21009312       0.78704106       0.00748597      -0.00169816      -0.01294892      -0.00177294       0.00746862      -0.01294892       0.01820345       0.01838640       0.02847122       0.00731694       0.00739047      -0.00521305       0.00928314       0.01860442       0.00688849       0.01851066       0.00946872       0.00688849       0.00257482       0.00260070      -0.00285468       0.13288913      -0.06177280       0.12831871      -0.12524407       0.05521351       0.11975399      -0.00641365      -0.00328511       0.00676162       0.00601352       0.00311320       0.00696102      -0.12538017      -0.05890511       0.11975399       0.13168776       0.05835839       0.12831871       0.00620267      -0.00321103       0.00696102      -0.00647489       0.00283878       0.00676162       0.00247191      -0.00819655      -0.01347404      -0.01762057      -0.01779766       0.02907108      -0.13885493      -0.14025044       0.72162059      -0.00822086       0.00238982      -0.01347404      -0.01691950      -0.00769972       0.00591316      -0.00250276      -0.00252791      -0.00293186      -0.00737131      -0.00744539      -0.00467508      -0.00753014      -0.01699565       0.00591316      -0.05713057       0.05756658      -0.11318918      -0.05872271      -0.05931291      -0.11520008       0.06021312       0.06081828      -0.11520008       0.05813501      -0.05655205      -0.11318918      -0.00312770       0.00322898      -0.00450024      -0.00313700      -0.00316853      -0.00478005       0.00292596       0.00295536      -0.00478005       0.00326009      -0.00309525      -0.00450024       0.13855699      -0.14026613       0.72317325       0.00798552       0.00237600      -0.01210530      -0.00129285      -0.00736031      -0.01309807       0.01733261      -0.01722184       0.02830486       0.00803020      -0.00827218      -0.00598744       0.00935629      -0.01758381       0.00790053       0.01746034      -0.00770300       0.00623752       0.00271392      -0.00253063      -0.00266265 </v>
    <v>       0.01342666      -0.00006610      -0.00006677      -3.56024477      -0.07953953      -0.08034706       0.00945619       0.00047351       0.00010561       0.00773796      -0.00012299      -0.00000989       0.00945619       0.00010082       0.00047455       0.00773796      -0.00000865      -0.00012308       0.00431496      -0.00012056      -0.00012179      -0.04730050      -0.00046677      -0.00047151       0.00641289      -0.00770191      -0.01739431      -0.01335540      -0.00837568       0.00229602      -0.00437920      -0.00727317      -0.00734701       0.72725919      -0.14022112      -0.14164473      -0.00283014      -0.00253194      -0.00255764       0.02978065      -0.01749884      -0.01767650       0.00641289      -0.01731562      -0.00787721      -0.01335540       0.00238051      -0.00835207      -0.00449938       0.00308613      -0.00327290      -0.11318747       0.05704840      -0.05764838      -0.00477474       0.00287420       0.00290338      -0.11515453       0.05646533       0.05703859      -0.00477474      -0.00318844      -0.00322081      -0.11515453      -0.06246444      -0.06309861      -0.00449938      -0.00330390       0.00305291      -0.11318747      -0.05822168       0.05646319      -0.00551061       0.00741074       0.00748597       0.77867812       0.20591205       0.20800258       0.00633282       0.00909973       0.01820345      -0.01306208       0.00733522      -0.00177294       0.00633282       0.01811060       0.00928314      -0.01306208      -0.00184694       0.00731694      -0.00295820       0.00254894       0.00257482       0.02773319       0.01832462       0.01851066       0.12227410      -0.05586696      -0.12538017       0.12568247      -0.06005594       0.13168776       0.00683868      -0.00319052       0.00620267       0.00689383      -0.00307175      -0.00647489       0.12568247       0.05887381       0.13288913       0.12227410       0.05940312      -0.12524407       0.00689383       0.00299089      -0.00641365       0.00683868       0.00319951       0.00601352       0.00806723       0.00953476      -0.01762057      -0.01231419       0.00800564       0.00247191      -0.00598184       0.00806897      -0.00822086       0.72320742       0.13996669      -0.13885493      -0.00266634       0.00273934      -0.00250276       0.02830008       0.01763214      -0.01691950       0.00604268       0.01740956      -0.00753014      -0.01292414      -0.00121845      -0.00737131       0.12568247       0.13228766       0.06021312       0.12227410      -0.12583769       0.05813501       0.12227410      -0.12480946      -0.05713057       0.12568247       0.13228765      -0.05872271       0.00689383      -0.00644353       0.00292596       0.00683868       0.00598090       0.00326009       0.00683868       0.00623458      -0.00312770       0.00689383      -0.00644353      -0.00313700      -0.00598184      -0.00830194       0.00798552       0.72320742      -0.14026163       0.13855699       0.00604268      -0.00770561       0.01733261      -0.01292414      -0.00735862      -0.00129285       0.00806723      -0.01771598       0.00935629      -0.01231419       0.00239092       0.00803020      -0.00266634      -0.00253030       0.00271392       0.02830008      -0.01709674       0.01746034 </v>
    <v>      -0.00006610       0.00773607      -0.00001056      -0.07953953      -3.56183503      -0.08115475       0.00047351       0.00946566       0.00010667      -0.00012299       0.01342476      -0.00006687       0.00010082      -0.04730415      -0.00046679      -0.00000865       0.00773779      -0.00012432      -0.00012056       0.00431254      -0.00012301      -0.00046677       0.00945253       0.00046986      -0.00770191       0.00588860       0.01715952      -0.00837568      -0.00614862       0.00800888      -0.00727317      -0.01307046      -0.00136639      -0.14022112       0.72040235       0.13714743      -0.00253194      -0.00271697       0.00268848      -0.01749884       0.00771506       0.00917999      -0.01731562       0.02795594       0.01738243       0.00238051      -0.01226647       0.00794708      -0.00330390       0.00683764       0.00617024      -0.05822168       0.12228588      -0.12596294      -0.00318844       0.00689185      -0.00644618      -0.06246444       0.12564656       0.13226476       0.00287420       0.00689185      -0.00644618       0.05646533       0.12564656       0.13226476       0.00308613       0.00683764       0.00604436       0.05704840       0.12228588      -0.12468565       0.00741074      -0.01291461      -0.00169816       0.20591205       0.78279644       0.21009312       0.00909973       0.00651482       0.01838640       0.00733522      -0.00536315       0.00746862       0.01811060       0.02809755       0.01860442      -0.00184694      -0.01309902       0.00739047       0.00254894      -0.00290722       0.00260070       0.01832462       0.00669719       0.00946872       0.05940312      -0.11317564      -0.05890511       0.05887381      -0.11519042       0.05835839       0.00319951      -0.00450042      -0.00321103       0.00299089      -0.00477672       0.00283878      -0.06005594      -0.11519042      -0.06177280      -0.05586696      -0.11317564       0.05521351      -0.00307175      -0.00477672      -0.00328511      -0.00319052      -0.00450042       0.00311320       0.00953476       0.00825793      -0.01779766       0.00800564      -0.00582108      -0.00819655       0.00806897      -0.01215344       0.00238982       0.13996669       0.72600675      -0.14025044       0.00273934      -0.00261155      -0.00252791       0.01763214       0.00639311      -0.00769972       0.01740956       0.02865051      -0.01699565      -0.00121845      -0.01294851      -0.00744539       0.13228765       0.12832833       0.06081828      -0.12480946       0.11976749      -0.05655205      -0.12583769       0.11976749       0.05756658       0.13228766       0.12832833      -0.05931291      -0.00644353       0.00676495       0.00295536       0.00623458       0.00696084      -0.00309525       0.00598090       0.00696084       0.00322898      -0.00644353       0.00676495      -0.00316853      -0.00830194      -0.01352218       0.00237600      -0.14026163       0.72445409      -0.14026613      -0.00770561       0.00625880      -0.01722184      -0.00735862      -0.00452552      -0.00736031      -0.01771598       0.02942847      -0.01758381       0.00239092      -0.01330768      -0.00827218      -0.00253030      -0.00288076      -0.00253063      -0.01709674       0.00606874      -0.00770300 </v>
    <v>      -0.00006677      -0.00001056       0.00773586      -0.08034706      -0.08115475      -3.56347520       0.00010561       0.00010667      -0.04730780      -0.00000989      -0.00006687       0.00773586       0.00047455      -0.00046679       0.00946203      -0.00012308      -0.00012432       0.01342284      -0.00012179      -0.00012301       0.00431006      -0.00047151       0.00046986       0.00946203      -0.01739431       0.01715952       0.02830486       0.00229602       0.00800888      -0.01210530      -0.00734701      -0.00136639      -0.01309807      -0.14164473       0.13714743       0.72317325      -0.00255764       0.00268848      -0.00266265      -0.01767650       0.00917999       0.00790053      -0.00787721       0.01738243       0.00623752      -0.00835207       0.00794708      -0.00598744       0.00305291       0.00604436       0.00696102       0.05646319      -0.12468565       0.11975399      -0.00322081      -0.00644618       0.00676162      -0.06309861       0.13226476       0.12831871       0.00290338      -0.00644618       0.00676162       0.05703859       0.13226476       0.12831871      -0.00327290       0.00617024       0.00696102      -0.05764838      -0.12596294       0.11975399       0.00748597      -0.00169816      -0.01294892       0.20800258       0.21009312       0.78704106       0.01820345       0.01838640       0.02847122      -0.00177294       0.00746862      -0.01294892       0.00928314       0.01860442       0.00688849       0.00731694       0.00739047      -0.00521305       0.00257482       0.00260070      -0.00285468       0.01851066       0.00946872       0.00688849      -0.12524407       0.05521351       0.11975399       0.13288913      -0.06177280       0.12831871       0.00601352       0.00311320       0.00696102      -0.00641365      -0.00328511       0.00676162       0.13168776       0.05835839       0.12831871      -0.12538017      -0.05890511       0.11975399      -0.00647489       0.00283878       0.00676162       0.00620267      -0.00321103       0.00696102      -0.01762057      -0.01779766       0.02907108       0.00247191      -0.00819655      -0.01347404      -0.00822086       0.00238982      -0.01347404      -0.13885493      -0.14025044       0.72162059      -0.00250276      -0.00252791      -0.00293186      -0.01691950      -0.00769972       0.00591316      -0.00753014      -0.01699565       0.00591316      -0.00737131      -0.00744539      -0.00467508      -0.05872271      -0.05931291      -0.11520008      -0.05713057       0.05756658      -0.11318918       0.05813501      -0.05655205      -0.11318918       0.06021312       0.06081828      -0.11520008      -0.00313700      -0.00316853      -0.00478005      -0.00312770       0.00322898      -0.00450024       0.00326009      -0.00309525      -0.00450024       0.00292596       0.00295536      -0.00478005       0.00798552       0.00237600      -0.01210530       0.13855699      -0.14026613       0.72317325       0.01733261      -0.01722184       0.02830486      -0.00129285      -0.00736031      -0.01309807       0.00935629      -0.01758381       0.00790053       0.00803020      -0.00827218      -0.00598744       0.00271392      -0.00253063      -0.00266265       0.01746034      -0.00770300       0.00623752 </v>
    <v>       0.00773796      -0.00012299      -0.00000989       0.00945619       0.00047351       0.00010561      -3.56024477      -0.07953953      -0.08034706       0.01342666      -0.00006610      -0.00006677      -0.04730050      -0.00046677      -0.00047151       0.00431496      -0.00012056      -0.00012179       0.00773796      -0.00000865      -0.00012308       0.00945619       0.00010082       0.00047455       0.72725919      -0.14022112      -0.14164473      -0.00437920      -0.00727317      -0.00734701      -0.01335540      -0.00837568       0.00229602       0.00641289      -0.00770191      -0.01739431      -0.01335540       0.00238051      -0.00835207       0.00641289      -0.01731562      -0.00787721       0.02978065      -0.01749884      -0.01767650      -0.00283014      -0.00253194      -0.00255764      -0.11515453       0.05646533       0.05703859      -0.00477474       0.00287420       0.00290338      -0.11318747       0.05704840      -0.05764838      -0.00449938       0.00308613      -0.00327290      -0.11318747      -0.05822168       0.05646319      -0.00449938      -0.00330390       0.00305291      -0.11515453      -0.06246444      -0.06309861      -0.00477474      -0.00318844      -0.00322081      -0.01306208       0.00733522      -0.00177294       0.00633282       0.00909973       0.01820345       0.77867812       0.20591205       0.20800258      -0.00551061       0.00741074       0.00748597       0.02773319       0.01832462       0.01851066      -0.00295820       0.00254894       0.00257482      -0.01306208      -0.00184694       0.00731694       0.00633282       0.01811060       0.00928314       0.00689383      -0.00307175      -0.00647489       0.00683868      -0.00319052       0.00620267       0.12568247      -0.06005594       0.13168776       0.12227410      -0.05586696      -0.12538017       0.00683868       0.00319951       0.00601352       0.00689383       0.00299089      -0.00641365       0.12227410       0.05940312      -0.12524407       0.12568247       0.05887381       0.13288913       0.72320742       0.13996669      -0.13885493      -0.00598184       0.00806897      -0.00822086      -0.01231419       0.00800564       0.00247191       0.00806723       0.00953476      -0.01762057      -0.01292414      -0.00121845      -0.00737131       0.00604268       0.01740956      -0.00753014       0.02830008       0.01763214      -0.01691950      -0.00266634       0.00273934      -0.00250276       0.12568247       0.13228765      -0.05872271       0.12227410      -0.12480946      -0.05713057       0.12227410      -0.12583769       0.05813501       0.12568247       0.13228766       0.06021312       0.00689383      -0.00644353      -0.00313700       0.00683868       0.00623458      -0.00312770       0.00683868       0.00598090       0.00326009       0.00689383      -0.00644353       0.00292596      -0.01292414      -0.00735862      -0.00129285       0.00604268      -0.00770561       0.01733261       0.72320742      -0.14026163       0.13855699      -0.00598184      -0.00830194       0.00798552       0.02830008      -0.01709674       0.01746034      -0.00266634      -0.00253030       0.00271392      -0.01231419       0.00239092       0.00803020       0.00806723      -0.01771598       0.00935629 </v>
[...]
      </set>
     </set>
    </set>
   </array>
  </eigenvalues>
  <separator name="orbital magnetization" >
   <v name="MAGDIPOLOUT">      0.00000000      0.00000000      0.00000000</v>
  </separator>
  <dos>
   <i name="efermi">      9.77014780 </i>
   <total>
    <array>
     <dimension dim="1">gridpoints</dimension>
     <dimension dim="2">spin</dimension>
     <field>energy</field>
     <field>total</field>
     <field>integrated</field>
     <set>
      <set comment="spin 1">
       <r>   -13.3775     0.0000     0.0000 </r>
       <r>   -13.2576     0.0000     0.0000 </r>
       <r>   -13.1378     0.0000     0.0000 </r>
       <r>   -13.0179     0.0000     0.0000 </r>
       <r>   -12.8981     0.0000     0.0000 </r>
       <r>   -12.7782     0.0000     0.0000 </r>
       <r>   -12.6583     0.0000     0.0000 </r>
       <r>   -12.5385     0.0000     0.0000 </r>
       <r>   -12.4186     0.0000     0.0000 </r>
       <r>   -12.2988     0.0000     0.0000 </r>
       <r>   -12.1789     0.0000     0.0000 </r>
       <r>   -12.0590     0.0000     0.0000 </r>
       <r>   -11.9392     0.0000     0.0000 </r>
       <r>   -11.8193     0.0030     0.0004 </r>
       <r>   -11.6995     0.2350     0.0285 </r>
       <r>   -11.5796     1.2211     0.1749 </r>
       <r>   -11.4598     1.4028     0.3430 </r>
       <r>   -11.3399     2.8346     0.6828 </r>
       <r>   -11.2200     1.5228     0.8653 </r>
       <r>   -11.1002     3.5333     1.2888 </r>
       <r>   -10.9803     2.8849     1.6346 </r>
       <r>   -10.8605     3.7798     2.0876 </r>
       <r>   -10.7406     2.3931     2.3745 </r>
       <r>   -10.6207     4.5377     2.9183 </r>
       <r>   -10.5009     4.3766     3.4429 </r>
       <r>   -10.3810     5.0070     4.0430 </r>
       <r>   -10.2612     2.4657     4.3386 </r>
       <r>   -10.1413     4.4775     4.8752 </r>
       <r>   -10.0215     6.4621     5.6498 </r>
       <r>    -9.9016     5.3302     6.2887 </r>
       <r>    -9.7817     4.7205     6.8544 </r>
       <r>    -9.6619     3.9134     7.3235 </r>
       <r>    -9.5420     6.7643     8.1343 </r>
       <r>    -9.4222     5.2388     8.7622 </r>
       <r>    -9.3023     5.5705     9.4298 </r>
       <r>    -9.1824     6.5039    10.2094 </r>
       <r>    -9.0626     7.5403    11.1132 </r>
       <r>    -8.9427     5.9698    11.8287 </r>
       <r>    -8.8229     5.7499    12.5179 </r>
       <r>    -8.7030     3.8585    12.9803 </r>
       <r>    -8.5832     8.7114    14.0245 </r>
       <r>    -8.4633     7.6916    14.9464 </r>
       <r>    -8.3434     9.2948    16.0604 </r>
       <r>    -8.2236     5.9308    16.7713 </r>
       <r>    -8.1037     6.4348    17.5426 </r>
       <r>    -7.9839     7.3476    18.4232 </r>
       <r>    -7.8640     7.4780    19.3195 </r>
       <r>    -7.7441     6.7453    20.1280 </r>
       <r>    -7.6243    10.4025    21.3748 </r>
       <r>    -7.5044     9.3519    22.4957 </r>
       <r>    -7.3846     6.6604    23.2940 </r>
       <r>    -7.2647     7.3403    24.1738 </r>
       <r>    -7.1449    12.1329    25.6281 </r>
       <r>    -7.0250     9.0396    26.7115 </r>
       <r>    -6.9051     6.3098    27.4678 </r>
       <r>    -6.7853     7.7846    28.4009 </r>
       <r>    -6.6654    10.5381    29.6640 </r>
       <r>    -6.5456     9.8073    30.8394 </r>
       <r>    -6.4257    13.2335    32.4256 </r>
       <r>    -6.3058     9.8482    33.6060 </r>
       <r>    -6.1860    13.7181    35.2502 </r>
       <r>    -6.0661     9.8518    36.4310 </r>
       <r>    -5.9463     9.2424    37.5388 </r>
       <r>    -5.8264    11.1109    38.8705 </r>
       <r>    -5.7066    14.7944    40.6438 </r>
       <r>    -5.5867    11.6664    42.0421 </r>
       <r>    -5.4668     9.8158    43.2186 </r>
       <r>    -5.3470    13.0503    44.7828 </r>
       <r>    -5.2271    11.0500    46.1072 </r>
       <r>    -5.1073    11.7048    47.5101 </r>
       <r>    -4.9874     9.5529    48.6551 </r>
       <r>    -4.8675     9.5331    49.7978 </r>
       <r>    -4.7477    10.2849    51.0305 </r>
       <r>    -4.6278     8.4603    52.0445 </r>
       <r>    -4.5080     5.7410    52.7326 </r>
       <r>    -4.3881    10.6300    54.0067 </r>
       <r>    -4.2683     8.9402    55.0783 </r>
       <r>    -4.1484     7.4940    55.9765 </r>
       <r>    -4.0285     9.0045    57.0558 </r>
       <r>    -3.9087     9.6755    58.2155 </r>
       <r>    -3.7888    10.0691    59.4223 </r>
       <r>    -3.6690     5.5599    60.0887 </r>
       <r>    -3.5491     6.3852    60.8540 </r>
       <r>    -3.4292     5.7530    61.5436 </r>
       <r>    -3.3094     6.5703    62.3311 </r>
       <r>    -3.1895     8.6234    63.3647 </r>
       <r>    -3.0697     7.9061    64.3123 </r>
       <r>    -2.9498    10.8217    65.6094 </r>
       <r>    -2.8300    11.9221    67.0383 </r>
       <r>    -2.7101     9.9269    68.2282 </r>
       <r>    -2.5902     7.9929    69.1862 </r>
       <r>    -2.4704     7.4357    70.0774 </r>
       <r>    -2.3505    11.9605    71.5110 </r>
       <r>    -2.2307    10.8326    72.8094 </r>
       <r>    -2.1108    10.3766    74.0531 </r>
       <r>    -1.9909    11.6907    75.4543 </r>
       <r>    -1.8711    19.2208    77.7581 </r>
       <r>    -1.7512    26.5984    80.9461 </r>
       <r>    -1.6314    25.9608    84.0577 </r>
       <r>    -1.5115    16.9181    86.0855 </r>
       <r>    -1.3917    13.8528    87.7459 </r>
       <r>    -1.2718    12.6591    89.2632 </r>
       <r>    -1.1519     8.1140    90.2357 </r>
       <r>    -1.0321     9.0623    91.3219 </r>
       <r>    -0.9122    12.3877    92.8067 </r>
       <r>    -0.7924    11.2904    94.1599 </r>
       <r>    -0.6725     8.6965    95.2023 </r>
       <r>    -0.5526     8.7304    96.2487 </r>
       <r>    -0.4328    15.8222    98.1451 </r>
       <r>    -0.3129    15.0398    99.9477 </r>
       <r>    -0.1931     9.0748   101.0354 </r>
       <r>    -0.0732     4.5788   101.5842 </r>
       <r>     0.0466     2.8019   101.9201 </r>
       <r>     0.1665     6.6660   102.7190 </r>
       <r>     0.2864    15.5978   104.5886 </r>
       <r>     0.4062    10.2468   105.8167 </r>
       <r>     0.5261     9.2534   106.9258 </r>
       <r>     0.6459     7.9807   107.8824 </r>
       <r>     0.7658    13.9017   109.5486 </r>
       <r>     0.8857    24.1666   112.4452 </r>
       <r>     1.0055    22.6590   115.1610 </r>
       <r>     1.1254    14.6661   116.9189 </r>
       <r>     1.2452    10.7103   118.2026 </r>
       <r>     1.3651    13.6629   119.8402 </r>
       <r>     1.4849    13.5534   121.4647 </r>
       <r>     1.6048    18.2771   123.6554 </r>
       <r>     1.7247    26.2682   126.8038 </r>
       <r>     1.8445    17.1310   128.8571 </r>
       <r>     1.9644     9.3222   129.9745 </r>
       <r>     2.0842    15.0710   131.7809 </r>
       <r>     2.2041    18.4528   133.9926 </r>
       <r>     2.3240    23.6099   136.8224 </r>
       <r>     2.4438    19.2746   139.1326 </r>
       <r>     2.5637    15.4906   140.9893 </r>
       <r>     2.6835    15.6393   142.8638 </r>
       <r>     2.8034    19.4188   145.1913 </r>
       <r>     2.9232    20.8859   147.6947 </r>
       <r>     3.0431    21.8354   150.3118 </r>
       <r>     3.1630    23.6434   153.1457 </r>
       <r>     3.2828    26.4794   156.3195 </r>
       <r>     3.4027    28.8715   159.7799 </r>
       <r>     3.5225    19.0777   162.0666 </r>
       <r>     3.6424    17.7975   164.1997 </r>
       <r>     3.7623    25.2588   167.2272 </r>
       <r>     3.8821    29.3982   170.7508 </r>
       <r>     4.0020    32.2824   174.6201 </r>
       <r>     4.1218    27.4852   177.9145 </r>
       <r>     4.2417    19.4875   180.2502 </r>
       <r>     4.3615    20.1471   182.6650 </r>
       <r>     4.4814    24.3191   185.5799 </r>
       <r>     4.6013    22.9008   188.3247 </r>
       <r>     4.7211    21.0549   190.8483 </r>
       <r>     4.8410    27.9219   194.1950 </r>
       <r>     4.9608    24.8462   197.1730 </r>
       <r>     5.0807    23.6756   200.0107 </r>
       <r>     5.2006    20.4566   202.4626 </r>
       <r>     5.3204    23.4825   205.2772 </r>
       <r>     5.4403    19.5829   207.6244 </r>
       <r>     5.5601    25.2547   210.6513 </r>
       <r>     5.6800    19.7948   213.0239 </r>
       <r>     5.7998    16.6423   215.0186 </r>
       <r>     5.9197    24.9133   218.0047 </r>
       <r>     6.0396    25.0709   221.0096 </r>
       <r>     6.1594    21.8621   223.6300 </r>
       <r>     6.2793    23.5984   226.4584 </r>
       <r>     6.3991    16.2965   228.4117 </r>
       <r>     6.5190    14.2982   230.1255 </r>
       <r>     6.6388    19.2336   232.4308 </r>
       <r>     6.7587    22.6831   235.1495 </r>
       <r>     6.8786    29.3435   238.6666 </r>
       <r>     6.9984     9.2024   239.7696 </r>
       <r>     7.1183     7.9130   240.7180 </r>
       <r>     7.2381    12.5195   242.2186 </r>
       <r>     7.3580    13.2471   243.8064 </r>
       <r>     7.4779     9.7377   244.9735 </r>
       <r>     7.5977    13.5048   246.5922 </r>
       <r>     7.7176     8.5140   247.6127 </r>
       <r>     7.8374     7.8887   248.5582 </r>
       <r>     7.9573     6.6702   249.3577 </r>
       <r>     8.0771     7.2150   250.2224 </r>
       <r>     8.1970     7.7934   251.1565 </r>
       <r>     8.3169     6.8902   251.9824 </r>
       <r>     8.4367     4.4575   252.5167 </r>
       <r>     8.5566     4.2859   253.0304 </r>
       <r>     8.6764     7.1167   253.8833 </r>
       <r>     8.7963     4.0417   254.3678 </r>
       <r>     8.9162     2.4923   254.6665 </r>
       <r>     9.0360     2.9615   255.0215 </r>
       <r>     9.1559     3.2429   255.4102 </r>
       <r>     9.2757     3.0733   255.7785 </r>
       <r>     9.3956     0.8733   255.8832 </r>
       <r>     9.5154     0.8643   255.9868 </r>
       <r>     9.6353     0.1100   256.0000 </r>
       <r>     9.7552     0.0003   256.0000 </r>
       <r>     9.8750     0.0000   256.0000 </r>
       <r>     9.9949     0.0000   256.0000 </r>
       <r>    10.1147     0.0000   256.0000 </r>
       <r>    10.2346     0.0000   256.0000 </r>
       <r>    10.3545     0.0000   256.0000 </r>
       <r>    10.4743     0.0000   256.0000 </r>
       <r>    10.5942     0.0000   256.0000 </r>
       <r>    10.7140     0.0000   256.0000 </r>
       <r>    10.8339     0.0000   256.0000 </r>
       <r>    10.9537     0.0000   256.0000 </r>
       <r>    11.0736     0.0000   256.0000 </r>
       <r>    11.1935     0.0000   256.0000 </r>
       <r>    11.3133     0.0000   256.0000 </r>
       <r>    11.4332     0.0000   256.0000 </r>
       <r>    11.5530     0.0000   256.0000 </r>
       <r>    11.6729     0.0000   256.0000 </r>
       <r>    11.7928     0.0000   256.0000 </r>
       <r>    11.9126     0.0000   256.0000 </r>
       <r>    12.0325     0.0000   256.0000 </r>
       <r>    12.1523     0.0000   256.0000 </r>
       <r>    12.2722     0.0000   256.0000 </r>
       <r>    12.3920     0.0000   256.0000 </r>
       <r>    12.5119     0.0000   256.0000 </r>
       <r>    12.6318     0.0000   256.0000 </r>
       <r>    12.7516     0.0000   256.0000 </r>
       <r>    12.8715     0.0000   256.0000 </r>
       <r>    12.9913     0.0000   256.0000 </r>
       <r>    13.1112     0.0000   256.0000 </r>
       <r>    13.2311     0.0000   256.0000 </r>
       <r>    13.3509     0.0000   256.0000 </r>
       <r>    13.4708     0.0091   256.0011 </r>
       <r>    13.5906     0.6639   256.0807 </r>
       <r>    13.7105     1.0040   256.2010 </r>
       <r>    13.8303     1.9118   256.4301 </r>
       <r>    13.9502     5.3953   257.0768 </r>
       <r>    14.0701     5.9446   257.7893 </r>
       <r>    14.1899     6.8221   258.6070 </r>
       <r>    14.3098     3.1943   258.9899 </r>
       <r>    14.4296     5.1272   259.6044 </r>
       <r>    14.5495     8.4338   260.6153 </r>
       <r>    14.6694    11.3061   261.9704 </r>
       <r>    14.7892    12.8677   263.5127 </r>
       <r>    14.9091    15.0205   265.3130 </r>
       <r>    15.0289    12.5803   266.8209 </r>
       <r>    15.1488     9.0913   267.9106 </r>
       <r>    15.2686    11.8463   269.3304 </r>
       <r>    15.3885    15.3570   271.1711 </r>
       <r>    15.5084    14.3858   272.8954 </r>
       <r>    15.6282    14.7158   274.6592 </r>
       <r>    15.7481    22.4832   277.3540 </r>
       <r>    15.8679    19.0840   279.6413 </r>
       <r>    15.9878    17.0427   281.6841 </r>
       <r>    16.1077    16.2942   283.6370 </r>
       <r>    16.2275    20.1807   286.0559 </r>
       <r>    16.3474    19.4034   288.3815 </r>
       <r>    16.4672    23.1237   291.1531 </r>
       <r>    16.5871    18.8984   293.4182 </r>
       <r>    16.7069    18.3304   295.6153 </r>
       <r>    16.8268    18.6318   297.8484 </r>
       <r>    16.9467    20.3951   300.2930 </r>
       <r>    17.0665    24.6540   303.2480 </r>
       <r>    17.1864    39.4422   307.9754 </r>
       <r>    17.3062    35.6062   312.2431 </r>
       <r>    17.4261    32.9682   316.1946 </r>
       <r>    17.5460    24.9695   319.1874 </r>
       <r>    17.6658    29.3328   322.7032 </r>
       <r>    17.7857    31.5754   326.4878 </r>
       <r>    17.9055    31.4539   330.2578 </r>
       <r>    18.0254    31.9017   334.0815 </r>
       <r>    18.1452    36.7010   338.4804 </r>
       <r>    18.2651    31.1803   342.2176 </r>
       <r>    18.3850    35.4753   346.4696 </r>
       <r>    18.5048    33.8380   350.5254 </r>
       <r>    18.6247    32.9874   354.4792 </r>
       <r>    18.7445    28.0036   357.8357 </r>
       <r>    18.8644    18.9548   360.1075 </r>
       <r>    18.9843    19.6474   362.4625 </r>
       <r>    19.1041    26.8578   365.6816 </r>
       <r>    19.2240    28.5961   369.1091 </r>
       <r>    19.3438    28.0034   372.4655 </r>
       <r>    19.4637    25.5492   375.5278 </r>
       <r>    19.5835    20.3406   377.9658 </r>
       <r>    19.7034    17.5412   380.0682 </r>
       <r>    19.8233     7.2048   380.9318 </r>
       <r>    19.9431     4.1227   381.4259 </r>
       <r>    20.0630     6.6179   382.2191 </r>
       <r>    20.1828     4.7708   382.7909 </r>
       <r>    20.3027     2.3900   383.0774 </r>
       <r>    20.4226     1.8960   383.3047 </r>
       <r>    20.5424     1.6844   383.5066 </r>
       <r>    20.6623     1.5655   383.6942 </r>
       <r>    20.7821     0.4124   383.7436 </r>
       <r>    20.9020     1.3957   383.9109 </r>
       <r>    21.0218     0.7384   383.9994 </r>
       <r>    21.1417     0.0049   384.0000 </r>
       <r>    21.2616     0.0000   384.0000 </r>
       <r>    21.3814     0.0000   384.0000 </r>
       <r>    21.5013     0.0000   384.0000 </r>
       <r>    21.6211     0.0000   384.0000 </r>
       <r>    21.7410     0.0000   384.0000 </r>
       <r>    21.8609     0.0000   384.0000 </r>
       <r>    21.9807     0.0000   384.0000 </r>
       <r>    22.1006     0.0000   384.0000 </r>
       <r>    22.2204     0.0000   384.0000 </r>
       <r>    22.3403     0.0000   384.0000 </r>
       <r>    22.4601     0.0000   384.0000 </r>
       <r>    22.5800     0.0000   384.0000 </r>
      </set>
     </set>
    </array>
   </total>
  </dos>
 </calculation>
 <structure name="finalpos" >
  <crystal>
   <varray name="basis" >
    <v>       7.17999872       0.00000000       0.00000000 </v>
    <v>      -0.07179979       7.17963909       0.00000000 </v>
    <v>      -0.07179979      -0.07252106       7.17927343 </v>
   </varray>
   <i name="volume">    370.09010524 </i>
   <varray name="rec_basis" >
    <v>       0.13927579       0.00139282       0.00140696 </v>
    <v>       0.00000000       0.13928277       0.00140696 </v>
    <v>       0.00000000       0.00000000       0.13928986 </v>
   </varray>
  </crystal>
  <varray name="positions" >
   <v>       0.12500000       0.37500000       0.12500000 </v>
   <v>       0.62500000       0.37500000       0.12500000 </v>
   <v>       0.12500000       0.87500000       0.12500000 </v>
   <v>       0.62500000       0.87500000       0.12500000 </v>
   <v>       0.12500000       0.37500000       0.62500000 </v>
   <v>       0.62500000       0.37500000       0.62500000 </v>
   <v>       0.12500000       0.87500000       0.62500000 </v>
   <v>       0.62500000       0.87500000       0.62500000 </v>
   <v>       0.00000000       0.00000000       0.25000000 </v>
   <v>       0.50000000       0.00000000       0.25000000 </v>
   <v>       0.00000000       0.50000000       0.25000000 </v>
   <v>       0.50000000       0.50000000       0.25000000 </v>
   <v>       0.00000000       0.00000000       0.75000000 </v>
   <v>       0.50000000       0.00000000       0.75000000 </v>
   <v>       0.00000000       0.50000000       0.75000000 </v>
   <v>       0.50000000       0.50000000       0.75000000 </v>
   <v>       0.12500000       0.12500000       0.37500000 </v>
   <v>       0.62500000       0.12500000       0.37500000 </v>
   <v>       0.12500000       0.62500000       0.37500000 </v>
   <v>       0.62500000       0.62500000       0.37500000 </v>
   <v>       0.12500000       0.12500000       0.87500000 </v>
   <v>       0.62500000       0.12500000       0.87500000 </v>
   <v>       0.12500000       0.62500000       0.87500000 </v>
   <v>       0.62500000       0.62500000       0.87500000 </v>
   <v>       0.00000000       0.25000000       0.00000000 </v>
   <v>       0.50000000       0.25000000       0.00000000 </v>
   <v>       0.00000000       0.75000000       0.00000000 </v>
   <v>       0.50000000       0.75000000       0.00000000 </v>
   <v>       0.00000000       0.25000000       0.50000000 </v>
   <v>       0.50000000       0.25000000       0.50000000 </v>
   <v>       0.00000000       0.75000000       0.50000000 </v>
   <v>       0.50000000       0.75000000       0.50000000 </v>
   <v>       0.37500000       0.37500000       0.37500000 </v>
   <v>       0.87500000       0.37500000       0.37500000 </v>
   <v>       0.37500000       0.87500000       0.37500000 </v>
   <v>       0.87500000       0.87500000       0.37500000 </v>
   <v>       0.37500000       0.37500000       0.87500000 </v>
   <v>       0.87500000       0.37500000       0.87500000 </v>
   <v>       0.37500000       0.87500000       0.87500000 </v>
   <v>       0.87500000       0.87500000       0.87500000 </v>
   <v>       0.25000000       0.00000000       0.00000000 </v>
   <v>       0.75000000       0.00000000       0.00000000 </v>
   <v>       0.25000000       0.50000000       0.00000000 </v>
   <v>       0.75000000       0.50000000       0.00000000 </v>
   <v>       0.25000000       0.00000000       0.50000000 </v>
   <v>       0.75000000       0.00000000       0.50000000 </v>
   <v>       0.25000000       0.50000000       0.50000000 </v>
   <v>       0.75000000       0.50000000       0.50000000 </v>
   <v>       0.37500000       0.12500000       0.12500000 </v>
   <v>       0.87500000       0.12500000       0.12500000 </v>
   <v>       0.37500000       0.62500000       0.12500000 </v>
   <v>       0.87500000       0.62500000       0.12500000 </v>
   <v>       0.37500000       0.12500000       0.62500000 </v>
   <v>       0.87500000       0.12500000       0.62500000 </v>
   <v>       0.37500000       0.62500000       0.62500000 </v>
   <v>       0.87500000       0.62500000       0.62500000 </v>
   <v>       0.25000000       0.25000000       0.25000000 </v>
   <v>       0.75000000       0.25000000       0.25000000 </v>
   <v>       0.25000000       0.75000000       0.25000000 </v>
   <v>       0.75000000       0.75000000       0.25000000 </v>
   <v>       0.25000000       0.25000000       0.75000000 </v>
   <v>       0.75000000       0.25000000       0.75000000 </v>
   <v>       0.25000000       0.75000000       0.75000000 </v>
   <v>       0.75000000       0.75000000       0.75000000 </v>
  </varray>
 </structure>
</modeling>
