 vasp.5.4.4.18Apr17-6-g9f103f2a35 (build Mar 12 2022 03:36:41) complex          
  
 executed on IFC19.0.3.199_CrayMP date 2022.11.30  13:04:56
 running on   16 total cores
 distrk:  each k-point on   16 cores,    1 groups
 distr:  one band on NCORES_PER_BAND=   4 cores,    4 groups


--------------------------------------------------------------------------------------------------------


 INCAR:
 POTCAR:   PAW_PBE C 08Apr2002                    
 POTCAR:   PAW_PBE C 08Apr2002                    
   VRHFIN =C: s2p2                                                              
   LEXCH  = PE                                                                  
   EATOM  =   147.1560 eV,   10.8157 Ry                                         
                                                                                
   TITEL  = PAW_PBE C 08Apr2002                                                 
   LULTRA =        F    use ultrasoft PP ?                                      
   IUNSCR =        0    unscreen: 0-lin 1-nonlin 2-no                           
   RPACOR =     .000    partial core radius                                     
   POMASS =   12.011; ZVAL   =    4.000    mass and valenz                      
   RCORE  =    1.500    outmost cutoff radius                                   
   RWIGS  =    1.630; RWIGS  =     .863    wigner-seitz radius (au A)           
   ENMAX  =  400.000; ENMIN  =  300.000 eV                                      
   ICORE  =        2    local potential                                         
   LCOR   =        T    correct aug charges                                     
   LPAW   =        T    paw PP                                                  
   EAUG   =  644.873                                                            
   DEXC   =     .000                                                            
   RMAX   =    2.266    core radius for proj-oper                               
   RAUG   =    1.300    factor for augmentation sphere                          
   RDEP   =    1.501    radius for radial grids                                 
   RDEPT  =    1.300    core radius for aug-charge                              
   QCUT   =   -5.516; QGAM   =   11.032    optimization parameters              
                                                                                
   Description                                                                  
     l     E      TYP  RCUT    TYP  RCUT                                        
     0   .000     23  1.200                                                     
     0   .000     23  1.200                                                     
     1   .000     23  1.500                                                     
     1  2.500     23  1.500                                                     
     2   .000      7  1.500                                                     
  local pseudopotential read in
  atomic valenz-charges read in
  non local Contribution for L=           0  read in
    real space projection operators read in
  non local Contribution for L=           0  read in
    real space projection operators read in
  non local Contribution for L=           1  read in
    real space projection operators read in
  non local Contribution for L=           1  read in
    real space projection operators read in
    PAW grid and wavefunctions read in
 
   number of l-projection  operators is LMAX  =           4
   number of lm-projection operators is LMMAX =           8
 
 PAW_PBE C 08Apr2002                    :
 energy of atom  1       EATOM= -147.1560
 kinetic energy error for atom=    0.0288 (will be added to EATOM!!)
 
 
 POSCAR: C8                                      
  positions in direct lattice
  No initial velocities read in
 exchange correlation table for  LEXCH =        8
   RHO(1)=    0.500       N(1)  =     2000
   RHO(2)=  100.500       N(2)  =     4000
 


--------------------------------------------------------------------------------------------------------


 ion  position               nearest neighbor table
   1  0.250  0.750  0.250-   2 1.53   4 1.53   6 1.53   8 1.53
   2  0.000  0.000  0.500-   1 1.53   3 1.53   5 1.53   7 1.53
   3  0.250  0.250  0.750-   2 1.53   4 1.53   6 1.53   8 1.53
   4  0.000  0.500  0.000-   1 1.53   3 1.53   5 1.53   7 1.53
   5  0.750  0.750  0.750-   2 1.53   4 1.53   6 1.53   8 1.53
   6  0.500  0.000  0.000-   1 1.53   3 1.53   5 1.53   7 1.53
   7  0.750  0.250  0.250-   2 1.53   4 1.53   6 1.53   8 1.53
   8  0.500  0.500  0.500-   1 1.53   3 1.53   5 1.53   7 1.53
 
  LATTYP: Found a simple cubic cell.
 ALAT       =     3.5377920000
  
  Lattice vectors:
  
 A1 = (   3.5377920000,   0.0000000000,   0.0000000000)
 A2 = (   0.0000000000,   3.5377920000,   0.0000000000)
 A3 = (   0.0000000000,   0.0000000000,   3.5377920000)


Analysis of symmetry for initial positions (statically):
=====================================================================
 Subroutine PRICEL returns following result:
 
  LATTYP: Found a face centered cubic cell.
 ALAT       =     3.5377920000
  
  Lattice vectors:
  
 A1 = (   1.7688960000,   1.7688960000,  -0.0000000000)
 A2 = (   1.7688960000,   0.0000000000,  -1.7688960000)
 A3 = (   0.0000000000,   1.7688960000,  -1.7688960000)
 
   4 primitive cells build up your supercell.
 

 Routine SETGRP: Setting up the symmetry group for a 
 simple cubic supercell.


 Subroutine GETGRP returns: Found 48 space group operations
 (whereof 24 operations were pure point group operations)
 out of a pool of 48 trial point group operations.


The static configuration has the point symmetry T_d .
 The point group associated with its full space group is O_h .


Analysis of symmetry for dynamics (positions and initial velocities):
=====================================================================
 Subroutine PRICEL returns following result:
 
  LATTYP: Found a face centered cubic cell.
 ALAT       =     3.5377920000
  
  Lattice vectors:
  
 A1 = (   1.7688960000,   1.7688960000,  -0.0000000000)
 A2 = (   1.7688960000,   0.0000000000,  -1.7688960000)
 A3 = (   0.0000000000,   1.7688960000,  -1.7688960000)
 
   4 primitive cells build up your supercell.
 

 Routine SETGRP: Setting up the symmetry group for a 
 simple cubic supercell.


 Subroutine GETGRP returns: Found 48 space group operations
 (whereof 24 operations were pure point group operations)
 out of a pool of 48 trial point group operations.


The dynamic configuration has the point symmetry T_d .
 The point group associated with its full space group is O_h .


 Subroutine INISYM returns: Found 48 space group operations
 (whereof 24 operations are pure point group operations),
 and found     4 'primitive' translations

 
 
 KPOINTS: kpt_density=1000                        

Automatic generation of k-mesh.
Space group operators:
 irot       det(A)        alpha          n_x          n_y          n_z        tau_x        tau_y        tau_z
    1     1.000000     0.000001     1.000000     0.000000     0.000000     0.000000     0.000000     0.000000
    2     1.000000   120.000000    -0.577350    -0.577350    -0.577350     0.000000     0.000000     0.000000
    3     1.000000   120.000000     0.577350     0.577350     0.577350     0.000000     0.000000     0.000000
    4    -1.000000    90.000000     0.000000     0.000000    -1.000000     0.000000     0.000000     0.000000
    5    -1.000000   180.000000     0.000000     0.707107     0.707107     0.000000     0.000000     0.000000
    6    -1.000000    90.000000     0.000000     1.000000     0.000000     0.000000     0.000000     0.000000
    7     1.000000   180.000000     0.000000     0.000000     1.000000     0.000000     0.000000     0.000000
    8     1.000000   120.000000    -0.577350     0.577350     0.577350     0.000000     0.000000     0.000000
    9     1.000000   120.000000    -0.577350     0.577350    -0.577350     0.000000     0.000000     0.000000
   10    -1.000000    90.000000     0.000000     0.000000     1.000000     0.000000     0.000000     0.000000
   11    -1.000000    90.000000    -1.000000     0.000000     0.000000     0.000000     0.000000     0.000000
   12    -1.000000   180.000000     0.707107     0.000000     0.707107     0.000000     0.000000     0.000000
   13     1.000000   120.000000     0.577350    -0.577350     0.577350     0.000000     0.000000     0.000000
   14     1.000000   120.000000    -0.577350    -0.577350     0.577350     0.000000     0.000000     0.000000
   15     1.000000   180.000000     1.000000     0.000000     0.000000     0.000000     0.000000     0.000000
   16    -1.000000    90.000000     0.000000    -1.000000     0.000000     0.000000     0.000000     0.000000
   17    -1.000000   180.000000     0.707107     0.707107     0.000000     0.000000     0.000000     0.000000
   18    -1.000000    90.000000     1.000000     0.000000     0.000000     0.000000     0.000000     0.000000
   19     1.000000   120.000000     0.577350    -0.577350    -0.577350     0.000000     0.000000     0.000000
   20     1.000000   180.000000     0.000000     1.000000     0.000000     0.000000     0.000000     0.000000
   21     1.000000   120.000000     0.577350     0.577350    -0.577350     0.000000     0.000000     0.000000
   22    -1.000000   180.000000     0.000000    -0.707107     0.707107     0.000000     0.000000     0.000000
   23    -1.000000   180.000000     0.707107    -0.707107     0.000000     0.000000     0.000000     0.000000
   24    -1.000000   180.000000     0.707107     0.000000    -0.707107     0.000000     0.000000     0.000000
   25    -1.000000     0.000001     1.000000     0.000000     0.000000     0.750000     0.750000    -0.750000
   26    -1.000000   120.000000    -0.577350    -0.577350    -0.577350     0.750000     0.750000    -0.750000
   27    -1.000000   120.000000     0.577350     0.577350     0.577350     0.750000     0.750000    -0.750000
   28     1.000000    90.000000     0.000000     0.000000    -1.000000     0.750000     0.750000    -0.750000
   29     1.000000   180.000000     0.000000     0.707107     0.707107     0.750000     0.750000    -0.750000
   30     1.000000    90.000000     0.000000     1.000000     0.000000     0.750000     0.750000    -0.750000
   31    -1.000000   180.000000     0.000000     0.000000     1.000000     0.750000     0.750000    -0.750000
   32    -1.000000   120.000000    -0.577350     0.577350     0.577350     0.750000     0.750000    -0.750000
   33    -1.000000   120.000000    -0.577350     0.577350    -0.577350     0.750000     0.750000    -0.750000
   34     1.000000    90.000000     0.000000     0.000000     1.000000     0.750000     0.750000    -0.750000
   35     1.000000    90.000000    -1.000000     0.000000     0.000000     0.750000     0.750000    -0.750000
   36     1.000000   180.000000     0.707107     0.000000     0.707107     0.750000     0.750000    -0.750000
   37    -1.000000   120.000000     0.577350    -0.577350     0.577350     0.750000     0.750000    -0.750000
   38    -1.000000   120.000000    -0.577350    -0.577350     0.577350     0.750000     0.750000    -0.750000
   39    -1.000000   180.000000     1.000000     0.000000     0.000000     0.750000     0.750000    -0.750000
   40     1.000000    90.000000     0.000000    -1.000000     0.000000     0.750000     0.750000    -0.750000
   41     1.000000   180.000000     0.707107     0.707107     0.000000     0.750000     0.750000    -0.750000
   42     1.000000    90.000000     1.000000     0.000000     0.000000     0.750000     0.750000    -0.750000
   43    -1.000000   120.000000     0.577350    -0.577350    -0.577350     0.750000     0.750000    -0.750000
   44    -1.000000   180.000000     0.000000     1.000000     0.000000     0.750000     0.750000    -0.750000
   45    -1.000000   120.000000     0.577350     0.577350    -0.577350     0.750000     0.750000    -0.750000
   46     1.000000   180.000000     0.000000    -0.707107     0.707107     0.750000     0.750000    -0.750000
   47     1.000000   180.000000     0.707107    -0.707107     0.000000     0.750000     0.750000    -0.750000
   48     1.000000   180.000000     0.707107     0.000000    -0.707107     0.750000     0.750000    -0.750000
 
 Subroutine IBZKPT returns following result:
 ===========================================
 
 Found     84 irreducible k-points:
 
 Following reciprocal coordinates:
            Coordinates               Weight
  0.000000  0.000000  0.000000      1.000000
  0.083333  0.000000  0.000000      6.000000
  0.166667  0.000000  0.000000      6.000000
  0.250000  0.000000  0.000000      6.000000
  0.333333  0.000000  0.000000      6.000000
  0.416667  0.000000  0.000000      6.000000
  0.500000  0.000000  0.000000      3.000000
  0.083333  0.083333  0.000000     12.000000
  0.166667  0.083333  0.000000     24.000000
  0.250000  0.083333  0.000000     24.000000
  0.333333  0.083333  0.000000     24.000000
  0.416667  0.083333  0.000000     24.000000
  0.500000  0.083333  0.000000     12.000000
  0.166667  0.166667  0.000000     12.000000
  0.250000  0.166667  0.000000     24.000000
  0.333333  0.166667  0.000000     24.000000
  0.416667  0.166667  0.000000     24.000000
  0.500000  0.166667  0.000000     12.000000
  0.250000  0.250000  0.000000     12.000000
  0.333333  0.250000  0.000000     24.000000
  0.416667  0.250000  0.000000     24.000000
  0.500000  0.250000  0.000000     12.000000
  0.333333  0.333333  0.000000     12.000000
  0.416667  0.333333  0.000000     24.000000
  0.500000  0.333333  0.000000     12.000000
  0.416667  0.416667  0.000000     12.000000
  0.500000  0.416667  0.000000     12.000000
  0.500000  0.500000  0.000000      3.000000
  0.083333  0.083333  0.083333      8.000000
  0.166667  0.083333  0.083333     24.000000
  0.250000  0.083333  0.083333     24.000000
  0.333333  0.083333  0.083333     24.000000
  0.416667  0.083333  0.083333     24.000000
  0.500000  0.083333  0.083333     12.000000
  0.166667  0.166667  0.083333     24.000000
  0.250000  0.166667  0.083333     48.000000
  0.333333  0.166667  0.083333     48.000000
  0.416667  0.166667  0.083333     48.000000
  0.500000  0.166667  0.083333     24.000000
  0.250000  0.250000  0.083333     24.000000
  0.333333  0.250000  0.083333     48.000000
  0.416667  0.250000  0.083333     48.000000
  0.500000  0.250000  0.083333     24.000000
  0.333333  0.333333  0.083333     24.000000
  0.416667  0.333333  0.083333     48.000000
  0.500000  0.333333  0.083333     24.000000
  0.416667  0.416667  0.083333     24.000000
  0.500000  0.416667  0.083333     24.000000
  0.500000  0.500000  0.083333      6.000000
  0.166667  0.166667  0.166667      8.000000
  0.250000  0.166667  0.166667     24.000000
  0.333333  0.166667  0.166667     24.000000
  0.416667  0.166667  0.166667     24.000000
  0.500000  0.166667  0.166667     12.000000
  0.250000  0.250000  0.166667     24.000000
  0.333333  0.250000  0.166667     48.000000
  0.416667  0.250000  0.166667     48.000000
  0.500000  0.250000  0.166667     24.000000
  0.333333  0.333333  0.166667     24.000000
  0.416667  0.333333  0.166667     48.000000
  0.500000  0.333333  0.166667     24.000000
  0.416667  0.416667  0.166667     24.000000
  0.500000  0.416667  0.166667     24.000000
  0.500000  0.500000  0.166667      6.000000
  0.250000  0.250000  0.250000      8.000000
  0.333333  0.250000  0.250000     24.000000
  0.416667  0.250000  0.250000     24.000000
  0.500000  0.250000  0.250000     12.000000
  0.333333  0.333333  0.250000     24.000000
  0.416667  0.333333  0.250000     48.000000
  0.500000  0.333333  0.250000     24.000000
  0.416667  0.416667  0.250000     24.000000
  0.500000  0.416667  0.250000     24.000000
  0.500000  0.500000  0.250000      6.000000
  0.333333  0.333333  0.333333      8.000000
  0.416667  0.333333  0.333333     24.000000
  0.500000  0.333333  0.333333     12.000000
  0.416667  0.416667  0.333333     24.000000
  0.500000  0.416667  0.333333     24.000000
  0.500000  0.500000  0.333333      6.000000
  0.416667  0.416667  0.416667      8.000000
  0.500000  0.416667  0.416667     12.000000
  0.500000  0.500000  0.416667      6.000000
  0.500000  0.500000  0.500000      1.000000
 
 Following cartesian coordinates:
            Coordinates               Weight
  0.000000  0.000000  0.000000      1.000000
  0.023555  0.000000  0.000000      6.000000
  0.047110  0.000000  0.000000      6.000000
  0.070666  0.000000  0.000000      6.000000
  0.094221  0.000000  0.000000      6.000000
  0.117776  0.000000  0.000000      6.000000
  0.141331  0.000000  0.000000      3.000000
  0.023555  0.023555  0.000000     12.000000
  0.047110  0.023555  0.000000     24.000000
  0.070666  0.023555  0.000000     24.000000
  0.094221  0.023555  0.000000     24.000000
  0.117776  0.023555  0.000000     24.000000
  0.141331  0.023555  0.000000     12.000000
  0.047110  0.047110  0.000000     12.000000
  0.070666  0.047110  0.000000     24.000000
  0.094221  0.047110  0.000000     24.000000
  0.117776  0.047110  0.000000     24.000000
  0.141331  0.047110  0.000000     12.000000
  0.070666  0.070666  0.000000     12.000000
  0.094221  0.070666  0.000000     24.000000
  0.117776  0.070666  0.000000     24.000000
  0.141331  0.070666  0.000000     12.000000
  0.094221  0.094221  0.000000     12.000000
  0.117776  0.094221  0.000000     24.000000
  0.141331  0.094221  0.000000     12.000000
  0.117776  0.117776  0.000000     12.000000
  0.141331  0.117776  0.000000     12.000000
  0.141331  0.141331  0.000000      3.000000
  0.023555  0.023555  0.023555      8.000000
  0.047110  0.023555  0.023555     24.000000
  0.070666  0.023555  0.023555     24.000000
  0.094221  0.023555  0.023555     24.000000
  0.117776  0.023555  0.023555     24.000000
  0.141331  0.023555  0.023555     12.000000
  0.047110  0.047110  0.023555     24.000000
  0.070666  0.047110  0.023555     48.000000
  0.094221  0.047110  0.023555     48.000000
  0.117776  0.047110  0.023555     48.000000
  0.141331  0.047110  0.023555     24.000000
  0.070666  0.070666  0.023555     24.000000
  0.094221  0.070666  0.023555     48.000000
  0.117776  0.070666  0.023555     48.000000
  0.141331  0.070666  0.023555     24.000000
  0.094221  0.094221  0.023555     24.000000
  0.117776  0.094221  0.023555     48.000000
  0.141331  0.094221  0.023555     24.000000
  0.117776  0.117776  0.023555     24.000000
  0.141331  0.117776  0.023555     24.000000
  0.141331  0.141331  0.023555      6.000000
  0.047110  0.047110  0.047110      8.000000
  0.070666  0.047110  0.047110     24.000000
  0.094221  0.047110  0.047110     24.000000
  0.117776  0.047110  0.047110     24.000000
  0.141331  0.047110  0.047110     12.000000
  0.070666  0.070666  0.047110     24.000000
  0.094221  0.070666  0.047110     48.000000
  0.117776  0.070666  0.047110     48.000000
  0.141331  0.070666  0.047110     24.000000
  0.094221  0.094221  0.047110     24.000000
  0.117776  0.094221  0.047110     48.000000
  0.141331  0.094221  0.047110     24.000000
  0.117776  0.117776  0.047110     24.000000
  0.141331  0.117776  0.047110     24.000000
  0.141331  0.141331  0.047110      6.000000
  0.070666  0.070666  0.070666      8.000000
  0.094221  0.070666  0.070666     24.000000
  0.117776  0.070666  0.070666     24.000000
  0.141331  0.070666  0.070666     12.000000
  0.094221  0.094221  0.070666     24.000000
  0.117776  0.094221  0.070666     48.000000
  0.141331  0.094221  0.070666     24.000000
  0.117776  0.117776  0.070666     24.000000
  0.141331  0.117776  0.070666     24.000000
  0.141331  0.141331  0.070666      6.000000
  0.094221  0.094221  0.094221      8.000000
  0.117776  0.094221  0.094221     24.000000
  0.141331  0.094221  0.094221     12.000000
  0.117776  0.117776  0.094221     24.000000
  0.141331  0.117776  0.094221     24.000000
  0.141331  0.141331  0.094221      6.000000
  0.117776  0.117776  0.117776      8.000000
  0.141331  0.117776  0.117776     12.000000
  0.141331  0.141331  0.117776      6.000000
  0.141331  0.141331  0.141331      1.000000
 
 TETIRR: Found    854 inequivalent tetrahedra from    10368


--------------------------------------------------------------------------------------------------------




 Dimension of arrays:
   k-points           NKPTS =     84   k-points in BZ     NKDIM =     84   number of bands    NBANDS=     24
   number of dos      NEDOS =    301   number of ions     NIONS =      8
   non local maximal  LDIM  =      4   non local SUM 2l+1 LMDIM =      8
   total plane-waves  NPLWV =  13824
   max r-space proj   IRMAX =      1   max aug-charges    IRDMAX=   3883
   dimension x,y,z NGX =    24 NGY =   24 NGZ =   24
   dimension x,y,z NGXF=    48 NGYF=   48 NGZF=   48
   support grid    NGXF=    48 NGYF=   48 NGZF=   48
   ions per type =               8
   NGX,Y,Z   is equivalent  to a cutoff of  11.28, 11.28, 11.28 a.u.
   NGXF,Y,Z  is equivalent  to a cutoff of  22.56, 22.56, 22.56 a.u.

 SYSTEM =  unknown system                          
 POSCAR =  C8                                      

 Startparameter for this run:
   NWRITE =      2    write-flag & timer
   PREC   = accura    normal or accurate (medium, high low for compatibility)
   ISTART =      0    job   : 0-new  1-cont  2-samecut
   ICHARG =      2    charge: 1-file 2-atom 10-const
   ISPIN  =      1    spin polarized calculation?
   LNONCOLLINEAR =      F non collinear calculations
   LSORBIT =      F    spin-orbit coupling
   INIWAV =      1    electr: 0-lowe 1-rand  2-diag
   LASPH  =      F    aspherical Exc in radial PAW
   METAGGA=      F    non-selfconsistent MetaGGA calc.

 Electronic Relaxation 1
   ENCUT  =  400.0 eV  29.40 Ry    5.42 a.u.   5.77  5.77  5.77*2*pi/ulx,y,z
   ENINI  =  400.0     initial cutoff
   ENAUG  =  644.9 eV  augmentation charge cutoff
   NELM   =     60;   NELMIN=  2; NELMDL= -5     # of ELM steps 
   EDIFF  = 0.1E-05   stopping-criterion for ELM
   LREAL  =      F    real-space projection
   NLSPLINE    = F    spline interpolate recip. space projectors
   LCOMPAT=      F    compatible to vasp.4.4
   GGA_COMPAT  = T    GGA compatible to vasp.4.4-vasp.4.6
   LMAXPAW     = -100 max onsite density
   LMAXMIX     =    2 max onsite mixed and CHGCAR
   VOSKOWN=      0    Vosko Wilk Nusair interpolation
   ROPT   =    0.00000
 Ionic relaxation
   EDIFFG = 0.1E-04   stopping-criterion for IOM
   NSW    =      0    number of steps for IOM
   NBLOCK =      1;   KBLOCK =      1    inner block; outer block 
   IBRION =     -1    ionic relax: 0-MD 1-quasi-New 2-CG
   NFREE  =      0    steps in history (QN), initial steepest desc. (CG)
   ISIF   =      2    stress and relaxation
   IWAVPR =     10    prediction:  0-non 1-charg 2-wave 3-comb
   ISYM   =      2    0-nonsym 1-usesym 2-fastsym
   LCORR  =      T    Harris-Foulkes like correction to forces

   POTIM  = 0.0200    time-step for ionic-motion
   TEIN   =    0.0    initial temperature
   TEBEG  =    0.0;   TEEND  =   0.0 temperature during run
   SMASS  =  -3.00    Nose mass-parameter (am)
   estimated Nose-frequenzy (Omega)   =  0.10E-29 period in steps =****** mass=  -0.286E-27a.u.
   SCALEE = 1.0000    scale energy and forces
   NPACO  =    256;   APACO  = 16.0  distance and # of slots for P.C.
   PSTRESS=    0.0 pullay stress

  Mass of Ions in am
   POMASS =  12.01
  Ionic Valenz
   ZVAL   =   4.00
  Atomic Wigner-Seitz radii
   RWIGS  =  -1.00
  virtual crystal weights 
   VCA    =   1.00
   NELECT =      32.0000    total number of electrons
   NUPDOWN=      -1.0000    fix difference up-down

 DOS related values:
   EMIN   =  10.00;   EMAX   =-10.00  energy-range for DOS
   EFERMI =   0.00
   ISMEAR =    -5;   SIGMA  =   0.06  broadening in eV -4-tet -1-fermi 0-gaus

 Electronic relaxation 2 (details)
   IALGO  =     38    algorithm
   LDIAG  =      T    sub-space diagonalisation (order eigenvalues)
   LSUBROT=      F    optimize rotation matrix (better conditioning)
   TURBO    =      0    0=normal 1=particle mesh
   IRESTART =      0    0=no restart 2=restart with 2 vectors
   NREBOOT  =      0    no. of reboots
   NMIN     =      0    reboot dimension
   EREF     =   0.00    reference energy to select bands
   IMIX   =      4    mixing-type and parameters
     AMIX     =   0.40;   BMIX     =  1.00
     AMIX_MAG =   1.60;   BMIX_MAG =  1.00
     AMIN     =   0.10
     WC   =   100.;   INIMIX=   1;  MIXPRE=   1;  MAXMIX= -45

 Intra band minimization:
   WEIMIN = 0.0000     energy-eigenvalue tresh-hold
   EBREAK =  0.10E-07  absolut break condition
   DEPER  =   0.30     relativ break condition  

   TIME   =   0.40     timestep for ELM

  volume/ion in A,a.u.               =       5.53        37.35
  Fermi-wavevector in a.u.,A,eV,Ry     =   1.469127  2.776247 29.365899  2.158333
  Thomas-Fermi vector in A             =   2.584541
 
 Write flags
   LWAVE        =      F    write WAVECAR
   LDOWNSAMPLE  =      F    k-point downsampling of WAVECAR
   LCHARG       =      F    write CHGCAR
   LVTOT        =      F    write LOCPOT, total local potential
   LVHAR        =      F    write LOCPOT, Hartree potential only
   LELF         =      F    write electronic localiz. function (ELF)
   LORBIT       =      0    0 simple, 1 ext, 2 COOP (PROOUT), +10 PAW based schemes


 Dipole corrections
   LMONO  =      F    monopole corrections only (constant potential shift)
   LDIPOL =      F    correct potential (dipole corrections)
   IDIPOL =      0    1-x, 2-y, 3-z, 4-all directions 
   EPSILON=  1.0000000 bulk dielectric constant

 Exchange correlation treatment:
   GGA     =    --    GGA type
   LEXCH   =     8    internal setting for exchange type
   VOSKOWN=      0    Vosko Wilk Nusair interpolation
   LHFCALC =     F    Hartree Fock is set to
   LHFONE  =     F    Hartree Fock one center treatment
   AEXX    =    0.0000 exact exchange contribution

 Linear response parameters
   LEPSILON=     F    determine dielectric tensor
   LRPA    =     F    only Hartree local field effects (RPA)
   LNABLA  =     F    use nabla operator in PAW spheres
   LVEL    =     F    velocity operator in full k-point grid
   LINTERFAST=   F  fast interpolation
   KINTER  =     0    interpolate to denser k-point grid
   CSHIFT  =0.1000    complex shift for real part using Kramers Kronig
   OMEGAMAX=  -1.0    maximum frequency
   DEG_THRESHOLD= 0.2000000E-02 threshold for treating states as degnerate
   RTIME   =   -0.100 relaxation time in fs
  (WPLASMAI=    0.000 imaginary part of plasma frequency in eV, 0.658/RTIME)
   DFIELD  = 0.0000000 0.0000000 0.0000000 field for delta impulse in time
 
 Orbital magnetization related:
   ORBITALMAG=     F  switch on orbital magnetization
   LCHIMAG   =     F  perturbation theory with respect to B field
   DQ        =  0.001000  dq finite difference perturbation B field
   LLRAUG    =     F  two centre corrections for induced B field



--------------------------------------------------------------------------------------------------------


 Static calculation
 charge density and potential will be updated during run
 non-spin polarized calculation
 Variant of blocked Davidson
 Davidson routine will perform the subspace rotation
 perform sub-space diagonalisation
    after iterative eigenvector-optimisation
 modified Broyden-mixing scheme, WC =      100.0
 initial mixing is a Kerker type mixing with AMIX =  0.4000 and BMIX =      1.0000
 Hartree-type preconditioning will be used
 using additional bands            8
 reciprocal scheme for non local part
 calculate Harris-corrections to forces 
   (improved forces if not selfconsistent)
 use gradient corrections 
 use of overlap-Matrix (Vanderbilt PP)
 Fermi weights with tetrahedron method with Bloechl corrections


--------------------------------------------------------------------------------------------------------


  energy-cutoff  :      400.00
  volume of cell :       44.28
      direct lattice vectors                 reciprocal lattice vectors
     3.537792000  0.000000000  0.000000000     0.282662180  0.000000000  0.000000000
     0.000000000  3.537792000  0.000000000     0.000000000  0.282662180  0.000000000
     0.000000000  0.000000000  3.537792000     0.000000000  0.000000000  0.282662180

  length of vectors
     3.537792000  3.537792000  3.537792000     0.282662180  0.282662180  0.282662180


 
 k-points in units of 2pi/SCALE and weight: kpt_density=1000                        
   0.00000000  0.00000000  0.00000000       0.001
   0.02355518  0.00000000  0.00000000       0.003
   0.04711036  0.00000000  0.00000000       0.003
   0.07066555  0.00000000  0.00000000       0.003
   0.09422073  0.00000000  0.00000000       0.003
   0.11777591  0.00000000  0.00000000       0.003
   0.14133109  0.00000000  0.00000000       0.002
   0.02355518  0.02355518  0.00000000       0.007
   0.04711036  0.02355518  0.00000000       0.014
   0.07066555  0.02355518  0.00000000       0.014
   0.09422073  0.02355518  0.00000000       0.014
   0.11777591  0.02355518  0.00000000       0.014
   0.14133109  0.02355518  0.00000000       0.007
   0.04711036  0.04711036  0.00000000       0.007
   0.07066555  0.04711036  0.00000000       0.014
   0.09422073  0.04711036  0.00000000       0.014
   0.11777591  0.04711036  0.00000000       0.014
   0.14133109  0.04711036  0.00000000       0.007
   0.07066555  0.07066555  0.00000000       0.007
   0.09422073  0.07066555  0.00000000       0.014
   0.11777591  0.07066555  0.00000000       0.014
   0.14133109  0.07066555  0.00000000       0.007
   0.09422073  0.09422073  0.00000000       0.007
   0.11777591  0.09422073  0.00000000       0.014
   0.14133109  0.09422073  0.00000000       0.007
   0.11777591  0.11777591  0.00000000       0.007
   0.14133109  0.11777591  0.00000000       0.007
   0.14133109  0.14133109  0.00000000       0.002
   0.02355518  0.02355518  0.02355518       0.005
   0.04711036  0.02355518  0.02355518       0.014
   0.07066555  0.02355518  0.02355518       0.014
   0.09422073  0.02355518  0.02355518       0.014
   0.11777591  0.02355518  0.02355518       0.014
   0.14133109  0.02355518  0.02355518       0.007
   0.04711036  0.04711036  0.02355518       0.014
   0.07066555  0.04711036  0.02355518       0.028
   0.09422073  0.04711036  0.02355518       0.028
   0.11777591  0.04711036  0.02355518       0.028
   0.14133109  0.04711036  0.02355518       0.014
   0.07066555  0.07066555  0.02355518       0.014
   0.09422073  0.07066555  0.02355518       0.028
   0.11777591  0.07066555  0.02355518       0.028
   0.14133109  0.07066555  0.02355518       0.014
   0.09422073  0.09422073  0.02355518       0.014
   0.11777591  0.09422073  0.02355518       0.028
   0.14133109  0.09422073  0.02355518       0.014
   0.11777591  0.11777591  0.02355518       0.014
   0.14133109  0.11777591  0.02355518       0.014
   0.14133109  0.14133109  0.02355518       0.003
   0.04711036  0.04711036  0.04711036       0.005
   0.07066555  0.04711036  0.04711036       0.014
   0.09422073  0.04711036  0.04711036       0.014
   0.11777591  0.04711036  0.04711036       0.014
   0.14133109  0.04711036  0.04711036       0.007
   0.07066555  0.07066555  0.04711036       0.014
   0.09422073  0.07066555  0.04711036       0.028
   0.11777591  0.07066555  0.04711036       0.028
   0.14133109  0.07066555  0.04711036       0.014
   0.09422073  0.09422073  0.04711036       0.014
   0.11777591  0.09422073  0.04711036       0.028
   0.14133109  0.09422073  0.04711036       0.014
   0.11777591  0.11777591  0.04711036       0.014
   0.14133109  0.11777591  0.04711036       0.014
   0.14133109  0.14133109  0.04711036       0.003
   0.07066555  0.07066555  0.07066555       0.005
   0.09422073  0.07066555  0.07066555       0.014
   0.11777591  0.07066555  0.07066555       0.014
   0.14133109  0.07066555  0.07066555       0.007
   0.09422073  0.09422073  0.07066555       0.014
   0.11777591  0.09422073  0.07066555       0.028
   0.14133109  0.09422073  0.07066555       0.014
   0.11777591  0.11777591  0.07066555       0.014
   0.14133109  0.11777591  0.07066555       0.014
   0.14133109  0.14133109  0.07066555       0.003
   0.09422073  0.09422073  0.09422073       0.005
   0.11777591  0.09422073  0.09422073       0.014
   0.14133109  0.09422073  0.09422073       0.007
   0.11777591  0.11777591  0.09422073       0.014
   0.14133109  0.11777591  0.09422073       0.014
   0.14133109  0.14133109  0.09422073       0.003
   0.11777591  0.11777591  0.11777591       0.005
   0.14133109  0.11777591  0.11777591       0.007
   0.14133109  0.14133109  0.11777591       0.003
   0.14133109  0.14133109  0.14133109       0.001
 
 k-points in reciprocal lattice and weights: kpt_density=1000                        
   0.00000000  0.00000000  0.00000000       0.001
   0.08333333  0.00000000  0.00000000       0.003
   0.16666667  0.00000000  0.00000000       0.003
   0.25000000  0.00000000  0.00000000       0.003
   0.33333333  0.00000000  0.00000000       0.003
   0.41666667  0.00000000  0.00000000       0.003
   0.50000000  0.00000000  0.00000000       0.002
   0.08333333  0.08333333  0.00000000       0.007
   0.16666667  0.08333333  0.00000000       0.014
   0.25000000  0.08333333  0.00000000       0.014
   0.33333333  0.08333333  0.00000000       0.014
   0.41666667  0.08333333  0.00000000       0.014
   0.50000000  0.08333333  0.00000000       0.007
   0.16666667  0.16666667  0.00000000       0.007
   0.25000000  0.16666667  0.00000000       0.014
   0.33333333  0.16666667  0.00000000       0.014
   0.41666667  0.16666667  0.00000000       0.014
   0.50000000  0.16666667  0.00000000       0.007
   0.25000000  0.25000000  0.00000000       0.007
   0.33333333  0.25000000  0.00000000       0.014
   0.41666667  0.25000000  0.00000000       0.014
   0.50000000  0.25000000  0.00000000       0.007
   0.33333333  0.33333333  0.00000000       0.007
   0.41666667  0.33333333  0.00000000       0.014
   0.50000000  0.33333333  0.00000000       0.007
   0.41666667  0.41666667  0.00000000       0.007
   0.50000000  0.41666667  0.00000000       0.007
   0.50000000  0.50000000  0.00000000       0.002
   0.08333333  0.08333333  0.08333333       0.005
   0.16666667  0.08333333  0.08333333       0.014
   0.25000000  0.08333333  0.08333333       0.014
   0.33333333  0.08333333  0.08333333       0.014
   0.41666667  0.08333333  0.08333333       0.014
   0.50000000  0.08333333  0.08333333       0.007
   0.16666667  0.16666667  0.08333333       0.014
   0.25000000  0.16666667  0.08333333       0.028
   0.33333333  0.16666667  0.08333333       0.028
   0.41666667  0.16666667  0.08333333       0.028
   0.50000000  0.16666667  0.08333333       0.014
   0.25000000  0.25000000  0.08333333       0.014
   0.33333333  0.25000000  0.08333333       0.028
   0.41666667  0.25000000  0.08333333       0.028
   0.50000000  0.25000000  0.08333333       0.014
   0.33333333  0.33333333  0.08333333       0.014
   0.41666667  0.33333333  0.08333333       0.028
   0.50000000  0.33333333  0.08333333       0.014
   0.41666667  0.41666667  0.08333333       0.014
   0.50000000  0.41666667  0.08333333       0.014
   0.50000000  0.50000000  0.08333333       0.003
   0.16666667  0.16666667  0.16666667       0.005
   0.25000000  0.16666667  0.16666667       0.014
   0.33333333  0.16666667  0.16666667       0.014
   0.41666667  0.16666667  0.16666667       0.014
   0.50000000  0.16666667  0.16666667       0.007
   0.25000000  0.25000000  0.16666667       0.014
   0.33333333  0.25000000  0.16666667       0.028
   0.41666667  0.25000000  0.16666667       0.028
   0.50000000  0.25000000  0.16666667       0.014
   0.33333333  0.33333333  0.16666667       0.014
   0.41666667  0.33333333  0.16666667       0.028
   0.50000000  0.33333333  0.16666667       0.014
   0.41666667  0.41666667  0.16666667       0.014
   0.50000000  0.41666667  0.16666667       0.014
   0.50000000  0.50000000  0.16666667       0.003
   0.25000000  0.25000000  0.25000000       0.005
   0.33333333  0.25000000  0.25000000       0.014
   0.41666667  0.25000000  0.25000000       0.014
   0.50000000  0.25000000  0.25000000       0.007
   0.33333333  0.33333333  0.25000000       0.014
   0.41666667  0.33333333  0.25000000       0.028
   0.50000000  0.33333333  0.25000000       0.014
   0.41666667  0.41666667  0.25000000       0.014
   0.50000000  0.41666667  0.25000000       0.014
   0.50000000  0.50000000  0.25000000       0.003
   0.33333333  0.33333333  0.33333333       0.005
   0.41666667  0.33333333  0.33333333       0.014
   0.50000000  0.33333333  0.33333333       0.007
   0.41666667  0.41666667  0.33333333       0.014
   0.50000000  0.41666667  0.33333333       0.014
   0.50000000  0.50000000  0.33333333       0.003
   0.41666667  0.41666667  0.41666667       0.005
   0.50000000  0.41666667  0.41666667       0.007
   0.50000000  0.50000000  0.41666667       0.003
   0.50000000  0.50000000  0.50000000       0.001
 
 position of ions in fractional coordinates (direct lattice) 
   0.25000000  0.75000000  0.25000000
   0.00000000  0.00000000  0.50000000
   0.25000000  0.25000000  0.75000000
   0.00000000  0.50000000  0.00000000
   0.75000000  0.75000000  0.75000000
   0.50000000  0.00000000  0.00000000
   0.75000000  0.25000000  0.25000000
   0.50000000  0.50000000  0.50000000
 
 position of ions in cartesian coordinates  (Angst):
   0.88444800  2.65334400  0.88444800
   0.00000000  0.00000000  1.76889600
   0.88444800  0.88444800  2.65334400
   0.00000000  1.76889600  0.00000000
   2.65334400  2.65334400  2.65334400
   1.76889600  0.00000000  0.00000000
   2.65334400  0.88444800  0.88444800
   1.76889600  1.76889600  1.76889600
 


--------------------------------------------------------------------------------------------------------


 k-point  1 :   0.0000 0.0000 0.0000  plane waves:     799
 k-point  2 :   0.0833 0.0000 0.0000  plane waves:     783
 k-point  3 :   0.1667 0.0000 0.0000  plane waves:     791
 k-point  4 :   0.2500 0.0000 0.0000  plane waves:     800
 k-point  5 :   0.3333 0.0000 0.0000  plane waves:     804
 k-point  6 :   0.4167 0.0000 0.0000  plane waves:     812
 k-point  7 :   0.5000 0.0000 0.0000  plane waves:     820
 k-point  8 :   0.0833 0.0833 0.0000  plane waves:     790
 k-point  9 :   0.1667 0.0833 0.0000  plane waves:     797
 k-point 10 :   0.2500 0.0833 0.0000  plane waves:     807
 k-point 11 :   0.3333 0.0833 0.0000  plane waves:     807
 k-point 12 :   0.4167 0.0833 0.0000  plane waves:     807
 k-point 13 :   0.5000 0.0833 0.0000  plane waves:     812
 k-point 14 :   0.1667 0.1667 0.0000  plane waves:     798
 k-point 15 :   0.2500 0.1667 0.0000  plane waves:     804
 k-point 16 :   0.3333 0.1667 0.0000  plane waves:     808
 k-point 17 :   0.4167 0.1667 0.0000  plane waves:     810
 k-point 18 :   0.5000 0.1667 0.0000  plane waves:     812
 k-point 19 :   0.2500 0.2500 0.0000  plane waves:     812
 k-point 20 :   0.3333 0.2500 0.0000  plane waves:     803
 k-point 21 :   0.4167 0.2500 0.0000  plane waves:     806
 k-point 22 :   0.5000 0.2500 0.0000  plane waves:     802
 k-point 23 :   0.3333 0.3333 0.0000  plane waves:     812
 k-point 24 :   0.4167 0.3333 0.0000  plane waves:     806
 k-point 25 :   0.5000 0.3333 0.0000  plane waves:     806
 k-point 26 :   0.4167 0.4167 0.0000  plane waves:     798
 k-point 27 :   0.5000 0.4167 0.0000  plane waves:     810
 k-point 28 :   0.5000 0.5000 0.0000  plane waves:     784
 k-point 29 :   0.0833 0.0833 0.0833  plane waves:     790
 k-point 30 :   0.1667 0.0833 0.0833  plane waves:     797
 k-point 31 :   0.2500 0.0833 0.0833  plane waves:     807
 k-point 32 :   0.3333 0.0833 0.0833  plane waves:     805
 k-point 33 :   0.4167 0.0833 0.0833  plane waves:     811
 k-point 34 :   0.5000 0.0833 0.0833  plane waves:     816
 k-point 35 :   0.1667 0.1667 0.0833  plane waves:     801
 k-point 36 :   0.2500 0.1667 0.0833  plane waves:     804
 k-point 37 :   0.3333 0.1667 0.0833  plane waves:     807
 k-point 38 :   0.4167 0.1667 0.0833  plane waves:     806
 k-point 39 :   0.5000 0.1667 0.0833  plane waves:     804
 k-point 40 :   0.2500 0.2500 0.0833  plane waves:     800
 k-point 41 :   0.3333 0.2500 0.0833  plane waves:     801
 k-point 42 :   0.4167 0.2500 0.0833  plane waves:     805
 k-point 43 :   0.5000 0.2500 0.0833  plane waves:     800
 k-point 44 :   0.3333 0.3333 0.0833  plane waves:     808
 k-point 45 :   0.4167 0.3333 0.0833  plane waves:     802
 k-point 46 :   0.5000 0.3333 0.0833  plane waves:     808
 k-point 47 :   0.4167 0.4167 0.0833  plane waves:     808
 k-point 48 :   0.5000 0.4167 0.0833  plane waves:     810
 k-point 49 :   0.5000 0.5000 0.0833  plane waves:     796
 k-point 50 :   0.1667 0.1667 0.1667  plane waves:     802
 k-point 51 :   0.2500 0.1667 0.1667  plane waves:     805
 k-point 52 :   0.3333 0.1667 0.1667  plane waves:     805
 k-point 53 :   0.4167 0.1667 0.1667  plane waves:     799
 k-point 54 :   0.5000 0.1667 0.1667  plane waves:     800
 k-point 55 :   0.2500 0.2500 0.1667  plane waves:     802
 k-point 56 :   0.3333 0.2500 0.1667  plane waves:     801
 k-point 57 :   0.4167 0.2500 0.1667  plane waves:     804
 k-point 58 :   0.5000 0.2500 0.1667  plane waves:     800
 k-point 59 :   0.3333 0.3333 0.1667  plane waves:     802
 k-point 60 :   0.4167 0.3333 0.1667  plane waves:     804
 k-point 61 :   0.5000 0.3333 0.1667  plane waves:     802
 k-point 62 :   0.4167 0.4167 0.1667  plane waves:     807
 k-point 63 :   0.5000 0.4167 0.1667  plane waves:     804
 k-point 64 :   0.5000 0.5000 0.1667  plane waves:     820
 k-point 65 :   0.2500 0.2500 0.2500  plane waves:     811
 k-point 66 :   0.3333 0.2500 0.2500  plane waves:     806
 k-point 67 :   0.4167 0.2500 0.2500  plane waves:     798
 k-point 68 :   0.5000 0.2500 0.2500  plane waves:     792
 k-point 69 :   0.3333 0.3333 0.2500  plane waves:     800
 k-point 70 :   0.4167 0.3333 0.2500  plane waves:     800
 k-point 71 :   0.5000 0.3333 0.2500  plane waves:     802
 k-point 72 :   0.4167 0.4167 0.2500  plane waves:     804
 k-point 73 :   0.5000 0.4167 0.2500  plane waves:     800
 k-point 74 :   0.5000 0.5000 0.2500  plane waves:     812
 k-point 75 :   0.3333 0.3333 0.3333  plane waves:     807
 k-point 76 :   0.4167 0.3333 0.3333  plane waves:     804
 k-point 77 :   0.5000 0.3333 0.3333  plane waves:     806
 k-point 78 :   0.4167 0.4167 0.3333  plane waves:     805
 k-point 79 :   0.5000 0.4167 0.3333  plane waves:     806
 k-point 80 :   0.5000 0.5000 0.3333  plane waves:     816
 k-point 81 :   0.4167 0.4167 0.4167  plane waves:     801
 k-point 82 :   0.5000 0.4167 0.4167  plane waves:     802
 k-point 83 :   0.5000 0.5000 0.4167  plane waves:     812
 k-point 84 :   0.5000 0.5000 0.5000  plane waves:     840

 maximum and minimum number of plane-waves per node :       220      178

 maximum number of plane-waves:       840
 maximum index in each direction: 
   IXMAX=    5   IYMAX=    5   IZMAX=    5
   IXMIN=   -6   IYMIN=   -6   IZMIN=   -6


 parallel 3D FFT for wavefunctions:
    minimum data exchange during FFTs selected (reduces bandwidth)
 parallel 3D FFT for charge:
    minimum data exchange during FFTs selected (reduces bandwidth)


 total amount of memory used by VASP MPI-rank0    33836. kBytes
=======================================================================

   base      :      30000. kBytes
   nonl-proj :       1166. kBytes
   fftplans  :        345. kBytes
   grid      :        481. kBytes
   one-center:          6. kBytes
   wavefun   :       1838. kBytes
 
     INWAV:  cpu time    0.0004: real time    0.0007
 Broyden mixing: mesh for mixing (old mesh)
   NGX = 11   NGY = 11   NGZ = 11
  (NGX  = 48   NGY  = 48   NGZ  = 48)
  gives a total of   1331 points

 initial charge density was supplied:
 charge density of overlapping atoms calculated
 number of electron      32.0000000 magnetization 
 keeping initial charge density in first step


--------------------------------------------------------------------------------------------------------


 Maximum index for augmentation-charges          285 (set IRDMAX)


--------------------------------------------------------------------------------------------------------


 First call to EWALD:  gamma=   0.501
 Maximum number of real-space cells 3x 3x 3
 Maximum number of reciprocal cells 3x 3x 3

    FEWALD:  cpu time    0.0054: real time    0.0054


--------------------------------------- Iteration      1(   1)  ---------------------------------------


    POTLOK:  cpu time    0.0285: real time    0.1200
    SETDIJ:  cpu time    0.0066: real time    0.0066
     EDDAV:  cpu time    4.5350: real time    4.5459
 BZINTS: Fermi energy: 19.026387; 32.000000 electrons
         Band energy: 128.687640;  BLOECHL correction: -0.267044
       DOS:  cpu time    0.1608: real time    0.1608
    --------------------------------------------
      LOOP:  cpu time    4.7309: real time    4.8333

 eigenvalue-minimisations  :  4040
 total energy-change (2. order) : 0.5771012E+02  (-0.1444788E+04)
 number of electron      32.0000000 magnetization 
 augmentation part       32.0000000 magnetization 

 Free energy of the ion-electron system (eV)
  ---------------------------------------------------
  alpha Z        PSCENC =       117.77008320
  Ewald energy   TEWEN  =     -1403.24811061
  -Hartree energ DENC   =       -68.32573799
  -exchange      EXHF   =         0.00000000
  -V(xc)+E(xc)   XCENC  =       115.01229193
  PAW double counting   =       302.65154477     -311.85538214
  entropy T*S    EENTRO =         0.00000000
  eigenvalues    EBANDS =       128.68764002
  atomic energy  EATOM  =      1177.01779097
  Solvation  Ediel_sol  =         0.00000000
  ---------------------------------------------------
  free energy    TOTEN  =        57.71012015 eV

  energy without entropy =       57.71012015  energy(sigma->0) =       57.71012015


--------------------------------------------------------------------------------------------------------




--------------------------------------- Iteration      1(   2)  ---------------------------------------


     EDDAV:  cpu time    5.7167: real time    5.7175
 BZINTS: Fermi energy:  9.402952; 32.000000 electrons
         Band energy:  -0.313927;  BLOECHL correction:  0.000000
       DOS:  cpu time    0.0503: real time    0.0503
    --------------------------------------------
      LOOP:  cpu time    5.7670: real time    5.7678

 eigenvalue-minimisations  :  5560
 total energy-change (2. order) :-0.1290016E+03  (-0.1221845E+03)
 number of electron      32.0000000 magnetization 
 augmentation part       32.0000000 magnetization 

 Free energy of the ion-electron system (eV)
  ---------------------------------------------------
  alpha Z        PSCENC =       117.77008320
  Ewald energy   TEWEN  =     -1403.24811061
  -Hartree energ DENC   =       -68.32573799
  -exchange      EXHF   =         0.00000000
  -V(xc)+E(xc)   XCENC  =       115.01229193
  PAW double counting   =       302.65154477     -311.85538214
  entropy T*S    EENTRO =         0.00000000
  eigenvalues    EBANDS =        -0.31392725
  atomic energy  EATOM  =      1177.01779097
  Solvation  Ediel_sol  =         0.00000000
  ---------------------------------------------------
  free energy    TOTEN  =       -71.29144712 eV

  energy without entropy =      -71.29144712  energy(sigma->0) =      -71.29144712


--------------------------------------------------------------------------------------------------------




--------------------------------------- Iteration      1(   3)  ---------------------------------------


     EDDAV:  cpu time    5.5175: real time    5.5198
 BZINTS: Fermi energy:  8.757564; 32.000000 electrons
         Band energy:  -4.406637;  BLOECHL correction:  0.000000
       DOS:  cpu time    0.0414: real time    0.0414
    --------------------------------------------
      LOOP:  cpu time    5.5589: real time    5.5611

 eigenvalue-minimisations  :  5192
 total energy-change (2. order) :-0.4092710E+01  (-0.4074621E+01)
 number of electron      32.0000000 magnetization 
 augmentation part       32.0000000 magnetization 

 Free energy of the ion-electron system (eV)
  ---------------------------------------------------
  alpha Z        PSCENC =       117.77008320
  Ewald energy   TEWEN  =     -1403.24811061
  -Hartree energ DENC   =       -68.32573799
  -exchange      EXHF   =         0.00000000
  -V(xc)+E(xc)   XCENC  =       115.01229193
  PAW double counting   =       302.65154477     -311.85538214
  entropy T*S    EENTRO =         0.00000000
  eigenvalues    EBANDS =        -4.40663720
  atomic energy  EATOM  =      1177.01779097
  Solvation  Ediel_sol  =         0.00000000
  ---------------------------------------------------
  free energy    TOTEN  =       -75.38415708 eV

  energy without entropy =      -75.38415708  energy(sigma->0) =      -75.38415708


--------------------------------------------------------------------------------------------------------




--------------------------------------- Iteration      1(   4)  ---------------------------------------


     EDDAV:  cpu time    5.4410: real time    5.4413
 BZINTS: Fermi energy:  8.644977; 32.000000 electrons
         Band energy:  -4.444542;  BLOECHL correction:  0.000000
       DOS:  cpu time    0.0368: real time    0.0368
    --------------------------------------------
      LOOP:  cpu time    5.4778: real time    5.4781

 eigenvalue-minimisations  :  5160
 total energy-change (2. order) :-0.3790519E-01  (-0.3787767E-01)
 number of electron      32.0000000 magnetization 
 augmentation part       32.0000000 magnetization 

 Free energy of the ion-electron system (eV)
  ---------------------------------------------------
  alpha Z        PSCENC =       117.77008320
  Ewald energy   TEWEN  =     -1403.24811061
  -Hartree energ DENC   =       -68.32573799
  -exchange      EXHF   =         0.00000000
  -V(xc)+E(xc)   XCENC  =       115.01229193
  PAW double counting   =       302.65154477     -311.85538214
  entropy T*S    EENTRO =         0.00000000
  eigenvalues    EBANDS =        -4.44454239
  atomic energy  EATOM  =      1177.01779097
  Solvation  Ediel_sol  =         0.00000000
  ---------------------------------------------------
  free energy    TOTEN  =       -75.42206227 eV

  energy without entropy =      -75.42206227  energy(sigma->0) =      -75.42206227


--------------------------------------------------------------------------------------------------------




--------------------------------------- Iteration      1(   5)  ---------------------------------------


     EDDAV:  cpu time    5.4449: real time    5.4453
 BZINTS: Fermi energy:  8.726963; 32.000000 electrons
         Band energy:  -4.445247;  BLOECHL correction:  0.000000
       DOS:  cpu time    0.0366: real time    0.0366
    CHARGE:  cpu time    0.1434: real time    0.1434
    MIXING:  cpu time    0.0015: real time    0.0015
    --------------------------------------------
      LOOP:  cpu time    5.6264: real time    5.6268

 eigenvalue-minimisations  :  5176
 total energy-change (2. order) :-0.7041417E-03  (-0.7039193E-03)
 number of electron      32.0000011 magnetization 
 augmentation part        0.8092158 magnetization 

 Broyden mixing:
  rms(total) = 0.97895E+00    rms(broyden)= 0.97877E+00
  rms(prec ) = 0.23286E+01
  weight for this iteration     100.00

 Free energy of the ion-electron system (eV)
  ---------------------------------------------------
  alpha Z        PSCENC =       117.77008320
  Ewald energy   TEWEN  =     -1403.24811061
  -Hartree energ DENC   =       -68.32573799
  -exchange      EXHF   =         0.00000000
  -V(xc)+E(xc)   XCENC  =       115.01229193
  PAW double counting   =       302.65154477     -311.85538214
  entropy T*S    EENTRO =         0.00000000
  eigenvalues    EBANDS =        -4.44524653
  atomic energy  EATOM  =      1177.01779097
  Solvation  Ediel_sol  =         0.00000000
  ---------------------------------------------------
  free energy    TOTEN  =       -75.42276641 eV

  energy without entropy =      -75.42276641  energy(sigma->0) =      -75.42276641


--------------------------------------------------------------------------------------------------------




--------------------------------------- Iteration      1(   6)  ---------------------------------------


    POTLOK:  cpu time    0.0267: real time    0.0267
    SETDIJ:  cpu time    0.0060: real time    0.0060
     EDDAV:  cpu time    4.9549: real time    4.9552
 BZINTS: Fermi energy:  9.340130; 32.000000 electrons
         Band energy:  12.229043;  BLOECHL correction:  0.000000
       DOS:  cpu time    0.0369: real time    0.1220
    CHARGE:  cpu time    0.1472: real time    0.1472
    MIXING:  cpu time    0.0018: real time    0.0018
    --------------------------------------------
      LOOP:  cpu time    5.1734: real time    5.2588

 eigenvalue-minimisations  :  4544
 total energy-change (2. order) : 0.2045514E+01  (-0.1346437E+00)
 number of electron      32.0000011 magnetization 
 augmentation part        0.7904986 magnetization 

 Broyden mixing:
  rms(total) = 0.53434E+00    rms(broyden)= 0.53433E+00
  rms(prec ) = 0.12548E+01
  weight for this iteration     100.00

 eigenvalues of (default mixing * dielectric matrix)
  average eigenvalue GAMMA=   2.1572
  2.1572

 Free energy of the ion-electron system (eV)
  ---------------------------------------------------
  alpha Z        PSCENC =       117.77008320
  Ewald energy   TEWEN  =     -1403.24811061
  -Hartree energ DENC   =       -83.83468518
  -exchange      EXHF   =         0.00000000
  -V(xc)+E(xc)   XCENC  =       116.46866339
  PAW double counting   =       398.84681888     -408.62685576
  entropy T*S    EENTRO =         0.00000000
  eigenvalues    EBANDS =        12.22904305
  atomic energy  EATOM  =      1177.01779097
  Solvation  Ediel_sol  =         0.00000000
  ---------------------------------------------------
  free energy    TOTEN  =       -73.37725206 eV

  energy without entropy =      -73.37725206  energy(sigma->0) =      -73.37725206


--------------------------------------------------------------------------------------------------------




--------------------------------------- Iteration      1(   7)  ---------------------------------------


    POTLOK:  cpu time    0.0242: real time    0.0242
    SETDIJ:  cpu time    0.0059: real time    0.0059
     EDDAV:  cpu time    5.1951: real time    5.1954
 BZINTS: Fermi energy: 10.145317; 32.000000 electrons
         Band energy:  31.384977;  BLOECHL correction:  0.000000
       DOS:  cpu time    0.0369: real time    0.0369
    CHARGE:  cpu time    0.1484: real time    0.1484
    MIXING:  cpu time    0.0020: real time    0.0020
    --------------------------------------------
      LOOP:  cpu time    5.4125: real time    5.4128

 eigenvalue-minimisations  :  4704
 total energy-change (2. order) : 0.6903327E+00  (-0.1509756E+00)
 number of electron      32.0000011 magnetization 
 augmentation part        0.7702545 magnetization 

 Broyden mixing:
  rms(total) = 0.70314E-01    rms(broyden)= 0.69982E-01
  rms(prec ) = 0.12263E+00
  weight for this iteration     100.00

 eigenvalues of (default mixing * dielectric matrix)
  average eigenvalue GAMMA=   2.2691
  2.0028  2.5354

 Free energy of the ion-electron system (eV)
  ---------------------------------------------------
  alpha Z        PSCENC =       117.77008320
  Ewald energy   TEWEN  =     -1403.24811061
  -Hartree energ DENC   =      -103.63027798
  -exchange      EXHF   =         0.00000000
  -V(xc)+E(xc)   XCENC  =       118.34675570
  PAW double counting   =       530.30725864     -540.63539660
  entropy T*S    EENTRO =         0.00000000
  eigenvalues    EBANDS =        31.38497728
  atomic energy  EATOM  =      1177.01779097
  Solvation  Ediel_sol  =         0.00000000
  ---------------------------------------------------
  free energy    TOTEN  =       -72.68691940 eV

  energy without entropy =      -72.68691940  energy(sigma->0) =      -72.68691940


--------------------------------------------------------------------------------------------------------




--------------------------------------- Iteration      1(   8)  ---------------------------------------


    POTLOK:  cpu time    0.0254: real time    0.0254
    SETDIJ:  cpu time    0.0058: real time    0.0058
     EDDAV:  cpu time    5.4351: real time    5.4354
 BZINTS: Fermi energy: 10.147152; 32.000000 electrons
         Band energy:  31.728694;  BLOECHL correction:  0.000000
       DOS:  cpu time    0.0369: real time    0.0369
    CHARGE:  cpu time    0.1402: real time    0.1402
    MIXING:  cpu time    0.0022: real time    0.0022
    --------------------------------------------
      LOOP:  cpu time    5.6455: real time    5.6459

 eigenvalue-minimisations  :  5184
 total energy-change (2. order) :-0.7726449E-02  (-0.2908523E-02)
 number of electron      32.0000011 magnetization 
 augmentation part        0.7705072 magnetization 

 Broyden mixing:
  rms(total) = 0.81605E-02    rms(broyden)= 0.80539E-02
  rms(prec ) = 0.14211E-01
  weight for this iteration     100.00

 eigenvalues of (default mixing * dielectric matrix)
  average eigenvalue GAMMA=   2.0987
  1.4485  2.6813  2.1662

 Free energy of the ion-electron system (eV)
  ---------------------------------------------------
  alpha Z        PSCENC =       117.77008320
  Ewald energy   TEWEN  =     -1403.24811061
  -Hartree energ DENC   =      -104.16629601
  -exchange      EXHF   =         0.00000000
  -V(xc)+E(xc)   XCENC  =       118.40174573
  PAW double counting   =       541.23548333     -551.43403602
  entropy T*S    EENTRO =         0.00000000
  eigenvalues    EBANDS =        31.72869355
  atomic energy  EATOM  =      1177.01779097
  Solvation  Ediel_sol  =         0.00000000
  ---------------------------------------------------
  free energy    TOTEN  =       -72.69464585 eV

  energy without entropy =      -72.69464585  energy(sigma->0) =      -72.69464585


--------------------------------------------------------------------------------------------------------




--------------------------------------- Iteration      1(   9)  ---------------------------------------


    POTLOK:  cpu time    0.0244: real time    0.0244
    SETDIJ:  cpu time    0.0059: real time    0.0059
     EDDAV:  cpu time    5.1833: real time    5.1837
 BZINTS: Fermi energy: 10.138224; 32.000000 electrons
         Band energy:  31.620524;  BLOECHL correction:  0.000000
       DOS:  cpu time    0.0369: real time    0.0369
    CHARGE:  cpu time    0.1357: real time    0.1357
    MIXING:  cpu time    0.0023: real time    0.0024
    --------------------------------------------
      LOOP:  cpu time    5.3886: real time    5.3889

 eigenvalue-minimisations  :  4872
 total energy-change (2. order) :-0.2066830E-03  (-0.4233242E-04)
 number of electron      32.0000011 magnetization 
 augmentation part        0.7704709 magnetization 

 Broyden mixing:
  rms(total) = 0.28609E-02    rms(broyden)= 0.28530E-02
  rms(prec ) = 0.50402E-02
  weight for this iteration     100.00

 eigenvalues of (default mixing * dielectric matrix)
  average eigenvalue GAMMA=   2.0468
  0.9758  2.7598  2.4554  1.9962

 Free energy of the ion-electron system (eV)
  ---------------------------------------------------
  alpha Z        PSCENC =       117.77008320
  Ewald energy   TEWEN  =     -1403.24811061
  -Hartree energ DENC   =      -104.06378232
  -exchange      EXHF   =         0.00000000
  -V(xc)+E(xc)   XCENC  =       118.39190655
  PAW double counting   =       540.52626650     -550.70953043
  entropy T*S    EENTRO =         0.00000000
  eigenvalues    EBANDS =        31.62052359
  atomic energy  EATOM  =      1177.01779097
  Solvation  Ediel_sol  =         0.00000000
  ---------------------------------------------------
  free energy    TOTEN  =       -72.69485253 eV

  energy without entropy =      -72.69485253  energy(sigma->0) =      -72.69485253


--------------------------------------------------------------------------------------------------------




--------------------------------------- Iteration      1(  10)  ---------------------------------------


    POTLOK:  cpu time    0.0266: real time    0.0266
    SETDIJ:  cpu time    0.0057: real time    0.0057
     EDDAV:  cpu time    5.3822: real time    5.3825
 BZINTS: Fermi energy: 10.135474; 32.000000 electrons
         Band energy:  31.654734;  BLOECHL correction:  0.000000
       DOS:  cpu time    0.0369: real time    0.0369
    CHARGE:  cpu time    0.1474: real time    0.1474
    MIXING:  cpu time    0.0024: real time    0.0024
    --------------------------------------------
      LOOP:  cpu time    5.6012: real time    5.6015

 eigenvalue-minimisations  :  5080
 total energy-change (2. order) :-0.5286339E-04  (-0.4425776E-05)
 number of electron      32.0000011 magnetization 
 augmentation part        0.7704477 magnetization 

 Broyden mixing:
  rms(total) = 0.26874E-03    rms(broyden)= 0.26384E-03
  rms(prec ) = 0.63495E-03
  weight for this iteration     100.00

 eigenvalues of (default mixing * dielectric matrix)
  average eigenvalue GAMMA=   1.9542
  2.9142  2.5548  2.0605  0.9938  1.2480

 Free energy of the ion-electron system (eV)
  ---------------------------------------------------
  alpha Z        PSCENC =       117.77008320
  Ewald energy   TEWEN  =     -1403.24811061
  -Hartree energ DENC   =      -104.09989871
  -exchange      EXHF   =         0.00000000
  -V(xc)+E(xc)   XCENC  =       118.39492405
  PAW double counting   =       539.92250732     -550.10693595
  entropy T*S    EENTRO =         0.00000000
  eigenvalues    EBANDS =        31.65473434
  atomic energy  EATOM  =      1177.01779097
  Solvation  Ediel_sol  =         0.00000000
  ---------------------------------------------------
  free energy    TOTEN  =       -72.69490539 eV

  energy without entropy =      -72.69490539  energy(sigma->0) =      -72.69490539


--------------------------------------------------------------------------------------------------------




--------------------------------------- Iteration      1(  11)  ---------------------------------------


    POTLOK:  cpu time    0.0217: real time    0.0217
    SETDIJ:  cpu time    0.0058: real time    0.0058
     EDDAV:  cpu time    4.4593: real time    4.4596
 BZINTS: Fermi energy: 10.248935; 32.000000 electrons
         Band energy:  31.666967;  BLOECHL correction:  0.000000
       DOS:  cpu time    0.0410: real time    0.0410
    --------------------------------------------
      LOOP:  cpu time    4.5279: real time    4.5282

 eigenvalue-minimisations  :  3752
 total energy-change (2. order) :-0.6257790E-06  (-0.1027681E-06)
 number of electron      32.0000011 magnetization 
 augmentation part        0.7704477 magnetization 

 Free energy of the ion-electron system (eV)
  ---------------------------------------------------
  alpha Z        PSCENC =       117.77008320
  Ewald energy   TEWEN  =     -1403.24811061
  -Hartree energ DENC   =      -104.11268049
  -exchange      EXHF   =         0.00000000
  -V(xc)+E(xc)   XCENC  =       118.39610301
  PAW double counting   =       539.94407133     -550.12913018
  entropy T*S    EENTRO =         0.00000000
  eigenvalues    EBANDS =        31.66696674
  atomic energy  EATOM  =      1177.01779097
  Solvation  Ediel_sol  =         0.00000000
  ---------------------------------------------------
  free energy    TOTEN  =       -72.69490602 eV

  energy without entropy =      -72.69490602  energy(sigma->0) =      -72.69490602


--------------------------------------------------------------------------------------------------------




 average (electrostatic) potential at core
  the test charge radii are     0.6991
  (the norm of the test charge is              1.0000)
       1 -45.0187       2 -45.0187       3 -45.0187       4 -45.0187       5 -45.0187
       6 -45.0187       7 -45.0187       8 -45.0187
 
 
 
 E-fermi :  10.2489     XC(G=0): -13.3460     alpha+bet :-18.1377


 k-point     1 :       0.0000    0.0000    0.0000
  band No.  band energies     occupation 
      1     -11.6953      2.00000
      2      -2.8265      2.00000
      3      -2.8265      2.00000
      4      -2.8265      2.00000
      5      -2.8265      2.00000
      6      -2.8265      2.00000
      7      -2.8265      2.00000
      8       3.6670      2.00000
      9       3.6670      2.00000
     10       3.6670      2.00000
     11       3.6670      2.00000
     12       3.6670      2.00000
     13       3.6670      2.00000
     14      10.1340      2.00000
     15      10.1340      2.00000
     16      10.1340      2.00000
     17      14.9256      0.00000
     18      14.9256      0.00000
     19      14.9256      0.00000
     20      14.9256      0.00000
     21      14.9256      0.00000
     22      14.9256      0.00000
     23      15.7896      0.00000
     24      15.7896      0.00000

 k-point     2 :       0.0833    0.0000    0.0000
  band No.  band energies     occupation 
      1     -11.6301      2.00000
      2      -4.1518      2.00000
      3      -2.7835      2.00000
      4      -2.7835      2.00000
      5      -2.7835      2.00000
      6      -2.7835      2.00000
      7      -1.4384      2.00000
      8       3.5236      2.00000
      9       3.5236      2.00000
     10       3.5236      2.00000
     11       3.5236      2.00000
     12       3.7311      2.00000
     13       3.7311      2.00000
     14       9.8621      2.00000
     15       9.8621      2.00000
     16       9.9759      2.00000
     17      14.5875      0.00000
     18      15.1967      0.00000
     19      15.1967      0.00000
     20      15.1967      0.00000
     21      15.1967      0.00000
     22      15.4192      0.00000
     23      15.7379      0.00000
     24      16.1196      0.00000

 k-point     3 :       0.1667    0.0000    0.0000
  band No.  band energies     occupation 
      1     -11.4346      2.00000
      2      -5.3985      2.00000
      3      -2.6610      2.00000
      4      -2.6610      2.00000
      5      -2.6610      2.00000
      6      -2.6610      2.00000
      7      -0.0108      2.00000
      8       3.1365      2.00000
      9       3.1365      2.00000
     10       3.1365      2.00000
     11       3.1365      2.00000
     12       3.9225      2.00000
     13       3.9225      2.00000
     14       9.1930      2.00000
     15       9.1930      2.00000
     16       9.5189      2.00000
     17      14.3850      0.00000
     18      15.6011      0.00000
     19      15.9526      0.00000
     20      15.9526      0.00000
     21      15.9526      0.00000
     22      15.9526      0.00000
     23      16.0759      0.00000
     24      16.9665      0.00000

 k-point     4 :       0.2500    0.0000    0.0000
  band No.  band energies     occupation 
      1     -11.1096      2.00000
      2      -6.5529      2.00000
      3      -2.4743      2.00000
      4      -2.4743      2.00000
      5      -2.4743      2.00000
      6      -2.4743      2.00000
      7       1.4328      2.00000
      8       2.6241      2.00000
      9       2.6241      2.00000
     10       2.6241      2.00000
     11       2.6241      2.00000
     12       4.2385      2.00000
     13       4.2385      2.00000
     14       8.3543      2.00000
     15       8.3543      2.00000
     16       8.7948      2.00000
     17      14.3036      0.00000
     18      15.3749      0.00000
     19      16.9155      0.00000
     20      17.0833      0.00000
     21      17.0833      0.00000
     22      17.0833      0.00000
     23      17.0833      0.00000
     24      18.0839      0.00000

 k-point     5 :       0.3333    0.0000    0.0000
  band No.  band energies     occupation 
      1     -10.6562      2.00000
      2      -7.6049      2.00000
      3      -2.2578      2.00000
      4      -2.2578      2.00000
      5      -2.2578      2.00000
      6      -2.2578      2.00000
      7       2.1125      2.00000
      8       2.1125      2.00000
      9       2.1125      2.00000
     10       2.1125      2.00000
     11       2.8640      2.00000
     12       4.6763      2.00000
     13       4.6763      2.00000
     14       7.4830      2.00000
     15       7.4830      2.00000
     16       7.8726      2.00000
     17      14.3277      0.00000
     18      15.1175      0.00000
     19      17.9462      0.00000
     20      18.4591      0.00000
     21      18.4591      0.00000
     22      18.4591      0.00000
     23      18.4592      0.00000
     24      19.3301      0.00000

 k-point     6 :       0.4167    0.0000    0.0000
  band No.  band energies     occupation 
      1     -10.0761      2.00000
      2      -8.5465      2.00000
      3      -2.0718      2.00000
      4      -2.0718      2.00000
      5      -2.0718      2.00000
      6      -2.0718      2.00000
      7       1.7261      2.00000
      8       1.7261      2.00000
      9       1.7261      2.00000
     10       1.7261      2.00000
     11       4.2509      2.00000
     12       5.2303      2.00000
     13       5.2303      2.00000
     14       6.6483      2.00000
     15       6.6483      2.00000
     16       6.7823      2.00000
     17      14.4399      0.00000
     18      14.8579      0.00000
     19      19.1625      0.00000
     20      19.9196      0.00000
     21      19.9196      0.00000
     22      19.9196      0.00000
     23      19.9198      0.00000
     24      20.6397      0.00000

 k-point     7 :       0.5000    0.0000    0.0000
  band No.  band energies     occupation 
      1      -9.3717      2.00000
      2      -9.3717      2.00000
      3      -1.9956      2.00000
      4      -1.9956      2.00000
      5      -1.9956      2.00000
      6      -1.9956      2.00000
      7       1.5784      2.00000
      8       1.5784      2.00000
      9       1.5784      2.00000
     10       1.5784      2.00000
     11       5.5669      2.00000
     12       5.5669      2.00000
     13       5.8919      2.00000
     14       5.8919      2.00000
     15       5.8919      2.00000
     16       5.8919      2.00000
     17      14.6238      0.00000
     18      14.6238      0.00000
     19      20.5277      0.00000
     20      20.5277      0.00000
     21      20.8646      0.00000
     22      20.8646      0.00000
     23      20.8646      0.00000
     24      20.8647      0.00000

 k-point     8 :       0.0833    0.0833    0.0000
  band No.  band energies     occupation 
      1     -11.5649      2.00000
      2      -4.1014      2.00000
      3      -4.1014      2.00000
      4      -2.7767      2.00000
      5      -2.7099      2.00000
      6      -1.4092      2.00000
      7      -1.4092      2.00000
      8       3.0243      2.00000
      9       3.5742      2.00000
     10       3.5742      2.00000
     11       3.6047      2.00000
     12       3.6047      2.00000
     13       3.7765      2.00000
     14       9.4103      2.00000
     15       9.6006      2.00000
     16      10.0538      2.00000
     17      14.8623      0.00000
     18      14.8623      0.00000
     19      15.0314      0.00000
     20      15.6803      0.00000
     21      15.6803      0.00000
     22      15.8529      0.00000
     23      15.9233      0.00000
     24      16.2099      0.00000

 k-point     9 :       0.1667    0.0833    0.0000
  band No.  band energies     occupation 
      1     -11.3696      2.00000
      2      -5.3431      2.00000
      3      -3.9529      2.00000
      4      -2.7035      2.00000
      5      -2.5512      2.00000
      6      -1.3306      2.00000
      7      -0.0047      2.00000
      8       2.3963      2.00000
      9       3.1525      2.00000
     10       3.2721      2.00000
     11       3.7431      2.00000
     12       3.7549      2.00000
     13       3.8232      2.00000
     14       8.6581      2.00000
     15       8.9502      2.00000
     16       9.7793      2.00000
     17      14.6647      0.00000
     18      15.4031      0.00000
     19      15.6348      0.00000
     20      15.8566      0.00000
     21      16.3267      0.00000
     22      16.4139      0.00000
     23      16.9003      0.00000
     24      16.9568      0.00000

 k-point    10 :       0.2500    0.0833    0.0000
  band No.  band energies     occupation 
      1     -11.0448      2.00000
      2      -6.4943      2.00000
      3      -3.7154      2.00000
      4      -2.5979      2.00000
      5      -2.3145      2.00000
      6      -1.2313      2.00000
      7       1.3959      2.00000
      8       1.7677      2.00000
      9       2.5817      2.00000
     10       2.8521      2.00000
     11       3.4683      2.00000
     12       4.0623      2.00000
     13       4.1860      2.00000
     14       7.7883      2.00000
     15       8.1281      2.00000
     16       9.1740      2.00000
     17      14.5865      0.00000
     18      15.6497      0.00000
     19      16.2482      0.00000
     20      16.7860      0.00000
     21      17.1534      0.00000
     22      17.5127      0.00000
     23      18.0641      0.00000
     24      18.1025      0.00000

 k-point    11 :       0.3333    0.0833    0.0000
  band No.  band energies     occupation 
      1     -10.5917      2.00000
      2      -7.5441      2.00000
      3      -3.4077      2.00000
      4      -2.5214      2.00000
      5      -2.0169      2.00000
      6      -1.1672      2.00000
      7       1.2689      2.00000
      8       1.9816      2.00000
      9       2.4870      2.00000
     10       2.7432      2.00000
     11       3.0697      2.00000
     12       4.4930      2.00000
     13       4.7110      2.00000
     14       6.8792      2.00000
     15       7.2685      2.00000
     16       8.3406      2.00000
     17      14.6128      0.00000
     18      15.3989      0.00000
     19      17.4437      0.00000
     20      18.1698      0.00000
     21      18.1933      0.00000
     22      18.8326      0.00000
     23      19.2604      0.00000
     24      19.3165      0.00000

 k-point    12 :       0.4167    0.0833    0.0000
  band No.  band energies     occupation 
      1     -10.0121      2.00000
      2      -8.4842      2.00000
      3      -3.0668      2.00000
      4      -2.5584      2.00000
      5      -1.6927      2.00000
      6      -1.2110      2.00000
      7       1.0248      2.00000
      8       1.4539      2.00000
      9       2.3084      2.00000
     10       2.6689      2.00000
     11       3.9685      2.00000
     12       5.0413      2.00000
     13       5.4291      2.00000
     14       5.9673      2.00000
     15       6.4452      2.00000
     16       7.3633      2.00000
     17      14.7273      0.00000
     18      15.1422      0.00000
     19      18.8347      0.00000
     20      19.3698      0.00000
     21      19.7302      0.00000
     22      20.1057      0.00000
     23      20.4967      0.00000
     24      20.6318      0.00000

 k-point    13 :       0.5000    0.0833    0.0000
  band No.  band energies     occupation 
      1      -9.3085      2.00000
      2      -9.3085      2.00000
      3      -2.7556      2.00000
      4      -2.7556      2.00000
      5      -1.3995      2.00000
      6      -1.3995      2.00000
      7       1.1011      2.00000
      8       1.1011      2.00000
      9       2.3822      2.00000
     10       2.3822      2.00000
     11       5.0248      2.00000
     12       5.0248      2.00000
     13       5.6960      2.00000
     14       5.6960      2.00000
     15       6.3445      2.00000
     16       6.3445      2.00000
     17      14.9091      0.00000
     18      14.9091      0.00000
     19      20.1322      0.00000
     20      20.1322      0.00000
     21      20.7158      0.00000
     22      20.7158      0.00000
     23      21.1822      0.00000
     24      21.1833      0.00000

 k-point    14 :       0.1667    0.1667    0.0000
  band No.  band energies     occupation 
      1     -11.1747      2.00000
      2      -5.1786      2.00000
      3      -5.1786      2.00000
      4      -2.7115      2.00000
      5      -2.3610      2.00000
      6      -0.0019      2.00000
      7      -0.0019      2.00000
      8       1.6510      2.00000
      9       3.3083      2.00000
     10       3.3083      2.00000
     11       3.5767      2.00000
     12       3.5767      2.00000
     13       4.1006      2.00000
     14       7.8445      2.00000
     15       8.3378      2.00000
     16       9.8007      2.00000
     17      15.3452      0.00000
     18      15.4477      0.00000
     19      15.4477      0.00000
     20      16.3241      0.00000
     21      17.0358      0.00000
     22      17.0358      0.00000
     23      17.1635      0.00000
     24      17.5226      0.00000

 k-point    15 :       0.2500    0.1667    0.0000
  band No.  band energies     occupation 
      1     -10.8506      2.00000
      2      -6.3196      2.00000
      3      -4.9104      2.00000
      4      -2.7466      2.00000
      5      -2.0875      2.00000
      6      -0.0494      2.00000
      7       1.0347      2.00000
      8       1.2650      2.00000
      9       2.7000      2.00000
     10       3.3071      2.00000
     11       3.5958      2.00000
     12       4.0811      2.00000
     13       4.1724      2.00000
     14       6.9529      2.00000
     15       7.5475      2.00000
     16       9.4393      2.00000
     17      15.3754      0.00000
     18      15.8118      0.00000
     19      16.3312      0.00000
     20      16.6097      0.00000
     21      17.8273      0.00000
     22      18.0589      0.00000
     23      18.0920      0.00000
     24      18.2033      0.00000

 k-point    16 :       0.3333    0.1667    0.0000
  band No.  band energies     occupation 
      1     -10.3986      2.00000
      2      -7.3627      2.00000
      3      -4.5497      2.00000
      4      -2.8970      2.00000
      5      -1.7392      2.00000
      6      -0.2091      2.00000
      7       0.6794      2.00000
      8       2.0451      2.00000
      9       2.4035      2.00000
     10       3.1533      2.00000
     11       4.0043      2.00000
     12       4.0093      2.00000
     13       4.8179      2.00000
     14       6.0506      2.00000
     15       6.7149      2.00000
     16       8.7588      2.00000
     17      15.4030      0.00000
     18      16.1384      0.00000
     19      16.7296      0.00000
     20      18.0270      0.00000
     21      18.8005      0.00000
     22      19.0924      0.00000
     23      19.2807      0.00000
     24      19.3174      0.00000

 k-point    17 :       0.4167    0.1667    0.0000
  band No.  band energies     occupation 
      1      -9.8206      2.00000
      2      -8.2982      2.00000
      3      -4.1169      2.00000
      4      -3.2136      2.00000
      5      -1.3340      2.00000
      6      -0.5081      2.00000
      7       0.6610      2.00000
      8       1.4330      2.00000
      9       3.1947      2.00000
     10       3.3915      2.00000
     11       3.7106      2.00000
     12       4.5407      2.00000
     13       5.1616      2.00000
     14       5.7666      2.00000
     15       5.9118      2.00000
     16       7.8555      2.00000
     17      15.5154      0.00000
     18      15.9077      0.00000
     19      17.9602      0.00000
     20      19.5888      0.00000
     21      19.9466      0.00000
     22      20.1064      0.00000
     23      20.1243      0.00000
     24      20.6021      0.00000

 k-point    18 :       0.5000    0.1667    0.0000
  band No.  band energies     occupation 
      1      -9.1192      2.00000
      2      -9.1192      2.00000
      3      -3.6495      2.00000
      4      -3.6495      2.00000
      5      -0.9055      2.00000
      6      -0.9055      2.00000
      7       0.9437      2.00000
      8       0.9437      2.00000
      9       3.4063      2.00000
     10       3.4063      2.00000
     11       4.2870      2.00000
[...]

 k-point    72 :       0.4167    0.4167    0.2500
  band No.  band energies     occupation 
      1      -7.9463      2.00000
      2      -6.5274      2.00000
      3      -6.5274      2.00000
      4      -5.3752      2.00000
      5      -2.6581      2.00000
      6      -1.5445      2.00000
      7      -1.5445      2.00000
      8      -0.1806      2.00000
      9       4.5374      2.00000
     10       5.3225      2.00000
     11       5.3225      2.00000
     12       6.4394      2.00000
     13       6.4449      2.00000
     14       6.6299      2.00000
     15       6.6299      2.00000
     16       7.7355      2.00000
     17      17.7655      0.00000
     18      18.2871      0.00000
     19      18.2871      0.00000
     20      18.6464      0.00000
     21      18.8665      0.00000
     22      19.4289      0.00000
     23      19.4289      0.00000
     24      19.6787      0.00000

 k-point    73 :       0.5000    0.4167    0.2500
  band No.  band energies     occupation 
      1      -7.2839      2.00000
      2      -7.2839      2.00000
      3      -5.9489      2.00000
      4      -5.9489      2.00000
      5      -2.2110      2.00000
      6      -2.2110      2.00000
      7      -0.9258      2.00000
      8      -0.9258      2.00000
      9       4.9482      2.00000
     10       4.9482      2.00000
     11       5.9067      2.00000
     12       5.9067      2.00000
     13       6.6690      2.00000
     14       6.6690      2.00000
     15       7.3137      2.00000
     16       7.3137      2.00000
     17      18.2827      0.00000
     18      18.2827      0.00000
     19      18.5478      0.00000
     20      18.5478      0.00000
     21      19.0648      0.00000
     22      19.0648      0.00000
     23      19.6502      0.00000
     24      19.6502      0.00000

 k-point    74 :       0.5000    0.5000    0.2500
  band No.  band energies     occupation 
      1      -6.6496      2.00000
      2      -6.6496      2.00000
      3      -6.6496      2.00000
      4      -6.6496      2.00000
      5      -1.6450      2.00000
      6      -1.6450      2.00000
      7      -1.6450      2.00000
      8      -1.6450      2.00000
      9       5.4437      2.00000
     10       5.4437      2.00000
     11       5.4437      2.00000
     12       5.4437      2.00000
     13       7.1423      2.00000
     14       7.1423      2.00000
     15       7.1423      2.00000
     16       7.1423      2.00000
     17      18.4567      0.00000
     18      18.4567      0.00000
     19      18.4567      0.00000
     20      18.4567      0.00000
     21      19.4311      0.00000
     22      19.4311      0.00000
     23      19.4311      0.00000
     24      19.4311      0.00000

 k-point    75 :       0.3333    0.3333    0.3333
  band No.  band energies     occupation 
      1      -8.6254      2.00000
      2      -5.8242      2.00000
      3      -5.8242      2.00000
      4      -5.8242      2.00000
      5      -2.1210      2.00000
      6      -2.1210      2.00000
      7      -2.1210      2.00000
      8       0.5775      2.00000
      9       5.0372      2.00000
     10       5.0372      2.00000
     11       5.0372      2.00000
     12       6.0560      2.00000
     13       6.0560      2.00000
     14       6.0560      2.00000
     15       7.7475      2.00000
     16       7.7475      2.00000
     17      17.3172      0.00000
     18      17.3172      0.00000
     19      17.3172      0.00000
     20      18.5308      0.00000
     21      18.5308      0.00000
     22      18.9688      0.00000
     23      21.0291      0.00000
     24      21.0291      0.00000

 k-point    76 :       0.4167    0.3333    0.3333
  band No.  band energies     occupation 
      1      -8.0705      2.00000
      2      -6.6463      2.00000
      3      -5.4851      2.00000
      4      -5.4851      2.00000
      5      -2.7825      2.00000
      6      -2.7825      2.00000
      7      -1.6573      2.00000
      8      -0.2833      2.00000
      9       5.2528      2.00000
     10       5.2528      2.00000
     11       6.1647      2.00000
     12       6.2840      2.00000
     13       6.2840      2.00000
     14       6.4351      2.00000
     15       7.3099      2.00000
     16       7.6191      2.00000
     17      17.6706      0.00000
     18      17.8583      0.00000
     19      17.8583      0.00000
     20      18.3031      0.00000
     21      18.9745      0.00000
     22      19.2421      0.00000
     23      20.0752      0.00000
     24      20.0763      0.00000

 k-point    77 :       0.5000    0.3333    0.3333
  band No.  band energies     occupation 
      1      -7.4058      2.00000
      2      -7.4058      2.00000
      3      -5.3211      2.00000
      4      -5.3211      2.00000
      5      -3.0549      2.00000
      6      -3.0549      2.00000
      7      -1.0348      2.00000
      8      -1.0348      2.00000
      9       5.3247      2.00000
     10       5.3247      2.00000
     11       6.3567      2.00000
     12       6.3567      2.00000
     13       6.8625      2.00000
     14       6.8625      2.00000
     15       7.0614      2.00000
     16       7.0614      2.00000
     17      18.0136      0.00000
     18      18.0136      0.00000
     19      18.4113      0.00000
     20      18.4113      0.00000
     21      19.3290      0.00000
     22      19.3290      0.00000
     23      19.5592      0.00000
     24      19.5603      0.00000

 k-point    78 :       0.4167    0.4167    0.3333
  band No.  band energies     occupation 
      1      -7.5293      2.00000
      2      -6.1826      2.00000
      3      -6.1826      2.00000
      4      -5.4354      2.00000
      5      -3.1728      2.00000
      6      -2.4423      2.00000
      7      -2.4423      2.00000
      8      -1.1376      2.00000
      9       5.6717      2.00000
     10       6.1454      2.00000
     11       6.1454      2.00000
     12       6.6558      2.00000
     13       6.7336      2.00000
     14       6.7336      2.00000
     15       7.1017      2.00000
     16       7.5803      2.00000
     17      18.0342      0.00000
     18      18.1695      0.00000
     19      18.1695      0.00000
     20      18.5852      0.00000
     21      18.8072      0.00000
     22      19.2951      0.00000
     23      19.4916      0.00000
     24      19.4918      0.00000

 k-point    79 :       0.5000    0.4167    0.3333
  band No.  band energies     occupation 
      1      -6.8899      2.00000
      2      -6.8899      2.00000
      3      -5.7191      2.00000
      4      -5.7191      2.00000
      5      -3.0090      2.00000
      6      -3.0090      2.00000
      7      -1.8688      2.00000
      8      -1.8688      2.00000
      9       5.9583      2.00000
     10       5.9583      2.00000
     11       6.7043      2.00000
     12       6.7043      2.00000
     13       6.8301      2.00000
     14       6.8301      2.00000
     15       7.2694      2.00000
     16       7.2694      2.00000
     17      18.4489      0.00000
     18      18.4489      0.00000
     19      18.4506      0.00000
     20      18.4506      0.00000
     21      19.0648      0.00000
     22      19.0649      0.00000
     23      19.2238      0.00000
     24      19.2239      0.00000

 k-point    80 :       0.5000    0.5000    0.3333
  band No.  band energies     occupation 
      1      -6.3026      2.00000
      2      -6.3026      2.00000
      3      -6.3026      2.00000
      4      -6.3026      2.00000
      5      -2.5531      2.00000
      6      -2.5531      2.00000
      7      -2.5531      2.00000
      8      -2.5531      2.00000
      9       6.3825      2.00000
     10       6.3825      2.00000
     11       6.3825      2.00000
     12       6.3825      2.00000
     13       7.1994      2.00000
     14       7.1994      2.00000
     15       7.1994      2.00000
     16       7.1994      2.00000
     17      18.6008      0.00000
     18      18.6008      0.00000
     19      18.6008      0.00000
     20      18.6008      0.00000
     21      19.0445      0.00000
     22      19.0445      0.00000
     23      19.0445      0.00000
     24      19.0445      0.00000

 k-point    81 :       0.4167    0.4167    0.4167
  band No.  band energies     occupation 
      1      -7.0113      2.00000
      2      -5.8343      2.00000
      3      -5.8343      2.00000
      4      -5.8343      2.00000
      5      -3.1278      2.00000
      6      -3.1278      2.00000
      7      -3.1278      2.00000
      8      -1.9794      2.00000
      9       6.6006      2.00000
     10       6.6006      2.00000
     11       6.6006      2.00000
     12       6.8985      2.00000
     13       6.8985      2.00000
     14       6.8985      2.00000
     15       7.3808      2.00000
     16       7.3808      2.00000
     17      18.3088      0.00000
     18      18.3088      0.00000
     19      18.3088      0.00000
     20      18.6702      0.00000
     21      18.6702      0.00000
     22      19.2189      0.00000
     23      19.3488      0.00000
     24      19.3488      0.00000

 k-point    82 :       0.5000    0.4167    0.4167
  band No.  band energies     occupation 
      1      -6.4211      2.00000
      2      -6.4211      2.00000
      3      -5.6646      2.00000
      4      -5.6646      2.00000
      5      -3.4114      2.00000
      6      -3.4114      2.00000
      7      -2.6692      2.00000
      8      -2.6692      2.00000
      9       6.6911      2.00000
     10       6.6911      2.00000
     11       7.0293      2.00000
     12       7.0293      2.00000
     13       7.1471      2.00000
     14       7.1471      2.00000
     15       7.2049      2.00000
     16       7.2049      2.00000
     17      18.5242      0.00000
     18      18.5242      0.00000
     19      18.5787      0.00000
     20      18.5787      0.00000
     21      18.9276      0.00000
     22      18.9285      0.00000
     23      18.9757      0.00000
     24      18.9767      0.00000

 k-point    83 :       0.5000    0.5000    0.4167
  band No.  band energies     occupation 
      1      -5.9513      2.00000
      2      -5.9513      2.00000
      3      -5.9513      2.00000
      4      -5.9513      2.00000
      5      -3.2461      2.00000
      6      -3.2461      2.00000
      7      -3.2461      2.00000
      8      -3.2461      2.00000
      9       7.0272      2.00000
     10       7.0272      2.00000
     11       7.0272      2.00000
     12       7.0272      2.00000
     13       7.2412      2.00000
     14       7.2412      2.00000
     15       7.2412      2.00000
     16       7.2412      2.00000
     17      18.6889      0.00000
     18      18.6889      0.00000
     19      18.6889      0.00000
     20      18.6914      0.00000
     21      18.7817      0.00000
     22      18.7817      0.00000
     23      18.7817      0.00000
     24      18.7831      0.00000

 k-point    84 :       0.5000    0.5000    0.5000
  band No.  band energies     occupation 
      1      -5.7795      2.00000
      2      -5.7795      2.00000
      3      -5.7795      2.00000
      4      -5.7795      2.00000
      5      -3.5328      2.00000
      6      -3.5328      2.00000
      7      -3.5328      2.00000
      8      -3.5328      2.00000
      9       7.2561      2.00000
     10       7.2561      2.00000
     11       7.2561      2.00000
     12       7.2561      2.00000
     13       7.2561      2.00000
     14       7.2561      2.00000
     15       7.2561      2.00000
     16       7.2561      2.00000
     17      18.6839      0.00000
     18      18.6839      0.00000
     19      18.6839      0.00000
     20      18.6839      0.00000
     21      18.6839      0.00000
     22      18.6839      0.00000
     23      18.6839      0.00000
     24      18.6839      0.00000


--------------------------------------------------------------------------------------------------------


 soft charge-density along one line, spin component           1
         0         1         2         3         4         5         6         7         8         9
 total charge-density along one line
 
 pseudopotential strength for first ion, spin component:           1
  9.419  -0.006   0.000   0.000  -0.000  -0.000  -0.000  -0.000
 -0.006  -0.002  -0.000  -0.000  -0.000  -0.000  -0.000  -0.000
  0.000  -0.000  -3.639  -0.000  -0.000  -0.010  -0.000  -0.000
  0.000  -0.000  -0.000  -3.639   0.000  -0.000  -0.010   0.000
 -0.000  -0.000  -0.000   0.000  -3.639  -0.000   0.000  -0.010
 -0.000  -0.000  -0.010  -0.000  -0.000  -0.757  -0.000  -0.000
 -0.000  -0.000  -0.000  -0.010   0.000  -0.000  -0.757   0.000
 -0.000  -0.000  -0.000   0.000  -0.010  -0.000   0.000  -0.757
 total augmentation occupancy for first ion, spin component:           1
  1.427  -1.071   0.000   0.000   0.000  -0.000   0.000  -0.000
 -1.071   1.090   0.000   0.000  -0.000  -0.000   0.000  -0.000
 -0.000  -0.000   1.114  -0.000  -0.000   0.190  -0.000   0.000
 -0.000   0.000  -0.000   1.114  -0.000   0.000   0.190  -0.000
  0.000  -0.000  -0.000   0.000   1.114   0.000  -0.000   0.190
  0.000   0.000   0.190   0.000   0.000   0.038   0.000   0.000
  0.000  -0.000   0.000   0.190   0.000  -0.000   0.038   0.000
  0.000   0.000   0.000   0.000   0.190   0.000  -0.000   0.038


------------------------ aborting loop because EDIFF is reached ----------------------------------------


    CHARGE:  cpu time    0.1441: real time    0.1441
    FORLOC:  cpu time    0.0022: real time    0.0022
    FORNL :  cpu time    0.2107: real time    0.2107
    STRESS:  cpu time    0.5033: real time    0.5036
    FORHAR:  cpu time    0.0056: real time    0.0056
    MIXING:  cpu time    0.0022: real time    0.0022
    OFIELD:  cpu time    0.0001: real time    0.0001

  FORCE on cell =-STRESS in cart. coord.  units (eV):
  Direction    XX          YY          ZZ          XY          YZ          ZX
  --------------------------------------------------------------------------------------
  Alpha Z   117.77008   117.77008   117.77008
  Ewald    -467.75017  -467.75017  -467.75017    -0.00000    -0.00000     0.00000
  Hartree    34.70353    34.70353    34.70353    -0.00000    -0.00000    -0.00000
  E(xc)    -120.39271  -120.39271  -120.39271    -0.00000    -0.00000    -0.00000
  Local     -44.96415   -44.96415   -44.96415    -0.00000    -0.00000     0.00000
  n-local   -29.06750   -29.85405   -29.40637     0.65607     0.78923     0.37786
  augment    -2.94480    -2.94480    -2.94480     0.00000    -0.00000     0.00000
  Kinetic   504.22840   520.45933   522.31463    -4.68135    -6.51580    -3.24700
  Fock        0.00000     0.00000     0.00000     0.00000     0.00000     0.00000
  -------------------------------------------------------------------------------------
  Total       2.64660     2.64660     2.64660     0.00000     0.00000    -0.00000
  in kB      95.76388    95.76388    95.76388     0.00000     0.00000    -0.00000
  external pressure =       95.76 kB  Pullay stress =        0.00 kB


 VOLUME and BASIS-vectors are now :
 -----------------------------------------------------------------------------
  energy-cutoff  :      400.00
  volume of cell :       44.28
      direct lattice vectors                 reciprocal lattice vectors
     3.537792000  0.000000000  0.000000000     0.282662180  0.000000000  0.000000000
     0.000000000  3.537792000  0.000000000     0.000000000  0.282662180  0.000000000
     0.000000000  0.000000000  3.537792000     0.000000000  0.000000000  0.282662180

  length of vectors
     3.537792000  3.537792000  3.537792000     0.282662180  0.282662180  0.282662180


 FORCES acting on ions
    electron-ion (+dipol)            ewald-force                    non-local-force                 convergence-correction
 -----------------------------------------------------------------------------------------------
   0.000E+00 -.149E-12 0.826E-13   0.711E-14 0.000E+00 0.000E+00   -.552E-17 -.499E-16 -.317E-16   0.328E-15 -.350E-15 -.128E-13
   0.000E+00 0.173E-14 0.991E-13   0.196E-14 0.419E-15 -.710E-14   -.108E-16 0.155E-16 0.153E-16   -.114E-15 -.852E-15 -.177E-13
   0.000E+00 -.177E-12 0.104E-12   0.711E-14 0.000E+00 -.711E-14   -.206E-16 -.274E-16 -.489E-16   0.224E-16 0.379E-15 -.139E-13
   0.000E+00 0.193E-13 0.810E-13   -.203E-15 0.879E-18 -.145E-13   -.447E-17 0.706E-17 0.323E-16   0.312E-15 -.354E-14 -.176E-13
   0.241E-13 0.204E-12 0.473E-12   0.000E+00 0.000E+00 0.142E-13   -.329E-19 -.108E-16 -.137E-16   -.479E-14 -.658E-17 -.143E-13
   0.803E-14 -.105E-14 -.321E-12   -.669E-16 -.302E-15 0.681E-14   -.257E-17 0.444E-16 0.288E-16   0.107E-15 -.102E-14 -.179E-13
   0.241E-13 -.191E-12 0.803E-13   0.000E+00 0.000E+00 0.711E-14   0.172E-17 -.472E-17 -.387E-16   -.386E-14 0.352E-15 -.129E-13
   0.241E-13 0.372E-12 0.100E-12   -.773E-16 0.200E-16 -.101E-15   0.159E-16 0.227E-16 0.437E-16   0.723E-16 -.246E-14 -.174E-13
 -----------------------------------------------------------------------------------------------
   0.803E-13 0.794E-13 0.700E-12   0.158E-13 0.138E-15 -.694E-15   -.264E-16 -.318E-17 -.129E-16   -.792E-14 -.749E-14 -.125E-12
 
 
 POSITION                                       TOTAL-FORCE (eV/Angst)
 -----------------------------------------------------------------------------------
      0.88445      2.65334      0.88445         0.000000      0.000000     -0.000000
      0.00000      0.00000      1.76890        -0.000000     -0.000000      0.000000
      0.88445      0.88445      2.65334        -0.000000      0.000000     -0.000000
      0.00000      1.76890      0.00000        -0.000000     -0.000000      0.000000
      2.65334      2.65334      2.65334         0.000000      0.000000     -0.000000
      1.76890      0.00000      0.00000        -0.000000      0.000000     -0.000000
      2.65334      0.88445      0.88445         0.000000      0.000000     -0.000000
      1.76890      1.76890      1.76890         0.000000     -0.000000      0.000000
 -----------------------------------------------------------------------------------
    total drift:                                0.000000      0.000000      0.000000


--------------------------------------------------------------------------------------------------------



  FREE ENERGIE OF THE ION-ELECTRON SYSTEM (eV)
  ---------------------------------------------------
  free  energy   TOTEN  =       -72.69490602 eV

  energy  without entropy=      -72.69490602  energy(sigma->0) =      -72.69490602
 


--------------------------------------------------------------------------------------------------------


    POTLOK:  cpu time    0.0285: real time    0.0285


--------------------------------------------------------------------------------------------------------


     LOOP+:  cpu time   59.8625: real time   60.1413
    4ORBIT:  cpu time    0.0000: real time    0.0000
 BZINTS: Fermi energy: 10.248935; 32.000000 electrons
         Band energy:  31.666967;  BLOECHL correction:  0.000000

 total amount of memory used by VASP MPI-rank0    33836. kBytes
=======================================================================

   base      :      30000. kBytes
   nonl-proj :       1166. kBytes
   fftplans  :        345. kBytes
   grid      :        481. kBytes
   one-center:          6. kBytes
   wavefun   :       1838. kBytes
 
  
  
 General timing and accounting informations for this job:
 ========================================================
  
                  Total CPU time used (sec):       62.283
                            User time (sec):       60.175
                          System time (sec):        2.109
                         Elapsed time (sec):       63.001
  
                   Maximum memory used (kb):      189604.
                   Average memory used (kb):           0.
  
                          Minor page faults:        36887
                          Major page faults:           36
                 Voluntary context switches:          793
