   8   8   0   0
  0.6491254E+01  0.3730836E-09  0.3730836E-09  0.3730836E-09  0.2000000E-16
  1.000000000000000E-004
  CAR 
 unknown system                          
     19.85246120    -13.36318335  301      7.90866902      1.00000000
    -13.363  0.0000E+00  0.0000E+00
    -13.252  0.0000E+00  0.0000E+00
    -13.142  0.0000E+00  0.0000E+00
    -13.031  0.0000E+00  0.0000E+00
    -12.920  0.0000E+00  0.0000E+00
    -12.810  0.0000E+00  0.0000E+00
    -12.699  0.0000E+00  0.0000E+00
    -12.588  0.0000E+00  0.0000E+00
    -12.477  0.0000E+00  0.0000E+00
    -12.367  0.0000E+00  0.0000E+00
    -12.256  0.0000E+00  0.0000E+00
    -12.145  0.0000E+00  0.0000E+00
    -12.035  0.0000E+00  0.0000E+00
    -11.924  0.0000E+00  0.0000E+00
    -11.813  0.3781E-01  0.5075E-03
    -11.702  0.1682E+00  0.1483E-01
    -11.592  0.2638E+00  0.3871E-01
    -11.481  0.2983E+00  0.6952E-01
    -11.370  0.3502E+00  0.1054E+00
    -11.260  0.3948E+00  0.1472E+00
    -11.149  0.4266E+00  0.1925E+00
    -11.038  0.4606E+00  0.2416E+00
    -10.927  0.5027E+00  0.2949E+00
    -10.817  0.5285E+00  0.3522E+00
    -10.706  0.5544E+00  0.4121E+00
    -10.595  0.5829E+00  0.4750E+00
    -10.484  0.6142E+00  0.5413E+00
    -10.374  0.6447E+00  0.6110E+00
    -10.263  0.6659E+00  0.6835E+00
    -10.152  0.6883E+00  0.7585E+00
    -10.042  0.7126E+00  0.8361E+00
     -9.931  0.7380E+00  0.9163E+00
     -9.820  0.7653E+00  0.9995E+00
     -9.709  0.7896E+00  0.1086E+01
     -9.599  0.8097E+00  0.1174E+01
     -9.488  0.8297E+00  0.1265E+01
     -9.377  0.8526E+00  0.1358E+01
     -9.267  0.8761E+00  0.1454E+01
     -9.156  0.9007E+00  0.1552E+01
     -9.045  0.9261E+00  0.1653E+01
     -8.934  0.9463E+00  0.1757E+01
     -8.824  0.9671E+00  0.1863E+01
     -8.713  0.9891E+00  0.1971E+01
     -8.602  0.1012E+01  0.2082E+01
     -8.492  0.1035E+01  0.2195E+01
     -8.381  0.1082E+01  0.2312E+01
     -8.270  0.1137E+01  0.2435E+01
     -8.159  0.1182E+01  0.2563E+01
     -8.049  0.1219E+01  0.2697E+01
     -7.938  0.1213E+01  0.2832E+01
     -7.827  0.1181E+01  0.2964E+01
     -7.717  0.1171E+01  0.3094E+01
     -7.606  0.1206E+01  0.3226E+01
     -7.495  0.1225E+01  0.3360E+01
     -7.384  0.1241E+01  0.3497E+01
     -7.274  0.1295E+01  0.3637E+01
     -7.163  0.1385E+01  0.3785E+01
     -7.052  0.1452E+01  0.3940E+01
     -6.941  0.1634E+01  0.4111E+01
     -6.831  0.1796E+01  0.4300E+01
     -6.720  0.1880E+01  0.4503E+01
     -6.609  0.1738E+01  0.4695E+01
     -6.499  0.1767E+01  0.4889E+01
     -6.388  0.1596E+01  0.5075E+01
     -6.277  0.1566E+01  0.5250E+01
     -6.166  0.1618E+01  0.5422E+01
     -6.056  0.1568E+01  0.5604E+01
     -5.945  0.1473E+01  0.5769E+01
     -5.834  0.1487E+01  0.5932E+01
     -5.724  0.1367E+01  0.6089E+01
     -5.613  0.1349E+01  0.6239E+01
     -5.502  0.1333E+01  0.6387E+01
     -5.391  0.1272E+01  0.6536E+01
     -5.281  0.1187E+01  0.6672E+01
     -5.170  0.1127E+01  0.6800E+01
     -5.059  0.1159E+01  0.6929E+01
     -4.949  0.1099E+01  0.7059E+01
     -4.838  0.1088E+01  0.7181E+01
     -4.727  0.1111E+01  0.7303E+01
     -4.616  0.1057E+01  0.7425E+01
     -4.506  0.9393E+00  0.7534E+01
     -4.395  0.8302E+00  0.7633E+01
     -4.284  0.7381E+00  0.7719E+01
     -4.174  0.6372E+00  0.7795E+01
     -4.063  0.5396E+00  0.7860E+01
     -3.952  0.1058E+01  0.7920E+01
     -3.841  0.6634E+00  0.8004E+01
     -3.731  0.7353E+00  0.8078E+01
     -3.620  0.7300E+00  0.8159E+01
     -3.509  0.8341E+00  0.8245E+01
     -3.398  0.1103E+01  0.8351E+01
     -3.288  0.1254E+01  0.8481E+01
     -3.177  0.1406E+01  0.8626E+01
     -3.066  0.1632E+01  0.8794E+01
     -2.956  0.1984E+01  0.8995E+01
     -2.845  0.2452E+01  0.9238E+01
     -2.734  0.3715E+01  0.9558E+01
     -2.623  0.3525E+01  0.1001E+02
     -2.513  0.2535E+01  0.1032E+02
     -2.402  0.2193E+01  0.1058E+02
     -2.291  0.1968E+01  0.1081E+02
     -2.181  0.1821E+01  0.1102E+02
     -2.070  0.1704E+01  0.1122E+02
     -1.959  0.1611E+01  0.1140E+02
     -1.848  0.1572E+01  0.1158E+02
     -1.738  0.1527E+01  0.1175E+02
     -1.627  0.1512E+01  0.1191E+02
     -1.516  0.1527E+01  0.1208E+02
     -1.406  0.1269E+01  0.1223E+02
     -1.295  0.1216E+01  0.1237E+02
     -1.184  0.1188E+01  0.1250E+02
     -1.073  0.1160E+01  0.1263E+02
     -0.963  0.1130E+01  0.1276E+02
     -0.852  0.1079E+01  0.1288E+02
     -0.741  0.1029E+01  0.1300E+02
     -0.631  0.1005E+01  0.1311E+02
     -0.520  0.1042E+01  0.1322E+02
     -0.409  0.1073E+01  0.1334E+02
     -0.298  0.1150E+01  0.1346E+02
     -0.188  0.1302E+01  0.1360E+02
     -0.077  0.1507E+01  0.1375E+02
      0.034  0.1666E+01  0.1392E+02
      0.145  0.2075E+01  0.1413E+02
      0.255  0.2752E+01  0.1439E+02
      0.366  0.2724E+01  0.1469E+02
      0.477  0.3089E+01  0.1501E+02
      0.587  0.2240E+01  0.1532E+02
      0.698  0.1407E+01  0.1550E+02
      0.809  0.1211E+01  0.1564E+02
      0.920  0.2038E+01  0.1582E+02
      1.030  0.2429E+01  0.1607E+02
      1.141  0.2357E+01  0.1634E+02
      1.252  0.2485E+01  0.1661E+02
      1.362  0.2522E+01  0.1689E+02
      1.473  0.2554E+01  0.1717E+02
      1.584  0.2569E+01  0.1745E+02
      1.695  0.2487E+01  0.1773E+02
      1.805  0.2727E+01  0.1802E+02
      1.916  0.3069E+01  0.1833E+02
      2.027  0.3424E+01  0.1869E+02
      2.137  0.3246E+01  0.1909E+02
      2.248  0.2500E+01  0.1941E+02
      2.359  0.2406E+01  0.1968E+02
      2.470  0.3153E+01  0.1999E+02
      2.580  0.3150E+01  0.2034E+02
      2.691  0.3647E+01  0.2071E+02
      2.802  0.4703E+01  0.2119E+02
      2.912  0.3875E+01  0.2167E+02
      3.023  0.3277E+01  0.2207E+02
      3.134  0.2834E+01  0.2241E+02
      3.245  0.2786E+01  0.2271E+02
      3.355  0.3651E+01  0.2304E+02
      3.466  0.3001E+01  0.2344E+02
      3.577  0.3328E+01  0.2378E+02
      3.688  0.3275E+01  0.2415E+02
      3.798  0.3238E+01  0.2451E+02
      3.909  0.3320E+01  0.2488E+02
      4.020  0.3460E+01  0.2525E+02
      4.130  0.3450E+01  0.2564E+02
      4.241  0.2916E+01  0.2599E+02
      4.352  0.2699E+01  0.2630E+02
      4.463  0.2641E+01  0.2659E+02
      4.573  0.2726E+01  0.2689E+02
      4.684  0.3049E+01  0.2721E+02
      4.795  0.3197E+01  0.2756E+02
      4.905  0.3128E+01  0.2791E+02
      5.016  0.3025E+01  0.2825E+02
      5.127  0.2815E+01  0.2858E+02
      5.238  0.3001E+01  0.2889E+02
      5.348  0.2790E+01  0.2918E+02
      5.459  0.2994E+01  0.2956E+02
      5.570  0.2074E+01  0.2982E+02
      5.680  0.1882E+01  0.3004E+02
      5.791  0.1757E+01  0.3024E+02
      5.902  0.1581E+01  0.3043E+02
      6.013  0.1481E+01  0.3060E+02
      6.123  0.1391E+01  0.3075E+02
      6.234  0.1312E+01  0.3090E+02
      6.345  0.1174E+01  0.3104E+02
      6.455  0.1054E+01  0.3116E+02
      6.566  0.9927E+00  0.3128E+02
      6.677  0.9264E+00  0.3138E+02
      6.788  0.8613E+00  0.3148E+02
      6.898  0.7765E+00  0.3157E+02
      7.009  0.6970E+00  0.3165E+02
      7.120  0.6173E+00  0.3173E+02
      7.231  0.5835E+00  0.3180E+02
      7.341  0.4439E+00  0.3185E+02
      7.452  0.4027E+00  0.3190E+02
      7.563  0.4346E+00  0.3194E+02
      7.673  0.1980E+00  0.3198E+02
      7.784  0.1494E+00  0.3200E+02
      7.895  0.0000E+00  0.3200E+02
      8.006  0.0000E+00  0.3200E+02
      8.116  0.0000E+00  0.3200E+02
      8.227  0.0000E+00  0.3200E+02
      8.338  0.0000E+00  0.3200E+02
      8.448  0.0000E+00  0.3200E+02
      8.559  0.0000E+00  0.3200E+02
      8.670  0.0000E+00  0.3200E+02
      8.781  0.0000E+00  0.3200E+02
      8.891  0.0000E+00  0.3200E+02
      9.002  0.0000E+00  0.3200E+02
      9.113  0.0000E+00  0.3200E+02
      9.223  0.0000E+00  0.3200E+02
      9.334  0.0000E+00  0.3200E+02
      9.445  0.0000E+00  0.3200E+02
      9.556  0.0000E+00  0.3200E+02
      9.666  0.0000E+00  0.3200E+02
      9.777  0.0000E+00  0.3200E+02
      9.888  0.0000E+00  0.3200E+02
      9.998  0.0000E+00  0.3200E+02
     10.109  0.0000E+00  0.3200E+02
     10.220  0.0000E+00  0.3200E+02
     10.331  0.0000E+00  0.3200E+02
     10.441  0.0000E+00  0.3200E+02
     10.552  0.0000E+00  0.3200E+02
     10.663  0.0000E+00  0.3200E+02
     10.774  0.0000E+00  0.3200E+02
     10.884  0.0000E+00  0.3200E+02
     10.995  0.0000E+00  0.3200E+02
     11.106  0.0000E+00  0.3200E+02
     11.216  0.0000E+00  0.3200E+02
     11.327  0.0000E+00  0.3200E+02
     11.438  0.0000E+00  0.3200E+02
     11.549  0.0000E+00  0.3200E+02
     11.659  0.0000E+00  0.3200E+02
     11.770  0.1045E-01  0.3200E+02
     11.881  0.1430E+00  0.3201E+02
     11.991  0.3544E+00  0.3203E+02
     12.102  0.5667E+00  0.3209E+02
     12.213  0.6575E+00  0.3216E+02
     12.324  0.6647E+00  0.3223E+02
     12.434  0.8247E+00  0.3231E+02
     12.545  0.1011E+01  0.3241E+02
     12.656  0.1116E+01  0.3253E+02
     12.766  0.1837E+01  0.3269E+02
     12.877  0.1592E+01  0.3287E+02
     12.988  0.1559E+01  0.3304E+02
     13.099  0.1629E+01  0.3322E+02
     13.209  0.1702E+01  0.3341E+02
     13.320  0.1863E+01  0.3360E+02
     13.431  0.2061E+01  0.3382E+02
     13.541  0.2195E+01  0.3405E+02
     13.652  0.2394E+01  0.3430E+02
     13.763  0.2602E+01  0.3458E+02
     13.874  0.2322E+01  0.3485E+02
     13.984  0.2303E+01  0.3511E+02
     14.095  0.2347E+01  0.3537E+02
     14.206  0.2477E+01  0.3563E+02
     14.317  0.2653E+01  0.3592E+02
     14.427  0.2892E+01  0.3623E+02
     14.538  0.3141E+01  0.3656E+02
     14.649  0.3278E+01  0.3692E+02
     14.759  0.3343E+01  0.3728E+02
     14.870  0.3650E+01  0.3767E+02
     14.981  0.4152E+01  0.3810E+02
     15.092  0.4796E+01  0.3861E+02
     15.202  0.5271E+01  0.3917E+02
     15.313  0.5067E+01  0.3977E+02
     15.424  0.4921E+01  0.4032E+02
     15.534  0.4680E+01  0.4085E+02
     15.645  0.3970E+01  0.4132E+02
     15.756  0.4296E+01  0.4183E+02
     15.867  0.4290E+01  0.4230E+02
     15.977  0.4255E+01  0.4278E+02
     16.088  0.4285E+01  0.4324E+02
     16.199  0.4088E+01  0.4371E+02
     16.309  0.3301E+01  0.4413E+02
     16.420  0.2892E+01  0.4447E+02
     16.531  0.2762E+01  0.4478E+02
     16.642  0.2737E+01  0.4508E+02
     16.752  0.2951E+01  0.4540E+02
     16.863  0.3041E+01  0.4573E+02
     16.974  0.2972E+01  0.4606E+02
     17.084  0.3123E+01  0.4640E+02
     17.195  0.3081E+01  0.4675E+02
     17.306  0.2742E+01  0.4707E+02
     17.417  0.2340E+01  0.4735E+02
     17.527  0.1576E+01  0.4757E+02
     17.638  0.1122E+01  0.4772E+02
     17.749  0.7772E+00  0.4782E+02
     17.860  0.5216E+00  0.4789E+02
     17.970  0.2865E+00  0.4794E+02
     18.081  0.2127E+00  0.4797E+02
     18.192  0.1287E+00  0.4799E+02
     18.302  0.6397E-01  0.4800E+02
     18.413  0.0000E+00  0.4800E+02
     18.524  0.0000E+00  0.4800E+02
     18.635  0.0000E+00  0.4800E+02
     18.745  0.0000E+00  0.4800E+02
     18.856  0.0000E+00  0.4800E+02
     18.967  0.0000E+00  0.4800E+02
     19.077  0.0000E+00  0.4800E+02
     19.188  0.0000E+00  0.4800E+02
     19.299  0.0000E+00  0.4800E+02
     19.410  0.0000E+00  0.4800E+02
     19.520  0.0000E+00  0.4800E+02
     19.631  0.0000E+00  0.4800E+02
     19.742  0.0000E+00  0.4800E+02
     19.852  0.0000E+00  0.4800E+02
