       N       E                     dE             d eps       ncg     rms          rms(c)
DAV:   1     0.585373984416E+02    0.58537E+02   -0.14149E+04  4032   0.104E+03
DAV:   2    -0.688457550307E+02   -0.12738E+03   -0.12038E+03  5584   0.214E+02
DAV:   3    -0.733460515330E+02   -0.45003E+01   -0.44759E+01  5208   0.381E+01
DAV:   4    -0.733986298746E+02   -0.52578E-01   -0.52517E-01  5360   0.441E+00
DAV:   5    -0.733997359835E+02   -0.11061E-02   -0.11055E-02  5128   0.597E-01    0.806E+00
DAV:   6    -0.721930570779E+02    0.12067E+01   -0.82623E-01  4744   0.495E+00    0.453E+00
DAV:   7    -0.717840216987E+02    0.40904E+00   -0.97335E-01  4832   0.553E+00    0.648E-01
DAV:   8    -0.717898951074E+02   -0.58734E-02   -0.20479E-02  5224   0.811E-01    0.729E-02
DAV:   9    -0.717901294640E+02   -0.23436E-03   -0.43218E-04  5000   0.135E-01    0.264E-02
DAV:  10    -0.717901873564E+02   -0.57892E-04   -0.58589E-05  5168   0.552E-02    0.253E-03
DAV:  11    -0.717901876564E+02   -0.30000E-06   -0.11530E-06  3840   0.704E-03
   1 F= -.71790188E+02 E0= -.71790188E+02  d E =0.000000E+00
