 vasp.5.4.4.18Apr17-6-g9f103f2a35 (build Mar 12 2022 03:36:41) complex          
  
 executed on IFC19.0.3.199_CrayMP date 2022.12.01  11:05:14
 running on   16 total cores
 distrk:  each k-point on   16 cores,    1 groups
 distr:  one band on NCORES_PER_BAND=   4 cores,    4 groups


--------------------------------------------------------------------------------------------------------


 INCAR:
 POTCAR:   PAW_PBE C 08Apr2002                    
 POTCAR:   PAW_PBE C 08Apr2002                    
   VRHFIN =C: s2p2                                                              
   LEXCH  = PE                                                                  
   EATOM  =   147.1560 eV,   10.8157 Ry                                         
                                                                                
   TITEL  = PAW_PBE C 08Apr2002                                                 
   LULTRA =        F    use ultrasoft PP ?                                      
   IUNSCR =        0    unscreen: 0-lin 1-nonlin 2-no                           
   RPACOR =     .000    partial core radius                                     
   POMASS =   12.011; ZVAL   =    4.000    mass and valenz                      
   RCORE  =    1.500    outmost cutoff radius                                   
   RWIGS  =    1.630; RWIGS  =     .863    wigner-seitz radius (au A)           
   ENMAX  =  400.000; ENMIN  =  300.000 eV                                      
   ICORE  =        2    local potential                                         
   LCOR   =        T    correct aug charges                                     
   LPAW   =        T    paw PP                                                  
   EAUG   =  644.873                                                            
   DEXC   =     .000                                                            
   RMAX   =    2.266    core radius for proj-oper                               
   RAUG   =    1.300    factor for augmentation sphere                          
   RDEP   =    1.501    radius for radial grids                                 
   RDEPT  =    1.300    core radius for aug-charge                              
   QCUT   =   -5.516; QGAM   =   11.032    optimization parameters              
                                                                                
   Description                                                                  
     l     E      TYP  RCUT    TYP  RCUT                                        
     0   .000     23  1.200                                                     
     0   .000     23  1.200                                                     
     1   .000     23  1.500                                                     
     1  2.500     23  1.500                                                     
     2   .000      7  1.500                                                     
  local pseudopotential read in
  atomic valenz-charges read in
  non local Contribution for L=           0  read in
    real space projection operators read in
  non local Contribution for L=           0  read in
    real space projection operators read in
  non local Contribution for L=           1  read in
    real space projection operators read in
  non local Contribution for L=           1  read in
    real space projection operators read in
    PAW grid and wavefunctions read in
 
   number of l-projection  operators is LMAX  =           4
   number of lm-projection operators is LMMAX =           8
 
 PAW_PBE C 08Apr2002                    :
 energy of atom  1       EATOM= -147.1560
 kinetic energy error for atom=    0.0288 (will be added to EATOM!!)
 
 
 POSCAR: C8                                      
  positions in direct lattice
  No initial velocities read in
 exchange correlation table for  LEXCH =        8
   RHO(1)=    0.500       N(1)  =     2000
   RHO(2)=  100.500       N(2)  =     4000
 


--------------------------------------------------------------------------------------------------------


 ion  position               nearest neighbor table
   1  0.250  0.750  0.250-   2 1.62   4 1.62   6 1.62   8 1.62
   2  0.000  0.000  0.500-   1 1.62   3 1.62   5 1.62   7 1.62
   3  0.250  0.250  0.750-   2 1.62   4 1.62   6 1.62   8 1.62
   4  0.000  0.500  0.000-   1 1.62   3 1.62   5 1.62   7 1.62
   5  0.750  0.750  0.750-   2 1.62   4 1.62   6 1.62   8 1.62
   6  0.500  0.000  0.000-   1 1.62   3 1.62   5 1.62   7 1.62
   7  0.750  0.250  0.250-   2 1.62   4 1.62   6 1.62   8 1.62
   8  0.500  0.500  0.500-   1 1.62   3 1.62   5 1.62   7 1.62
 
  LATTYP: Found a simple cubic cell.
 ALAT       =     3.7308363967
  
  Lattice vectors:
  
 A1 = (   3.7308363967,   0.0000000000,   0.0000000000)
 A2 = (   0.0000000000,   3.7308363967,   0.0000000000)
 A3 = (   0.0000000000,   0.0000000000,   3.7308363967)


Analysis of symmetry for initial positions (statically):
=====================================================================
 Subroutine PRICEL returns following result:
 
  LATTYP: Found a face centered cubic cell.
 ALAT       =     3.7308363967
  
  Lattice vectors:
  
 A1 = (   1.8654181984,   1.8654181984,  -0.0000000000)
 A2 = (   1.8654181984,   0.0000000000,  -1.8654181984)
 A3 = (   0.0000000000,   1.8654181984,  -1.8654181984)
 
   4 primitive cells build up your supercell.
 

 Routine SETGRP: Setting up the symmetry group for a 
 simple cubic supercell.


 Subroutine GETGRP returns: Found 48 space group operations
 (whereof 24 operations were pure point group operations)
 out of a pool of 48 trial point group operations.


The static configuration has the point symmetry T_d .
 The point group associated with its full space group is O_h .


Analysis of symmetry for dynamics (positions and initial velocities):
=====================================================================
 Subroutine PRICEL returns following result:
 
  LATTYP: Found a face centered cubic cell.
 ALAT       =     3.7308363967
  
  Lattice vectors:
  
 A1 = (   1.8654181984,   1.8654181984,  -0.0000000000)
 A2 = (   1.8654181984,   0.0000000000,  -1.8654181984)
 A3 = (   0.0000000000,   1.8654181984,  -1.8654181984)
 
   4 primitive cells build up your supercell.
 

 Routine SETGRP: Setting up the symmetry group for a 
 simple cubic supercell.


 Subroutine GETGRP returns: Found 48 space group operations
 (whereof 24 operations were pure point group operations)
 out of a pool of 48 trial point group operations.


The dynamic configuration has the point symmetry T_d .
 The point group associated with its full space group is O_h .


 Subroutine INISYM returns: Found 48 space group operations
 (whereof 24 operations are pure point group operations),
 and found     4 'primitive' translations

 
 
 KPOINTS: kpt_density=1000                        

Automatic generation of k-mesh.
Space group operators:
 irot       det(A)        alpha          n_x          n_y          n_z        tau_x        tau_y        tau_z
    1     1.000000     0.000000     1.000000     0.000000     0.000000     0.000000     0.000000     0.000000
    2     1.000000   120.000000    -0.577350    -0.577350    -0.577350     0.000000     0.000000     0.000000
    3     1.000000   120.000000     0.577350     0.577350     0.577350     0.000000     0.000000     0.000000
    4    -1.000000    90.000000     0.000000     0.000000    -1.000000     0.000000     0.000000     0.000000
    5    -1.000000   180.000000     0.000000     0.707107     0.707107     0.000000     0.000000     0.000000
    6    -1.000000    90.000000     0.000000     1.000000     0.000000     0.000000     0.000000     0.000000
    7     1.000000   180.000000     0.000000     0.000000     1.000000     0.000000     0.000000     0.000000
    8     1.000000   120.000000    -0.577350     0.577350     0.577350     0.000000     0.000000     0.000000
    9     1.000000   120.000000    -0.577350     0.577350    -0.577350     0.000000     0.000000     0.000000
   10    -1.000000    90.000000     0.000000     0.000000     1.000000     0.000000     0.000000     0.000000
   11    -1.000000    90.000000    -1.000000     0.000000     0.000000     0.000000     0.000000     0.000000
   12    -1.000000   180.000000     0.707107     0.000000     0.707107     0.000000     0.000000     0.000000
   13     1.000000   120.000000     0.577350    -0.577350     0.577350     0.000000     0.000000     0.000000
   14     1.000000   120.000000    -0.577350    -0.577350     0.577350     0.000000     0.000000     0.000000
   15     1.000000   180.000000     1.000000     0.000000     0.000000     0.000000     0.000000     0.000000
   16    -1.000000    90.000000     0.000000    -1.000000     0.000000     0.000000     0.000000     0.000000
   17    -1.000000   180.000000     0.707107     0.707107     0.000000     0.000000     0.000000     0.000000
   18    -1.000000    90.000000     1.000000     0.000000     0.000000     0.000000     0.000000     0.000000
   19     1.000000   120.000000     0.577350    -0.577350    -0.577350     0.000000     0.000000     0.000000
   20     1.000000   180.000000     0.000000     1.000000     0.000000     0.000000     0.000000     0.000000
   21     1.000000   120.000000     0.577350     0.577350    -0.577350     0.000000     0.000000     0.000000
   22    -1.000000   180.000000     0.000000    -0.707107     0.707107     0.000000     0.000000     0.000000
   23    -1.000000   180.000000     0.707107    -0.707107     0.000000     0.000000     0.000000     0.000000
   24    -1.000000   180.000000     0.707107     0.000000    -0.707107     0.000000     0.000000     0.000000
   25    -1.000000     0.000000     1.000000     0.000000     0.000000     0.750000     0.750000    -0.750000
   26    -1.000000   120.000000    -0.577350    -0.577350    -0.577350     0.750000     0.750000    -0.750000
   27    -1.000000   120.000000     0.577350     0.577350     0.577350     0.750000     0.750000    -0.750000
   28     1.000000    90.000000     0.000000     0.000000    -1.000000     0.750000     0.750000    -0.750000
   29     1.000000   180.000000     0.000000     0.707107     0.707107     0.750000     0.750000    -0.750000
   30     1.000000    90.000000     0.000000     1.000000     0.000000     0.750000     0.750000    -0.750000
   31    -1.000000   180.000000     0.000000     0.000000     1.000000     0.750000     0.750000    -0.750000
   32    -1.000000   120.000000    -0.577350     0.577350     0.577350     0.750000     0.750000    -0.750000
   33    -1.000000   120.000000    -0.577350     0.577350    -0.577350     0.750000     0.750000    -0.750000
   34     1.000000    90.000000     0.000000     0.000000     1.000000     0.750000     0.750000    -0.750000
   35     1.000000    90.000000    -1.000000     0.000000     0.000000     0.750000     0.750000    -0.750000
   36     1.000000   180.000000     0.707107     0.000000     0.707107     0.750000     0.750000    -0.750000
   37    -1.000000   120.000000     0.577350    -0.577350     0.577350     0.750000     0.750000    -0.750000
   38    -1.000000   120.000000    -0.577350    -0.577350     0.577350     0.750000     0.750000    -0.750000
   39    -1.000000   180.000000     1.000000     0.000000     0.000000     0.750000     0.750000    -0.750000
   40     1.000000    90.000000     0.000000    -1.000000     0.000000     0.750000     0.750000    -0.750000
   41     1.000000   180.000000     0.707107     0.707107     0.000000     0.750000     0.750000    -0.750000
   42     1.000000    90.000000     1.000000     0.000000     0.000000     0.750000     0.750000    -0.750000
   43    -1.000000   120.000000     0.577350    -0.577350    -0.577350     0.750000     0.750000    -0.750000
   44    -1.000000   180.000000     0.000000     1.000000     0.000000     0.750000     0.750000    -0.750000
   45    -1.000000   120.000000     0.577350     0.577350    -0.577350     0.750000     0.750000    -0.750000
   46     1.000000   180.000000     0.000000    -0.707107     0.707107     0.750000     0.750000    -0.750000
   47     1.000000   180.000000     0.707107    -0.707107     0.000000     0.750000     0.750000    -0.750000
   48     1.000000   180.000000     0.707107     0.000000    -0.707107     0.750000     0.750000    -0.750000
 
 Subroutine IBZKPT returns following result:
 ===========================================
 
 Found     84 irreducible k-points:
 
 Following reciprocal coordinates:
            Coordinates               Weight
  0.000000  0.000000  0.000000      1.000000
  0.083333  0.000000  0.000000      6.000000
  0.166667  0.000000  0.000000      6.000000
  0.250000  0.000000  0.000000      6.000000
  0.333333  0.000000  0.000000      6.000000
  0.416667  0.000000  0.000000      6.000000
  0.500000  0.000000  0.000000      3.000000
  0.083333  0.083333  0.000000     12.000000
  0.166667  0.083333  0.000000     24.000000
  0.250000  0.083333  0.000000     24.000000
  0.333333  0.083333  0.000000     24.000000
  0.416667  0.083333  0.000000     24.000000
  0.500000  0.083333  0.000000     12.000000
  0.166667  0.166667  0.000000     12.000000
  0.250000  0.166667  0.000000     24.000000
  0.333333  0.166667  0.000000     24.000000
  0.416667  0.166667  0.000000     24.000000
  0.500000  0.166667  0.000000     12.000000
  0.250000  0.250000  0.000000     12.000000
  0.333333  0.250000  0.000000     24.000000
  0.416667  0.250000  0.000000     24.000000
  0.500000  0.250000  0.000000     12.000000
  0.333333  0.333333  0.000000     12.000000
  0.416667  0.333333  0.000000     24.000000
  0.500000  0.333333  0.000000     12.000000
  0.416667  0.416667  0.000000     12.000000
  0.500000  0.416667  0.000000     12.000000
  0.500000  0.500000  0.000000      3.000000
  0.083333  0.083333  0.083333      8.000000
  0.166667  0.083333  0.083333     24.000000
  0.250000  0.083333  0.083333     24.000000
  0.333333  0.083333  0.083333     24.000000
  0.416667  0.083333  0.083333     24.000000
  0.500000  0.083333  0.083333     12.000000
  0.166667  0.166667  0.083333     24.000000
  0.250000  0.166667  0.083333     48.000000
  0.333333  0.166667  0.083333     48.000000
  0.416667  0.166667  0.083333     48.000000
  0.500000  0.166667  0.083333     24.000000
  0.250000  0.250000  0.083333     24.000000
  0.333333  0.250000  0.083333     48.000000
  0.416667  0.250000  0.083333     48.000000
  0.500000  0.250000  0.083333     24.000000
  0.333333  0.333333  0.083333     24.000000
  0.416667  0.333333  0.083333     48.000000
  0.500000  0.333333  0.083333     24.000000
  0.416667  0.416667  0.083333     24.000000
  0.500000  0.416667  0.083333     24.000000
  0.500000  0.500000  0.083333      6.000000
  0.166667  0.166667  0.166667      8.000000
  0.250000  0.166667  0.166667     24.000000
  0.333333  0.166667  0.166667     24.000000
  0.416667  0.166667  0.166667     24.000000
  0.500000  0.166667  0.166667     12.000000
  0.250000  0.250000  0.166667     24.000000
  0.333333  0.250000  0.166667     48.000000
  0.416667  0.250000  0.166667     48.000000
  0.500000  0.250000  0.166667     24.000000
  0.333333  0.333333  0.166667     24.000000
  0.416667  0.333333  0.166667     48.000000
  0.500000  0.333333  0.166667     24.000000
  0.416667  0.416667  0.166667     24.000000
  0.500000  0.416667  0.166667     24.000000
  0.500000  0.500000  0.166667      6.000000
  0.250000  0.250000  0.250000      8.000000
  0.333333  0.250000  0.250000     24.000000
  0.416667  0.250000  0.250000     24.000000
  0.500000  0.250000  0.250000     12.000000
  0.333333  0.333333  0.250000     24.000000
  0.416667  0.333333  0.250000     48.000000
  0.500000  0.333333  0.250000     24.000000
  0.416667  0.416667  0.250000     24.000000
  0.500000  0.416667  0.250000     24.000000
  0.500000  0.500000  0.250000      6.000000
  0.333333  0.333333  0.333333      8.000000
  0.416667  0.333333  0.333333     24.000000
  0.500000  0.333333  0.333333     12.000000
  0.416667  0.416667  0.333333     24.000000
  0.500000  0.416667  0.333333     24.000000
  0.500000  0.500000  0.333333      6.000000
  0.416667  0.416667  0.416667      8.000000
  0.500000  0.416667  0.416667     12.000000
  0.500000  0.500000  0.416667      6.000000
  0.500000  0.500000  0.500000      1.000000
 
 Following cartesian coordinates:
            Coordinates               Weight
  0.000000  0.000000  0.000000      1.000000
  0.022438  0.000000  0.000000      6.000000
  0.044876  0.000000  0.000000      6.000000
  0.067315  0.000000  0.000000      6.000000
  0.089753  0.000000  0.000000      6.000000
  0.112191  0.000000  0.000000      6.000000
  0.134629  0.000000  0.000000      3.000000
  0.022438  0.022438  0.000000     12.000000
  0.044876  0.022438  0.000000     24.000000
  0.067315  0.022438  0.000000     24.000000
  0.089753  0.022438  0.000000     24.000000
  0.112191  0.022438  0.000000     24.000000
  0.134629  0.022438  0.000000     12.000000
  0.044876  0.044876  0.000000     12.000000
  0.067315  0.044876  0.000000     24.000000
  0.089753  0.044876  0.000000     24.000000
  0.112191  0.044876  0.000000     24.000000
  0.134629  0.044876  0.000000     12.000000
  0.067315  0.067315  0.000000     12.000000
  0.089753  0.067315  0.000000     24.000000
  0.112191  0.067315  0.000000     24.000000
  0.134629  0.067315  0.000000     12.000000
  0.089753  0.089753  0.000000     12.000000
  0.112191  0.089753  0.000000     24.000000
  0.134629  0.089753  0.000000     12.000000
  0.112191  0.112191  0.000000     12.000000
  0.134629  0.112191  0.000000     12.000000
  0.134629  0.134629  0.000000      3.000000
  0.022438  0.022438  0.022438      8.000000
  0.044876  0.022438  0.022438     24.000000
  0.067315  0.022438  0.022438     24.000000
  0.089753  0.022438  0.022438     24.000000
  0.112191  0.022438  0.022438     24.000000
  0.134629  0.022438  0.022438     12.000000
  0.044876  0.044876  0.022438     24.000000
  0.067315  0.044876  0.022438     48.000000
  0.089753  0.044876  0.022438     48.000000
  0.112191  0.044876  0.022438     48.000000
  0.134629  0.044876  0.022438     24.000000
  0.067315  0.067315  0.022438     24.000000
  0.089753  0.067315  0.022438     48.000000
  0.112191  0.067315  0.022438     48.000000
  0.134629  0.067315  0.022438     24.000000
  0.089753  0.089753  0.022438     24.000000
  0.112191  0.089753  0.022438     48.000000
  0.134629  0.089753  0.022438     24.000000
  0.112191  0.112191  0.022438     24.000000
  0.134629  0.112191  0.022438     24.000000
  0.134629  0.134629  0.022438      6.000000
  0.044876  0.044876  0.044876      8.000000
  0.067315  0.044876  0.044876     24.000000
  0.089753  0.044876  0.044876     24.000000
  0.112191  0.044876  0.044876     24.000000
  0.134629  0.044876  0.044876     12.000000
  0.067315  0.067315  0.044876     24.000000
  0.089753  0.067315  0.044876     48.000000
  0.112191  0.067315  0.044876     48.000000
  0.134629  0.067315  0.044876     24.000000
  0.089753  0.089753  0.044876     24.000000
  0.112191  0.089753  0.044876     48.000000
  0.134629  0.089753  0.044876     24.000000
  0.112191  0.112191  0.044876     24.000000
  0.134629  0.112191  0.044876     24.000000
  0.134629  0.134629  0.044876      6.000000
  0.067315  0.067315  0.067315      8.000000
  0.089753  0.067315  0.067315     24.000000
  0.112191  0.067315  0.067315     24.000000
  0.134629  0.067315  0.067315     12.000000
  0.089753  0.089753  0.067315     24.000000
  0.112191  0.089753  0.067315     48.000000
  0.134629  0.089753  0.067315     24.000000
  0.112191  0.112191  0.067315     24.000000
  0.134629  0.112191  0.067315     24.000000
  0.134629  0.134629  0.067315      6.000000
  0.089753  0.089753  0.089753      8.000000
  0.112191  0.089753  0.089753     24.000000
  0.134629  0.089753  0.089753     12.000000
  0.112191  0.112191  0.089753     24.000000
  0.134629  0.112191  0.089753     24.000000
  0.134629  0.134629  0.089753      6.000000
  0.112191  0.112191  0.112191      8.000000
  0.134629  0.112191  0.112191     12.000000
  0.134629  0.134629  0.112191      6.000000
  0.134629  0.134629  0.134629      1.000000
 
 TETIRR: Found    854 inequivalent tetrahedra from    10368


--------------------------------------------------------------------------------------------------------




 Dimension of arrays:
   k-points           NKPTS =     84   k-points in BZ     NKDIM =     84   number of bands    NBANDS=     24
   number of dos      NEDOS =    301   number of ions     NIONS =      8
   non local maximal  LDIM  =      4   non local SUM 2l+1 LMDIM =      8
   total plane-waves  NPLWV =  13824
   max r-space proj   IRMAX =      1   max aug-charges    IRDMAX=   3341
   dimension x,y,z NGX =    24 NGY =   24 NGZ =   24
   dimension x,y,z NGXF=    48 NGYF=   48 NGZF=   48
   support grid    NGXF=    48 NGYF=   48 NGZF=   48
   ions per type =               8
   NGX,Y,Z   is equivalent  to a cutoff of  10.69, 10.69, 10.69 a.u.
   NGXF,Y,Z  is equivalent  to a cutoff of  21.39, 21.39, 21.39 a.u.

 SYSTEM =  unknown system                          
 POSCAR =  C8                                      

 Startparameter for this run:
   NWRITE =      2    write-flag & timer
   PREC   = accura    normal or accurate (medium, high low for compatibility)
   ISTART =      0    job   : 0-new  1-cont  2-samecut
   ICHARG =      2    charge: 1-file 2-atom 10-const
   ISPIN  =      1    spin polarized calculation?
   LNONCOLLINEAR =      F non collinear calculations
   LSORBIT =      F    spin-orbit coupling
   INIWAV =      1    electr: 0-lowe 1-rand  2-diag
   LASPH  =      F    aspherical Exc in radial PAW
   METAGGA=      F    non-selfconsistent MetaGGA calc.

 Electronic Relaxation 1
   ENCUT  =  400.0 eV  29.40 Ry    5.42 a.u.   6.08  6.08  6.08*2*pi/ulx,y,z
   ENINI  =  400.0     initial cutoff
   ENAUG  =  644.9 eV  augmentation charge cutoff
   NELM   =     60;   NELMIN=  2; NELMDL= -5     # of ELM steps 
   EDIFF  = 0.1E-05   stopping-criterion for ELM
   LREAL  =      F    real-space projection
   NLSPLINE    = F    spline interpolate recip. space projectors
   LCOMPAT=      F    compatible to vasp.4.4
   GGA_COMPAT  = T    GGA compatible to vasp.4.4-vasp.4.6
   LMAXPAW     = -100 max onsite density
   LMAXMIX     =    2 max onsite mixed and CHGCAR
   VOSKOWN=      0    Vosko Wilk Nusair interpolation
   ROPT   =    0.00000
 Ionic relaxation
   EDIFFG = 0.1E-04   stopping-criterion for IOM
   NSW    =      0    number of steps for IOM
   NBLOCK =      1;   KBLOCK =      1    inner block; outer block 
   IBRION =     -1    ionic relax: 0-MD 1-quasi-New 2-CG
   NFREE  =      0    steps in history (QN), initial steepest desc. (CG)
   ISIF   =      2    stress and relaxation
   IWAVPR =     10    prediction:  0-non 1-charg 2-wave 3-comb
   ISYM   =      2    0-nonsym 1-usesym 2-fastsym
   LCORR  =      T    Harris-Foulkes like correction to forces

   POTIM  = 0.0200    time-step for ionic-motion
   TEIN   =    0.0    initial temperature
   TEBEG  =    0.0;   TEEND  =   0.0 temperature during run
   SMASS  =  -3.00    Nose mass-parameter (am)
   estimated Nose-frequenzy (Omega)   =  0.10E-29 period in steps =****** mass=  -0.318E-27a.u.
   SCALEE = 1.0000    scale energy and forces
   NPACO  =    256;   APACO  = 16.0  distance and # of slots for P.C.
   PSTRESS=    0.0 pullay stress

  Mass of Ions in am
   POMASS =  12.01
  Ionic Valenz
   ZVAL   =   4.00
  Atomic Wigner-Seitz radii
   RWIGS  =  -1.00
  virtual crystal weights 
   VCA    =   1.00
   NELECT =      32.0000    total number of electrons
   NUPDOWN=      -1.0000    fix difference up-down

 DOS related values:
   EMIN   =  10.00;   EMAX   =-10.00  energy-range for DOS
   EFERMI =   0.00
   ISMEAR =    -5;   SIGMA  =   0.06  broadening in eV -4-tet -1-fermi 0-gaus

 Electronic relaxation 2 (details)
   IALGO  =     38    algorithm
   LDIAG  =      T    sub-space diagonalisation (order eigenvalues)
   LSUBROT=      F    optimize rotation matrix (better conditioning)
   TURBO    =      0    0=normal 1=particle mesh
   IRESTART =      0    0=no restart 2=restart with 2 vectors
   NREBOOT  =      0    no. of reboots
   NMIN     =      0    reboot dimension
   EREF     =   0.00    reference energy to select bands
   IMIX   =      4    mixing-type and parameters
     AMIX     =   0.40;   BMIX     =  1.00
     AMIX_MAG =   1.60;   BMIX_MAG =  1.00
     AMIN     =   0.10
     WC   =   100.;   INIMIX=   1;  MIXPRE=   1;  MAXMIX= -45

 Intra band minimization:
   WEIMIN = 0.0000     energy-eigenvalue tresh-hold
   EBREAK =  0.10E-07  absolut break condition
   DEPER  =   0.30     relativ break condition  

   TIME   =   0.40     timestep for ELM

  volume/ion in A,a.u.               =       6.49        43.81
  Fermi-wavevector in a.u.,A,eV,Ry     =   1.393110  2.632595 26.405566  1.940754
  Thomas-Fermi vector in A             =   2.516787
 
 Write flags
   LWAVE        =      F    write WAVECAR
   LDOWNSAMPLE  =      F    k-point downsampling of WAVECAR
   LCHARG       =      F    write CHGCAR
   LVTOT        =      F    write LOCPOT, total local potential
   LVHAR        =      F    write LOCPOT, Hartree potential only
   LELF         =      F    write electronic localiz. function (ELF)
   LORBIT       =      0    0 simple, 1 ext, 2 COOP (PROOUT), +10 PAW based schemes


 Dipole corrections
   LMONO  =      F    monopole corrections only (constant potential shift)
   LDIPOL =      F    correct potential (dipole corrections)
   IDIPOL =      0    1-x, 2-y, 3-z, 4-all directions 
   EPSILON=  1.0000000 bulk dielectric constant

 Exchange correlation treatment:
   GGA     =    --    GGA type
   LEXCH   =     8    internal setting for exchange type
   VOSKOWN=      0    Vosko Wilk Nusair interpolation
   LHFCALC =     F    Hartree Fock is set to
   LHFONE  =     F    Hartree Fock one center treatment
   AEXX    =    0.0000 exact exchange contribution

 Linear response parameters
   LEPSILON=     F    determine dielectric tensor
   LRPA    =     F    only Hartree local field effects (RPA)
   LNABLA  =     F    use nabla operator in PAW spheres
   LVEL    =     F    velocity operator in full k-point grid
   LINTERFAST=   F  fast interpolation
   KINTER  =     0    interpolate to denser k-point grid
   CSHIFT  =0.1000    complex shift for real part using Kramers Kronig
   OMEGAMAX=  -1.0    maximum frequency
   DEG_THRESHOLD= 0.2000000E-02 threshold for treating states as degnerate
   RTIME   =   -0.100 relaxation time in fs
  (WPLASMAI=    0.000 imaginary part of plasma frequency in eV, 0.658/RTIME)
   DFIELD  = 0.0000000 0.0000000 0.0000000 field for delta impulse in time
 
 Orbital magnetization related:
   ORBITALMAG=     F  switch on orbital magnetization
   LCHIMAG   =     F  perturbation theory with respect to B field
   DQ        =  0.001000  dq finite difference perturbation B field
   LLRAUG    =     F  two centre corrections for induced B field



--------------------------------------------------------------------------------------------------------


 Static calculation
 charge density and potential will be updated during run
 non-spin polarized calculation
 Variant of blocked Davidson
 Davidson routine will perform the subspace rotation
 perform sub-space diagonalisation
    after iterative eigenvector-optimisation
 modified Broyden-mixing scheme, WC =      100.0
 initial mixing is a Kerker type mixing with AMIX =  0.4000 and BMIX =      1.0000
 Hartree-type preconditioning will be used
 using additional bands            8
 reciprocal scheme for non local part
 calculate Harris-corrections to forces 
   (improved forces if not selfconsistent)
 use gradient corrections 
 use of overlap-Matrix (Vanderbilt PP)
 Fermi weights with tetrahedron method with Bloechl corrections


--------------------------------------------------------------------------------------------------------


  energy-cutoff  :      400.00
  volume of cell :       51.93
      direct lattice vectors                 reciprocal lattice vectors
     3.730836397  0.000000000  0.000000000     0.268036412  0.000000000  0.000000000
     0.000000000  3.730836397  0.000000000     0.000000000  0.268036412  0.000000000
     0.000000000  0.000000000  3.730836397     0.000000000  0.000000000  0.268036412

  length of vectors
     3.730836397  3.730836397  3.730836397     0.268036412  0.268036412  0.268036412


 
 k-points in units of 2pi/SCALE and weight: kpt_density=1000                        
   0.00000000  0.00000000  0.00000000       0.001
   0.02243818  0.00000000  0.00000000       0.003
   0.04487636  0.00000000  0.00000000       0.003
   0.06731454  0.00000000  0.00000000       0.003
   0.08975272  0.00000000  0.00000000       0.003
   0.11219090  0.00000000  0.00000000       0.003
   0.13462908  0.00000000  0.00000000       0.002
   0.02243818  0.02243818  0.00000000       0.007
   0.04487636  0.02243818  0.00000000       0.014
   0.06731454  0.02243818  0.00000000       0.014
   0.08975272  0.02243818  0.00000000       0.014
   0.11219090  0.02243818  0.00000000       0.014
   0.13462908  0.02243818  0.00000000       0.007
   0.04487636  0.04487636  0.00000000       0.007
   0.06731454  0.04487636  0.00000000       0.014
   0.08975272  0.04487636  0.00000000       0.014
   0.11219090  0.04487636  0.00000000       0.014
   0.13462908  0.04487636  0.00000000       0.007
   0.06731454  0.06731454  0.00000000       0.007
   0.08975272  0.06731454  0.00000000       0.014
   0.11219090  0.06731454  0.00000000       0.014
   0.13462908  0.06731454  0.00000000       0.007
   0.08975272  0.08975272  0.00000000       0.007
   0.11219090  0.08975272  0.00000000       0.014
   0.13462908  0.08975272  0.00000000       0.007
   0.11219090  0.11219090  0.00000000       0.007
   0.13462908  0.11219090  0.00000000       0.007
   0.13462908  0.13462908  0.00000000       0.002
   0.02243818  0.02243818  0.02243818       0.005
   0.04487636  0.02243818  0.02243818       0.014
   0.06731454  0.02243818  0.02243818       0.014
   0.08975272  0.02243818  0.02243818       0.014
   0.11219090  0.02243818  0.02243818       0.014
   0.13462908  0.02243818  0.02243818       0.007
   0.04487636  0.04487636  0.02243818       0.014
   0.06731454  0.04487636  0.02243818       0.028
   0.08975272  0.04487636  0.02243818       0.028
   0.11219090  0.04487636  0.02243818       0.028
   0.13462908  0.04487636  0.02243818       0.014
   0.06731454  0.06731454  0.02243818       0.014
   0.08975272  0.06731454  0.02243818       0.028
   0.11219090  0.06731454  0.02243818       0.028
   0.13462908  0.06731454  0.02243818       0.014
   0.08975272  0.08975272  0.02243818       0.014
   0.11219090  0.08975272  0.02243818       0.028
   0.13462908  0.08975272  0.02243818       0.014
   0.11219090  0.11219090  0.02243818       0.014
   0.13462908  0.11219090  0.02243818       0.014
   0.13462908  0.13462908  0.02243818       0.003
   0.04487636  0.04487636  0.04487636       0.005
   0.06731454  0.04487636  0.04487636       0.014
   0.08975272  0.04487636  0.04487636       0.014
   0.11219090  0.04487636  0.04487636       0.014
   0.13462908  0.04487636  0.04487636       0.007
   0.06731454  0.06731454  0.04487636       0.014
   0.08975272  0.06731454  0.04487636       0.028
   0.11219090  0.06731454  0.04487636       0.028
   0.13462908  0.06731454  0.04487636       0.014
   0.08975272  0.08975272  0.04487636       0.014
   0.11219090  0.08975272  0.04487636       0.028
   0.13462908  0.08975272  0.04487636       0.014
   0.11219090  0.11219090  0.04487636       0.014
   0.13462908  0.11219090  0.04487636       0.014
   0.13462908  0.13462908  0.04487636       0.003
   0.06731454  0.06731454  0.06731454       0.005
   0.08975272  0.06731454  0.06731454       0.014
   0.11219090  0.06731454  0.06731454       0.014
   0.13462908  0.06731454  0.06731454       0.007
   0.08975272  0.08975272  0.06731454       0.014
   0.11219090  0.08975272  0.06731454       0.028
   0.13462908  0.08975272  0.06731454       0.014
   0.11219090  0.11219090  0.06731454       0.014
   0.13462908  0.11219090  0.06731454       0.014
   0.13462908  0.13462908  0.06731454       0.003
   0.08975272  0.08975272  0.08975272       0.005
   0.11219090  0.08975272  0.08975272       0.014
   0.13462908  0.08975272  0.08975272       0.007
   0.11219090  0.11219090  0.08975272       0.014
   0.13462908  0.11219090  0.08975272       0.014
   0.13462908  0.13462908  0.08975272       0.003
   0.11219090  0.11219090  0.11219090       0.005
   0.13462908  0.11219090  0.11219090       0.007
   0.13462908  0.13462908  0.11219090       0.003
   0.13462908  0.13462908  0.13462908       0.001
 
 k-points in reciprocal lattice and weights: kpt_density=1000                        
   0.00000000  0.00000000  0.00000000       0.001
   0.08333333  0.00000000  0.00000000       0.003
   0.16666667  0.00000000  0.00000000       0.003
   0.25000000  0.00000000  0.00000000       0.003
   0.33333333  0.00000000  0.00000000       0.003
   0.41666667  0.00000000  0.00000000       0.003
   0.50000000  0.00000000  0.00000000       0.002
   0.08333333  0.08333333  0.00000000       0.007
   0.16666667  0.08333333  0.00000000       0.014
   0.25000000  0.08333333  0.00000000       0.014
   0.33333333  0.08333333  0.00000000       0.014
   0.41666667  0.08333333  0.00000000       0.014
   0.50000000  0.08333333  0.00000000       0.007
   0.16666667  0.16666667  0.00000000       0.007
   0.25000000  0.16666667  0.00000000       0.014
   0.33333333  0.16666667  0.00000000       0.014
   0.41666667  0.16666667  0.00000000       0.014
   0.50000000  0.16666667  0.00000000       0.007
   0.25000000  0.25000000  0.00000000       0.007
   0.33333333  0.25000000  0.00000000       0.014
   0.41666667  0.25000000  0.00000000       0.014
   0.50000000  0.25000000  0.00000000       0.007
   0.33333333  0.33333333  0.00000000       0.007
   0.41666667  0.33333333  0.00000000       0.014
   0.50000000  0.33333333  0.00000000       0.007
   0.41666667  0.41666667  0.00000000       0.007
   0.50000000  0.41666667  0.00000000       0.007
   0.50000000  0.50000000  0.00000000       0.002
   0.08333333  0.08333333  0.08333333       0.005
   0.16666667  0.08333333  0.08333333       0.014
   0.25000000  0.08333333  0.08333333       0.014
   0.33333333  0.08333333  0.08333333       0.014
   0.41666667  0.08333333  0.08333333       0.014
   0.50000000  0.08333333  0.08333333       0.007
   0.16666667  0.16666667  0.08333333       0.014
   0.25000000  0.16666667  0.08333333       0.028
   0.33333333  0.16666667  0.08333333       0.028
   0.41666667  0.16666667  0.08333333       0.028
   0.50000000  0.16666667  0.08333333       0.014
   0.25000000  0.25000000  0.08333333       0.014
   0.33333333  0.25000000  0.08333333       0.028
   0.41666667  0.25000000  0.08333333       0.028
   0.50000000  0.25000000  0.08333333       0.014
   0.33333333  0.33333333  0.08333333       0.014
   0.41666667  0.33333333  0.08333333       0.028
   0.50000000  0.33333333  0.08333333       0.014
   0.41666667  0.41666667  0.08333333       0.014
   0.50000000  0.41666667  0.08333333       0.014
   0.50000000  0.50000000  0.08333333       0.003
   0.16666667  0.16666667  0.16666667       0.005
   0.25000000  0.16666667  0.16666667       0.014
   0.33333333  0.16666667  0.16666667       0.014
   0.41666667  0.16666667  0.16666667       0.014
   0.50000000  0.16666667  0.16666667       0.007
   0.25000000  0.25000000  0.16666667       0.014
   0.33333333  0.25000000  0.16666667       0.028
   0.41666667  0.25000000  0.16666667       0.028
   0.50000000  0.25000000  0.16666667       0.014
   0.33333333  0.33333333  0.16666667       0.014
   0.41666667  0.33333333  0.16666667       0.028
   0.50000000  0.33333333  0.16666667       0.014
   0.41666667  0.41666667  0.16666667       0.014
   0.50000000  0.41666667  0.16666667       0.014
   0.50000000  0.50000000  0.16666667       0.003
   0.25000000  0.25000000  0.25000000       0.005
   0.33333333  0.25000000  0.25000000       0.014
   0.41666667  0.25000000  0.25000000       0.014
   0.50000000  0.25000000  0.25000000       0.007
   0.33333333  0.33333333  0.25000000       0.014
   0.41666667  0.33333333  0.25000000       0.028
   0.50000000  0.33333333  0.25000000       0.014
   0.41666667  0.41666667  0.25000000       0.014
   0.50000000  0.41666667  0.25000000       0.014
   0.50000000  0.50000000  0.25000000       0.003
   0.33333333  0.33333333  0.33333333       0.005
   0.41666667  0.33333333  0.33333333       0.014
   0.50000000  0.33333333  0.33333333       0.007
   0.41666667  0.41666667  0.33333333       0.014
   0.50000000  0.41666667  0.33333333       0.014
   0.50000000  0.50000000  0.33333333       0.003
   0.41666667  0.41666667  0.41666667       0.005
   0.50000000  0.41666667  0.41666667       0.007
   0.50000000  0.50000000  0.41666667       0.003
   0.50000000  0.50000000  0.50000000       0.001
 
 position of ions in fractional coordinates (direct lattice) 
   0.25000000  0.75000000  0.25000000
   0.00000000  0.00000000  0.50000000
   0.25000000  0.25000000  0.75000000
   0.00000000  0.50000000  0.00000000
   0.75000000  0.75000000  0.75000000
   0.50000000  0.00000000  0.00000000
   0.75000000  0.25000000  0.25000000
   0.50000000  0.50000000  0.50000000
 
 position of ions in cartesian coordinates  (Angst):
   0.93270910  2.79812730  0.93270910
   0.00000000  0.00000000  1.86541820
   0.93270910  0.93270910  2.79812730
   0.00000000  1.86541820  0.00000000
   2.79812730  2.79812730  2.79812730
   1.86541820  0.00000000  0.00000000
   2.79812730  0.93270910  0.93270910
   1.86541820  1.86541820  1.86541820
 


--------------------------------------------------------------------------------------------------------


 k-point  1 :   0.0000 0.0000 0.0000  plane waves:     949
 k-point  2 :   0.0833 0.0000 0.0000  plane waves:     945
 k-point  3 :   0.1667 0.0000 0.0000  plane waves:     936
 k-point  4 :   0.2500 0.0000 0.0000  plane waves:     932
 k-point  5 :   0.3333 0.0000 0.0000  plane waves:     932
 k-point  6 :   0.4167 0.0000 0.0000  plane waves:     936
 k-point  7 :   0.5000 0.0000 0.0000  plane waves:     916
 k-point  8 :   0.0833 0.0833 0.0000  plane waves:     947
 k-point  9 :   0.1667 0.0833 0.0000  plane waves:     947
 k-point 10 :   0.2500 0.0833 0.0000  plane waves:     939
 k-point 11 :   0.3333 0.0833 0.0000  plane waves:     942
 k-point 12 :   0.4167 0.0833 0.0000  plane waves:     938
 k-point 13 :   0.5000 0.0833 0.0000  plane waves:     928
 k-point 14 :   0.1667 0.1667 0.0000  plane waves:     941
 k-point 15 :   0.2500 0.1667 0.0000  plane waves:     938
 k-point 16 :   0.3333 0.1667 0.0000  plane waves:     934
 k-point 17 :   0.4167 0.1667 0.0000  plane waves:     937
 k-point 18 :   0.5000 0.1667 0.0000  plane waves:     940
 k-point 19 :   0.2500 0.2500 0.0000  plane waves:     927
 k-point 20 :   0.3333 0.2500 0.0000  plane waves:     947
 k-point 21 :   0.4167 0.2500 0.0000  plane waves:     941
 k-point 22 :   0.5000 0.2500 0.0000  plane waves:     944
 k-point 23 :   0.3333 0.3333 0.0000  plane waves:     946
 k-point 24 :   0.4167 0.3333 0.0000  plane waves:     941
 k-point 25 :   0.5000 0.3333 0.0000  plane waves:     940
 k-point 26 :   0.4167 0.4167 0.0000  plane waves:     948
 k-point 27 :   0.5000 0.4167 0.0000  plane waves:     942
 k-point 28 :   0.5000 0.5000 0.0000  plane waves:     952
 k-point 29 :   0.0833 0.0833 0.0833  plane waves:     937
 k-point 30 :   0.1667 0.0833 0.0833  plane waves:     941
 k-point 31 :   0.2500 0.0833 0.0833  plane waves:     936
 k-point 32 :   0.3333 0.0833 0.0833  plane waves:     937
 k-point 33 :   0.4167 0.0833 0.0833  plane waves:     933
 k-point 34 :   0.5000 0.0833 0.0833  plane waves:     934
 k-point 35 :   0.1667 0.1667 0.0833  plane waves:     941
 k-point 36 :   0.2500 0.1667 0.0833  plane waves:     938
 k-point 37 :   0.3333 0.1667 0.0833  plane waves:     941
 k-point 38 :   0.4167 0.1667 0.0833  plane waves:     934
 k-point 39 :   0.5000 0.1667 0.0833  plane waves:     940
 k-point 40 :   0.2500 0.2500 0.0833  plane waves:     942
 k-point 41 :   0.3333 0.2500 0.0833  plane waves:     943
 k-point 42 :   0.4167 0.2500 0.0833  plane waves:     938
 k-point 43 :   0.5000 0.2500 0.0833  plane waves:     944
 k-point 44 :   0.3333 0.3333 0.0833  plane waves:     938
 k-point 45 :   0.4167 0.3333 0.0833  plane waves:     938
 k-point 46 :   0.5000 0.3333 0.0833  plane waves:     938
 k-point 47 :   0.4167 0.4167 0.0833  plane waves:     941
 k-point 48 :   0.5000 0.4167 0.0833  plane waves:     944
 k-point 49 :   0.5000 0.5000 0.0833  plane waves:     952
 k-point 50 :   0.1667 0.1667 0.1667  plane waves:     943
 k-point 51 :   0.2500 0.1667 0.1667  plane waves:     938
 k-point 52 :   0.3333 0.1667 0.1667  plane waves:     943
 k-point 53 :   0.4167 0.1667 0.1667  plane waves:     935
 k-point 54 :   0.5000 0.1667 0.1667  plane waves:     950
 k-point 55 :   0.2500 0.2500 0.1667  plane waves:     942
 k-point 56 :   0.3333 0.2500 0.1667  plane waves:     940
 k-point 57 :   0.4167 0.2500 0.1667  plane waves:     944
 k-point 58 :   0.5000 0.2500 0.1667  plane waves:     942
 k-point 59 :   0.3333 0.3333 0.1667  plane waves:     952
 k-point 60 :   0.4167 0.3333 0.1667  plane waves:     953
 k-point 61 :   0.5000 0.3333 0.1667  plane waves:     946
 k-point 62 :   0.4167 0.4167 0.1667  plane waves:     950
 k-point 63 :   0.5000 0.4167 0.1667  plane waves:     958
 k-point 64 :   0.5000 0.5000 0.1667  plane waves:     944
 k-point 65 :   0.2500 0.2500 0.2500  plane waves:     946
 k-point 66 :   0.3333 0.2500 0.2500  plane waves:     951
 k-point 67 :   0.4167 0.2500 0.2500  plane waves:     951
 k-point 68 :   0.5000 0.2500 0.2500  plane waves:     956
 k-point 69 :   0.3333 0.3333 0.2500  plane waves:     953
 k-point 70 :   0.4167 0.3333 0.2500  plane waves:     955
 k-point 71 :   0.5000 0.3333 0.2500  plane waves:     948
 k-point 72 :   0.4167 0.4167 0.2500  plane waves:     954
 k-point 73 :   0.5000 0.4167 0.2500  plane waves:     956
 k-point 74 :   0.5000 0.5000 0.2500  plane waves:     944
 k-point 75 :   0.3333 0.3333 0.3333  plane waves:     955
 k-point 76 :   0.4167 0.3333 0.3333  plane waves:     950
 k-point 77 :   0.5000 0.3333 0.3333  plane waves:     954
 k-point 78 :   0.4167 0.4167 0.3333  plane waves:     956
 k-point 79 :   0.5000 0.4167 0.3333  plane waves:     952
 k-point 80 :   0.5000 0.5000 0.3333  plane waves:     956
 k-point 81 :   0.4167 0.4167 0.4167  plane waves:     940
 k-point 82 :   0.5000 0.4167 0.4167  plane waves:     942
 k-point 83 :   0.5000 0.5000 0.4167  plane waves:     948
 k-point 84 :   0.5000 0.5000 0.5000  plane waves:     968

 maximum and minimum number of plane-waves per node :       254      218

 maximum number of plane-waves:       968
 maximum index in each direction: 
   IXMAX=    6   IYMAX=    6   IZMAX=    6
   IXMIN=   -6   IYMIN=   -6   IZMIN=   -6


 parallel 3D FFT for wavefunctions:
    minimum data exchange during FFTs selected (reduces bandwidth)
 parallel 3D FFT for charge:
    minimum data exchange during FFTs selected (reduces bandwidth)


 total amount of memory used by VASP MPI-rank0    34435. kBytes
=======================================================================

   base      :      30000. kBytes
   nonl-proj :       1409. kBytes
   fftplans  :        346. kBytes
   grid      :        481. kBytes
   one-center:          6. kBytes
   wavefun   :       2193. kBytes
 
     INWAV:  cpu time    0.0004: real time    0.0005
 Broyden mixing: mesh for mixing (old mesh)
   NGX = 13   NGY = 13   NGZ = 13
  (NGX  = 48   NGY  = 48   NGZ  = 48)
  gives a total of   2197 points

 initial charge density was supplied:
 charge density of overlapping atoms calculated
 number of electron      32.0000000 magnetization 
 keeping initial charge density in first step


--------------------------------------------------------------------------------------------------------


 Maximum index for augmentation-charges          249 (set IRDMAX)


--------------------------------------------------------------------------------------------------------


 First call to EWALD:  gamma=   0.475
 Maximum number of real-space cells 3x 3x 3
 Maximum number of reciprocal cells 3x 3x 3

    FEWALD:  cpu time    0.0062: real time    0.0062


--------------------------------------- Iteration      1(   1)  ---------------------------------------


    POTLOK:  cpu time    0.0266: real time    0.0308
    SETDIJ:  cpu time    0.0065: real time    0.0065
     EDDAV:  cpu time    4.1036: real time    4.1137
 BZINTS: Fermi energy: 16.738014; 32.000000 electrons
         Band energy:  92.659046;  BLOECHL correction: -0.232575
       DOS:  cpu time    0.1700: real time    0.1700
    --------------------------------------------
      LOOP:  cpu time    4.3068: real time    4.3211

 eigenvalue-minimisations  :  4032
 total energy-change (2. order) : 0.5853740E+02  (-0.1414870E+04)
 number of electron      32.0000000 magnetization 
 augmentation part       32.0000000 magnetization 

 Free energy of the ion-electron system (eV)
  ---------------------------------------------------
  alpha Z        PSCENC =       100.41838990
  Ewald energy   TEWEN  =     -1330.63994554
  -Hartree energ DENC   =       -82.81929166
  -exchange      EXHF   =         0.00000000
  -V(xc)+E(xc)   XCENC  =       111.10524629
  PAW double counting   =       302.65154477     -311.85538214
  entropy T*S    EENTRO =         0.00000000
  eigenvalues    EBANDS =        92.65904585
  atomic energy  EATOM  =      1177.01779097
  Solvation  Ediel_sol  =         0.00000000
  ---------------------------------------------------
  free energy    TOTEN  =        58.53739844 eV

  energy without entropy =       58.53739844  energy(sigma->0) =       58.53739844


--------------------------------------------------------------------------------------------------------




--------------------------------------- Iteration      1(   2)  ---------------------------------------


     EDDAV:  cpu time    5.1849: real time    5.1856
 BZINTS: Fermi energy:  7.599843; 32.000000 electrons
         Band energy: -34.724108;  BLOECHL correction:  0.000000
       DOS:  cpu time    0.0549: real time    0.0548
    --------------------------------------------
      LOOP:  cpu time    5.2398: real time    5.2405

 eigenvalue-minimisations  :  5584
 total energy-change (2. order) :-0.1273832E+03  (-0.1203808E+03)
 number of electron      32.0000000 magnetization 
 augmentation part       32.0000000 magnetization 

 Free energy of the ion-electron system (eV)
  ---------------------------------------------------
  alpha Z        PSCENC =       100.41838990
  Ewald energy   TEWEN  =     -1330.63994554
  -Hartree energ DENC   =       -82.81929166
  -exchange      EXHF   =         0.00000000
  -V(xc)+E(xc)   XCENC  =       111.10524629
  PAW double counting   =       302.65154477     -311.85538214
  entropy T*S    EENTRO =         0.00000000
  eigenvalues    EBANDS =       -34.72410762
  atomic energy  EATOM  =      1177.01779097
  Solvation  Ediel_sol  =         0.00000000
  ---------------------------------------------------
  free energy    TOTEN  =       -68.84575503 eV

  energy without entropy =      -68.84575503  energy(sigma->0) =      -68.84575503


--------------------------------------------------------------------------------------------------------




--------------------------------------- Iteration      1(   3)  ---------------------------------------


     EDDAV:  cpu time    4.9162: real time    4.9188
 BZINTS: Fermi energy:  6.830147; 32.000000 electrons
         Band energy: -39.224404;  BLOECHL correction:  0.000000
       DOS:  cpu time    0.0410: real time    0.0410
    --------------------------------------------
      LOOP:  cpu time    4.9572: real time    4.9598

 eigenvalue-minimisations  :  5208
 total energy-change (2. order) :-0.4500297E+01  (-0.4475869E+01)
 number of electron      32.0000000 magnetization 
 augmentation part       32.0000000 magnetization 

 Free energy of the ion-electron system (eV)
  ---------------------------------------------------
  alpha Z        PSCENC =       100.41838990
  Ewald energy   TEWEN  =     -1330.63994554
  -Hartree energ DENC   =       -82.81929166
  -exchange      EXHF   =         0.00000000
  -V(xc)+E(xc)   XCENC  =       111.10524629
  PAW double counting   =       302.65154477     -311.85538214
  entropy T*S    EENTRO =         0.00000000
  eigenvalues    EBANDS =       -39.22440412
  atomic energy  EATOM  =      1177.01779097
  Solvation  Ediel_sol  =         0.00000000
  ---------------------------------------------------
  free energy    TOTEN  =       -73.34605153 eV

  energy without entropy =      -73.34605153  energy(sigma->0) =      -73.34605153


--------------------------------------------------------------------------------------------------------




--------------------------------------- Iteration      1(   4)  ---------------------------------------


     EDDAV:  cpu time    5.1605: real time    5.1611
 BZINTS: Fermi energy:  6.765002; 32.000000 electrons
         Band energy: -39.276982;  BLOECHL correction:  0.000000
       DOS:  cpu time    0.0365: real time    0.0366
    --------------------------------------------
      LOOP:  cpu time    5.1970: real time    5.1976

 eigenvalue-minimisations  :  5360
 total energy-change (2. order) :-0.5257834E-01  (-0.5251693E-01)
 number of electron      32.0000000 magnetization 
 augmentation part       32.0000000 magnetization 

 Free energy of the ion-electron system (eV)
  ---------------------------------------------------
  alpha Z        PSCENC =       100.41838990
  Ewald energy   TEWEN  =     -1330.63994554
  -Hartree energ DENC   =       -82.81929166
  -exchange      EXHF   =         0.00000000
  -V(xc)+E(xc)   XCENC  =       111.10524629
  PAW double counting   =       302.65154477     -311.85538214
  entropy T*S    EENTRO =         0.00000000
  eigenvalues    EBANDS =       -39.27698246
  atomic energy  EATOM  =      1177.01779097
  Solvation  Ediel_sol  =         0.00000000
  ---------------------------------------------------
  free energy    TOTEN  =       -73.39862987 eV

  energy without entropy =      -73.39862987  energy(sigma->0) =      -73.39862987


--------------------------------------------------------------------------------------------------------




--------------------------------------- Iteration      1(   5)  ---------------------------------------


     EDDAV:  cpu time    4.9787: real time    4.9794
 BZINTS: Fermi energy:  6.725115; 32.000000 electrons
         Band energy: -39.278089;  BLOECHL correction:  0.000000
       DOS:  cpu time    0.0363: real time    0.0363
    CHARGE:  cpu time    0.1363: real time    0.1363
    MIXING:  cpu time    0.0018: real time    0.0018
    --------------------------------------------
      LOOP:  cpu time    5.1533: real time    5.1540

 eigenvalue-minimisations  :  5128
 total energy-change (2. order) :-0.1106109E-02  (-0.1105500E-02)
 number of electron      31.9999990 magnetization 
 augmentation part        0.6825173 magnetization 

 Broyden mixing:
  rms(total) = 0.80599E+00    rms(broyden)= 0.80591E+00
  rms(prec ) = 0.18388E+01
  weight for this iteration     100.00

 Free energy of the ion-electron system (eV)
  ---------------------------------------------------
  alpha Z        PSCENC =       100.41838990
  Ewald energy   TEWEN  =     -1330.63994554
  -Hartree energ DENC   =       -82.81929166
  -exchange      EXHF   =         0.00000000
  -V(xc)+E(xc)   XCENC  =       111.10524629
  PAW double counting   =       302.65154477     -311.85538214
  entropy T*S    EENTRO =         0.00000000
  eigenvalues    EBANDS =       -39.27808857
  atomic energy  EATOM  =      1177.01779097
  Solvation  Ediel_sol  =         0.00000000
  ---------------------------------------------------
  free energy    TOTEN  =       -73.39973598 eV

  energy without entropy =      -73.39973598  energy(sigma->0) =      -73.39973598


--------------------------------------------------------------------------------------------------------




--------------------------------------- Iteration      1(   6)  ---------------------------------------


    POTLOK:  cpu time    0.0202: real time    0.0243
    SETDIJ:  cpu time    0.0058: real time    0.0058
     EDDAV:  cpu time    4.6795: real time    4.6798
 BZINTS: Fermi energy:  7.278148; 32.000000 electrons
         Band energy: -25.701349;  BLOECHL correction:  0.000000
       DOS:  cpu time    0.0366: real time    0.0366
    CHARGE:  cpu time    0.1402: real time    0.1402
    MIXING:  cpu time    0.0016: real time    0.0016
    --------------------------------------------
      LOOP:  cpu time    4.8840: real time    4.8883

 eigenvalue-minimisations  :  4744
 total energy-change (2. order) : 0.1206679E+01  (-0.8262275E-01)
 number of electron      31.9999990 magnetization 
 augmentation part        0.6689891 magnetization 

 Broyden mixing:
  rms(total) = 0.45303E+00    rms(broyden)= 0.45302E+00
  rms(prec ) = 0.10140E+01
  weight for this iteration     100.00

 eigenvalues of (default mixing * dielectric matrix)
  average eigenvalue GAMMA=   2.2253
  2.2253

 Free energy of the ion-electron system (eV)
  ---------------------------------------------------
  alpha Z        PSCENC =       100.41838990
  Ewald energy   TEWEN  =     -1330.63994554
  -Hartree energ DENC   =       -96.02966353
  -exchange      EXHF   =         0.00000000
  -V(xc)+E(xc)   XCENC  =       112.32328552
  PAW double counting   =       370.68125204     -380.26281727
  entropy T*S    EENTRO =         0.00000000
  eigenvalues    EBANDS =       -25.70134916
  atomic energy  EATOM  =      1177.01779097
  Solvation  Ediel_sol  =         0.00000000
  ---------------------------------------------------
  free energy    TOTEN  =       -72.19305708 eV

  energy without entropy =      -72.19305708  energy(sigma->0) =      -72.19305708


--------------------------------------------------------------------------------------------------------




--------------------------------------- Iteration      1(   7)  ---------------------------------------


    POTLOK:  cpu time    0.0207: real time    0.0210
    SETDIJ:  cpu time    0.0057: real time    0.0057
     EDDAV:  cpu time    4.6961: real time    4.6964
 BZINTS: Fermi energy:  7.910300; 32.000000 electrons
         Band energy:  -9.495664;  BLOECHL correction:  0.000000
       DOS:  cpu time    0.0369: real time    0.0369
    CHARGE:  cpu time    0.1300: real time    0.1300
    MIXING:  cpu time    0.0020: real time    0.0020
    --------------------------------------------
      LOOP:  cpu time    4.8915: real time    4.8921

 eigenvalue-minimisations  :  4832
 total energy-change (2. order) : 0.4090354E+00  (-0.9733486E-01)
 number of electron      31.9999990 magnetization 
 augmentation part        0.6545736 magnetization 

 Broyden mixing:
  rms(total) = 0.64812E-01    rms(broyden)= 0.64759E-01
  rms(prec ) = 0.11291E+00
  weight for this iteration     100.00

 eigenvalues of (default mixing * dielectric matrix)
  average eigenvalue GAMMA=   2.2615
  1.9943  2.5286

 Free energy of the ion-electron system (eV)
  ---------------------------------------------------
  alpha Z        PSCENC =       100.41838990
  Ewald energy   TEWEN  =     -1330.63994554
  -Hartree energ DENC   =      -113.07310016
  -exchange      EXHF   =         0.00000000
  -V(xc)+E(xc)   XCENC  =       113.92348683
  PAW double counting   =       461.48414527     -471.41912464
  entropy T*S    EENTRO =         0.00000000
  eigenvalues    EBANDS =        -9.49566433
  atomic energy  EATOM  =      1177.01779097
  Solvation  Ediel_sol  =         0.00000000
  ---------------------------------------------------
  free energy    TOTEN  =       -71.78402170 eV

  energy without entropy =      -71.78402170  energy(sigma->0) =      -71.78402170


--------------------------------------------------------------------------------------------------------




--------------------------------------- Iteration      1(   8)  ---------------------------------------


    POTLOK:  cpu time    0.0200: real time    0.0204
    SETDIJ:  cpu time    0.0056: real time    0.0056
     EDDAV:  cpu time    4.9550: real time    4.9553
 BZINTS: Fermi energy:  7.911696; 32.000000 electrons
         Band energy:  -9.309994;  BLOECHL correction:  0.000000
       DOS:  cpu time    0.0364: real time    0.0364
    CHARGE:  cpu time    0.1295: real time    0.1295
    MIXING:  cpu time    0.0020: real time    0.0019
    --------------------------------------------
      LOOP:  cpu time    5.1486: real time    5.1492

 eigenvalue-minimisations  :  5224
 total energy-change (2. order) :-0.5873409E-02  (-0.2047865E-02)
 number of electron      31.9999990 magnetization 
 augmentation part        0.6555151 magnetization 

 Broyden mixing:
  rms(total) = 0.72925E-02    rms(broyden)= 0.72801E-02
  rms(prec ) = 0.12715E-01
  weight for this iteration     100.00

 eigenvalues of (default mixing * dielectric matrix)
  average eigenvalue GAMMA=   2.1041
  1.4481  2.6736  2.1906

 Free energy of the ion-electron system (eV)
  ---------------------------------------------------
  alpha Z        PSCENC =       100.41838990
  Ewald energy   TEWEN  =     -1330.63994554
  -Hartree energ DENC   =      -113.41346197
  -exchange      EXHF   =         0.00000000
  -V(xc)+E(xc)   XCENC  =       113.95666057
  PAW double counting   =       465.32359019     -475.14292542
  entropy T*S    EENTRO =         0.00000000
  eigenvalues    EBANDS =        -9.30999381
  atomic energy  EATOM  =      1177.01779097
  Solvation  Ediel_sol  =         0.00000000
  ---------------------------------------------------
  free energy    TOTEN  =       -71.78989511 eV

  energy without entropy =      -71.78989511  energy(sigma->0) =      -71.78989511


--------------------------------------------------------------------------------------------------------




--------------------------------------- Iteration      1(   9)  ---------------------------------------


    POTLOK:  cpu time    0.0213: real time    0.2273
    SETDIJ:  cpu time    0.0061: real time    0.0061
     EDDAV:  cpu time    4.8339: real time    4.8342
 BZINTS: Fermi energy:  7.906973; 32.000000 electrons
         Band energy:  -9.409215;  BLOECHL correction:  0.000000
       DOS:  cpu time    0.0365: real time    0.0365
    CHARGE:  cpu time    0.1466: real time    0.1466
    MIXING:  cpu time    0.0020: real time    0.0020
    --------------------------------------------
      LOOP:  cpu time    5.0463: real time    5.2526

 eigenvalue-minimisations  :  5000
 total energy-change (2. order) :-0.2343566E-03  (-0.4321769E-04)
 number of electron      31.9999990 magnetization 
 augmentation part        0.6554628 magnetization 

 Broyden mixing:
  rms(total) = 0.26364E-02    rms(broyden)= 0.26357E-02
  rms(prec ) = 0.48108E-02
  weight for this iteration     100.00

 eigenvalues of (default mixing * dielectric matrix)
  average eigenvalue GAMMA=   2.0668
  0.9778  2.8066  2.4974  1.9855

 Free energy of the ion-electron system (eV)
  ---------------------------------------------------
  alpha Z        PSCENC =       100.41838990
  Ewald energy   TEWEN  =     -1330.63994554
  -Hartree energ DENC   =      -113.31750437
  -exchange      EXHF   =         0.00000000
  -V(xc)+E(xc)   XCENC  =       113.94734129
  PAW double counting   =       464.47338591     -474.28037291
  entropy T*S    EENTRO =         0.00000000
  eigenvalues    EBANDS =        -9.40921471
  atomic energy  EATOM  =      1177.01779097
  Solvation  Ediel_sol  =         0.00000000
  ---------------------------------------------------
  free energy    TOTEN  =       -71.79012946 eV

  energy without entropy =      -71.79012946  energy(sigma->0) =      -71.79012946


--------------------------------------------------------------------------------------------------------




--------------------------------------- Iteration      1(  10)  ---------------------------------------


    POTLOK:  cpu time    0.0213: real time    0.0217
    SETDIJ:  cpu time    0.0059: real time    0.0059
     EDDAV:  cpu time    4.8900: real time    4.8902
 BZINTS: Fermi energy:  7.908303; 32.000000 electrons
         Band energy:  -9.366195;  BLOECHL correction:  0.000000
       DOS:  cpu time    0.0365: real time    0.0365
    CHARGE:  cpu time    0.1278: real time    0.1278
    MIXING:  cpu time    0.0022: real time    0.0022
    --------------------------------------------
      LOOP:  cpu time    5.0837: real time    5.0843

 eigenvalue-minimisations  :  5168
 total energy-change (2. order) :-0.5789242E-04  (-0.5858892E-05)
 number of electron      31.9999990 magnetization 
 augmentation part        0.6554345 magnetization 

 Broyden mixing:
  rms(total) = 0.25297E-03    rms(broyden)= 0.25240E-03
  rms(prec ) = 0.58967E-03
  weight for this iteration     100.00

 eigenvalues of (default mixing * dielectric matrix)
  average eigenvalue GAMMA=   1.9813
  2.9708  2.5612  2.0734  0.9826  1.3186

 Free energy of the ion-electron system (eV)
  ---------------------------------------------------
  alpha Z        PSCENC =       100.41838990
  Ewald energy   TEWEN  =     -1330.63994554
  -Hartree energ DENC   =      -113.36269221
  -exchange      EXHF   =         0.00000000
  -V(xc)+E(xc)   XCENC  =       113.95131958
  PAW double counting   =       464.08368963     -473.89254503
  entropy T*S    EENTRO =         0.00000000
  eigenvalues    EBANDS =        -9.36619466
  atomic energy  EATOM  =      1177.01779097
  Solvation  Ediel_sol  =         0.00000000
  ---------------------------------------------------
  free energy    TOTEN  =       -71.79018736 eV

  energy without entropy =      -71.79018736  energy(sigma->0) =      -71.79018736


--------------------------------------------------------------------------------------------------------




--------------------------------------- Iteration      1(  11)  ---------------------------------------


    POTLOK:  cpu time    0.0198: real time    0.0202
    SETDIJ:  cpu time    0.0060: real time    0.0060
     EDDAV:  cpu time    4.1515: real time    4.1517
 BZINTS: Fermi energy:  7.908669; 32.000000 electrons
         Band energy:  -9.353712;  BLOECHL correction:  0.000000
       DOS:  cpu time    0.0364: real time    0.0365
    --------------------------------------------
      LOOP:  cpu time    4.2137: real time    4.2143

 eigenvalue-minimisations  :  3840
 total energy-change (2. order) :-0.2999971E-06  (-0.1153015E-06)
 number of electron      31.9999990 magnetization 
 augmentation part        0.6554345 magnetization 

 Free energy of the ion-electron system (eV)
  ---------------------------------------------------
  alpha Z        PSCENC =       100.41838990
  Ewald energy   TEWEN  =     -1330.63994554
  -Hartree energ DENC   =      -113.37578394
  -exchange      EXHF   =         0.00000000
  -V(xc)+E(xc)   XCENC  =       113.95254986
  PAW double counting   =       464.12698247     -473.93645917
  entropy T*S    EENTRO =         0.00000000
  eigenvalues    EBANDS =        -9.35371220
  atomic energy  EATOM  =      1177.01779097
  Solvation  Ediel_sol  =         0.00000000
  ---------------------------------------------------
  free energy    TOTEN  =       -71.79018766 eV

  energy without entropy =      -71.79018766  energy(sigma->0) =      -71.79018766


--------------------------------------------------------------------------------------------------------




 average (electrostatic) potential at core
  the test charge radii are     0.6991
  (the norm of the test charge is              1.0000)
       1 -47.2872       2 -47.2872       3 -47.2872       4 -47.2872       5 -47.2872
       6 -47.2872       7 -47.2872       8 -47.2872
 
 
 
 E-fermi :   7.9087     XC(G=0): -12.5584     alpha+bet :-15.4654


 k-point     1 :       0.0000    0.0000    0.0000
  band No.  band energies     occupation 
      1     -11.8534      2.00000
      2      -3.9750      2.00000
      3      -3.9750      2.00000
      4      -3.9750      2.00000
      5      -3.9750      2.00000
      6      -3.9750      2.00000
      7      -3.9750      2.00000
      8       2.3779      2.00000
      9       2.3779      2.00000
     10       2.3779      2.00000
     11       2.3779      2.00000
     12       2.3779      2.00000
     13       2.3779      2.00000
     14       7.8941      2.00000
     15       7.8941      2.00000
     16       7.8941      2.00000
     17      12.3696      0.00000
     18      12.3696      0.00000
     19      12.3696      0.00000
     20      12.3696      0.00000
     21      12.3696      0.00000
     22      12.3696      0.00000
     23      13.1263      0.00000
     24      13.1263      0.00000

 k-point     2 :       0.0833    0.0000    0.0000
  band No.  band energies     occupation 
      1     -11.7950      2.00000
      2      -5.1465      2.00000
      3      -3.9424      2.00000
      4      -3.9424      2.00000
      5      -3.9424      2.00000
      6      -3.9424      2.00000
      7      -2.7504      2.00000
      8       2.2561      2.00000
      9       2.2561      2.00000
     10       2.2561      2.00000
     11       2.2561      2.00000
     12       2.4349      2.00000
     13       2.4349      2.00000
     14       7.6731      2.00000
     15       7.6731      2.00000
     16       7.7312      2.00000
     17      12.0386      0.00000
     18      12.6055      0.00000
     19      12.6055      0.00000
     20      12.6055      0.00000
     21      12.6055      0.00000
     22      12.8337      0.00000
     23      13.0762      0.00000
     24      13.3947      0.00000

 k-point     3 :       0.1667    0.0000    0.0000
  band No.  band energies     occupation 
      1     -11.6202      2.00000
      2      -6.2495      2.00000
      3      -3.8493      2.00000
      4      -3.8493      2.00000
      5      -3.8493      2.00000
      6      -3.8493      2.00000
      7      -1.4889      2.00000
      8       1.9313      2.00000
      9       1.9313      2.00000
     10       1.9313      2.00000
     11       1.9313      2.00000
     12       2.6016      2.00000
     13       2.6016      2.00000
     14       7.1230      2.00000
     15       7.1230      2.00000
     16       7.2768      2.00000
     17      11.8353      0.00000
     18      12.9354      0.00000
     19      13.2700      0.00000
     20      13.2700      0.00000
     21      13.2700      0.00000
     22      13.2700      0.00000
     23      13.4423      0.00000
     24      14.0926      0.00000

 k-point     4 :       0.2500    0.0000    0.0000
  band No.  band energies     occupation 
      1     -11.3296      2.00000
      2      -7.2726      2.00000
      3      -3.7111      2.00000
      4      -3.7111      2.00000
      5      -3.7111      2.00000
      6      -3.7111      2.00000
      7      -0.2102      2.00000
      8       1.5047      2.00000
      9       1.5047      2.00000
     10       1.5047      2.00000
     11       1.5047      2.00000
     12       2.8776      2.00000
     13       2.8776      2.00000
     14       6.4196      2.00000
     15       6.4196      2.00000
     16       6.5710      2.00000
     17      11.7460      0.00000
     18      12.7358      0.00000
     19      14.1977      0.00000
     20      14.2638      0.00000
     21      14.2638      0.00000
     22      14.2638      0.00000
     23      14.2641      0.00000
     24      15.0354      0.00000

 k-point     5 :       0.3333    0.0000    0.0000
  band No.  band energies     occupation 
      1     -10.9245      2.00000
      2      -8.2065      2.00000
      3      -3.5567      2.00000
      4      -3.5567      2.00000
      5      -3.5567      2.00000
      6      -3.5567      2.00000
      7       1.0644      2.00000
      8       1.0908      2.00000
      9       1.0908      2.00000
     10       1.0908      2.00000
     11       1.0908      2.00000
     12       3.2542      2.00000
     13       3.2542      2.00000
     14       5.6759      2.00000
     15       5.6801      2.00000
     16       5.6801      2.00000
     17      11.7578      0.00000
     18      12.4877      0.00000
     19      15.0896      0.00000
     20      15.4808      0.00000
     21      15.4808      0.00000
     22      15.4808      0.00000
     23      15.4809      0.00000
     24      16.0996      0.00000

 k-point     6 :       0.4167    0.0000    0.0000
  band No.  band energies     occupation 
      1     -10.4067      2.00000
      2      -9.0438      2.00000
      3      -3.4303      2.00000
      4      -3.4303      2.00000
      5      -3.4303      2.00000
      6      -3.4303      2.00000
      7       0.7873      2.00000
      8       0.7873      2.00000
      9       0.7873      2.00000
     10       0.7873      2.00000
     11       2.3159      2.00000
     12       3.7372      2.00000
     13       3.7372      2.00000
     14       4.6451      2.00000
     15       4.9651      2.00000
     16       4.9651      2.00000
     17      11.8535      0.00000
     18      12.2413      0.00000
     19      16.0928      0.00000
     20      16.8125      0.00000
     21      16.8125      0.00000
     22      16.8125      0.00000
     23      16.8131      0.00000
     24      17.2111      0.00000

 k-point     7 :       0.5000    0.0000    0.0000
  band No.  band energies     occupation 
      1      -9.7786      2.00000
      2      -9.7786      2.00000
      3      -3.3803      2.00000
      4      -3.3803      2.00000
      5      -3.3803      2.00000
      6      -3.3803      2.00000
      7       0.6774      2.00000
      8       0.6774      2.00000
      9       0.6774      2.00000
     10       0.6774      2.00000
     11       3.5162      2.00000
     12       3.5162      2.00000
     13       4.3110      2.00000
     14       4.3110      2.00000
     15       4.3110      2.00000
     16       4.3110      2.00000
     17      12.0219      0.00000
     18      12.0219      0.00000
     19      17.1106      0.00000
     20      17.1106      0.00000
     21      17.9251      0.00000
     22      17.9252      0.00000
     23      17.9252      0.00000
     24      17.9437      0.00000

 k-point     8 :       0.0833    0.0833    0.0000
  band No.  band energies     occupation 
      1     -11.7367      2.00000
      2      -5.1053      2.00000
      3      -5.1053      2.00000
      4      -3.9561      2.00000
      5      -3.8677      2.00000
      6      -2.7309      2.00000
      7      -2.7309      2.00000
      8       1.8318      2.00000
      9       2.2972      2.00000
     10       2.2972      2.00000
     11       2.3304      2.00000
     12       2.3304      2.00000
     13       2.4735      2.00000
     14       7.2502      2.00000
     15       7.4584      2.00000
     16       7.8230      2.00000
     17      12.2822      0.00000
     18      12.2822      0.00000
     19      12.4648      0.00000
     20      13.0616      0.00000
     21      13.0616      0.00000
     22      13.1787      0.00000
     23      13.2419      0.00000
     24      13.4449      0.00000

 k-point     9 :       0.1667    0.0833    0.0000
  band No.  band energies     occupation 
      1     -11.5621      2.00000
      2      -6.2029      2.00000
      3      -4.9851      2.00000
      4      -3.9234      2.00000
      5      -3.7282      2.00000
      6      -2.6807      2.00000
      7      -1.4911      2.00000
      8       1.3081      2.00000
      9       1.9331      2.00000
     10       2.0584      2.00000
     11       2.4435      2.00000
     12       2.4523      2.00000
     13       2.5227      2.00000
     14       6.5851      2.00000
     15       6.9204      2.00000
     16       7.5757      2.00000
     17      12.0823      0.00000
     18      12.7928      0.00000
     19      12.9616      0.00000
     20      13.1663      0.00000
     21      13.6598      0.00000
     22      13.7051      0.00000
     23      14.0784      0.00000
     24      14.0935      0.00000

 k-point    10 :       0.2500    0.0833    0.0000
  band No.  band energies     occupation 
      1     -11.2718      2.00000
      2      -7.2223      2.00000
      3      -4.7951      2.00000
      4      -3.8728      2.00000
      5      -3.5295      2.00000
      6      -2.6235      2.00000
      7      -0.2481      2.00000
      8       0.7946      2.00000
      9       1.4474      2.00000
     10       1.7219      2.00000
     11       2.2161      2.00000
     12       2.7197      2.00000
     13       2.8390      2.00000
     14       5.8032      2.00000
     15       6.2245      2.00000
     16       7.0248      2.00000
     17      11.9962      0.00000
     18      12.9737      0.00000
     19      13.5388      0.00000
     20      13.9737      0.00000
     21      14.4028      0.00000
     22      14.6718      0.00000
     23      15.0128      0.00000
     24      15.0132      0.00000

 k-point    11 :       0.3333    0.0833    0.0000
  band No.  band energies     occupation 
      1     -10.8671      2.00000
      2      -8.1537      2.00000
      3      -4.5540      2.00000
      4      -3.8492      2.00000
      5      -3.2878      2.00000
      6      -2.5993      2.00000
      7       0.3962      2.00000
      8       0.9459      2.00000
      9       0.9660      2.00000
     10       1.4354      2.00000
     11       1.8864      2.00000
     12       3.0948      2.00000
     13       3.2855      2.00000
     14       4.9692      2.00000
     15       5.4919      2.00000
     16       6.2686      2.00000
     17      12.0111      0.00000
     18      12.7298      0.00000
     19      14.5969      0.00000
     20      15.2070      0.00000
     21      15.2807      0.00000
     22      15.8557      0.00000
     23      15.9829      0.00000
     24      16.0749      0.00000

 k-point    12 :       0.4167    0.0833    0.0000
  band No.  band energies     occupation 
      1     -10.3499      2.00000
      2      -8.9892      2.00000
      3      -4.2931      2.00000
      4      -3.9031      2.00000
      5      -3.0316      2.00000
      6      -2.6529      2.00000
      7       0.2023      2.00000
      8       0.5197      2.00000
      9       1.2947      2.00000
     10       1.5648      2.00000
     11       2.1130      2.00000
     12       3.5690      2.00000
     13       3.8697      2.00000
     14       4.0969      2.00000
     15       4.7855      2.00000
     16       5.4249      2.00000
     17      12.1063      0.00000
     18      12.4889      0.00000
     19      15.8529      0.00000
     20      16.2591      0.00000
     21      16.5684      0.00000
     22      17.0103      0.00000
     23      17.1166      0.00000
     24      17.1960      0.00000

 k-point    13 :       0.5000    0.0833    0.0000
  band No.  band energies     occupation 
      1      -9.7228      2.00000
      2      -9.7228      2.00000
      3      -4.0591      2.00000
      4      -4.0591      2.00000
      5      -2.8046      2.00000
      6      -2.8046      2.00000
      7       0.2504      2.00000
      8       0.2504      2.00000
      9       1.3443      2.00000
     10       1.3443      2.00000
     11       3.1585      2.00000
     12       3.1585      2.00000
     13       4.1386      2.00000
     14       4.1386      2.00000
     15       4.5963      2.00000
     16       4.5963      2.00000
     17      12.2733      0.00000
     18      12.2733      0.00000
     19      17.1626      0.00000
     20      17.1626      0.00000
     21      17.2318      0.00000
     22      17.2318      0.00000
     23      17.9565      0.00000
     24      17.9696      0.00000

 k-point    14 :       0.1667    0.1667    0.0000
  band No.  band energies     occupation 
      1     -11.3879      2.00000
      2      -6.0650      2.00000
      3      -6.0650      2.00000
      4      -3.9783      2.00000
      5      -3.5463      2.00000
      6      -1.5091      2.00000
      7      -1.5091      2.00000
      8       0.6944      2.00000
      9       2.0626      2.00000
     10       2.0626      2.00000
     11       2.3318      2.00000
     12       2.3318      2.00000
     13       2.7528      2.00000
     14       5.8400      2.00000
     15       6.4007      2.00000
     16       7.6072      2.00000
     17      12.7470      0.00000
     18      12.7725      0.00000
     19      12.7725      0.00000
     20      13.5890      0.00000
     21      14.2131      0.00000
     22      14.2772      0.00000
     23      14.2772      0.00000
     24      14.4828      0.00000

 k-point    15 :       0.2500    0.1667    0.0000
  band No.  band energies     occupation 
      1     -11.0985      2.00000
      2      -7.0727      2.00000
      3      -5.8418      2.00000
      4      -4.0590      2.00000
      5      -3.3009      2.00000
      6      -1.5747      2.00000
      7      -0.3734      2.00000
      8       0.1960      2.00000
      9       1.5349      2.00000
     10       2.1238      2.00000
     11       2.3088      2.00000
     12       2.7651      2.00000
     13       2.8129      2.00000
     14       5.0287      2.00000
     15       5.7255      2.00000
     16       7.2874      2.00000
     17      12.6939      0.00000
     18      13.1592      0.00000
     19      13.5736      0.00000
     20      13.7947      0.00000
     21      14.9818      0.00000
     22      14.9874      0.00000
     23      15.0156      0.00000
     24      15.2074      0.00000

 k-point    16 :       0.3333    0.1667    0.0000
  band No.  band energies     occupation 
      1     -10.6952      2.00000
      2      -7.9960      2.00000
      3      -5.5449      2.00000
      4      -4.2177      2.00000
      5      -2.9982      2.00000
      6      -1.7256      2.00000
      7      -0.0941      2.00000
      8       0.6856      2.00000
      9       0.9746      2.00000
     10       2.0039      2.00000
     11       2.6658      2.00000
     12       2.6760      2.00000
     13       3.3713      2.00000
     14       4.1989      2.00000
     15       5.0091      2.00000
     16       6.6811      2.00000
     17      12.7072      0.00000
     18      13.3777      0.00000
     19      13.9716      0.00000
     20      15.0342      0.00000
     21      15.7425      0.00000
     22      15.8265      0.00000
     23      16.0267      0.00000
     24      16.3403      0.00000

 k-point    17 :       0.4167    0.1667    0.0000
  band No.  band energies     occupation 
      1     -10.1800      2.00000
      2      -8.8259      2.00000
      3      -5.1945      2.00000
      4      -4.4805      2.00000
      5      -2.6554      2.00000
      6      -1.9756      2.00000
      7      -0.1299      2.00000
      8       0.4648      2.00000
      9       1.6454      2.00000
     10       2.0266      2.00000
     11       2.4352      2.00000
     12       3.1266      2.00000
     13       3.3675      2.00000
     14       4.1374      2.00000
     15       4.3169      2.00000
     16       5.8848      2.00000
     17      12.8031      0.00000
     18      13.1603      0.00000
     19      15.0721      0.00000
     20      16.3975      0.00000
     21      16.5914      0.00000
     22      16.7449      0.00000
     23      17.1575      0.00000
     24      17.3319      0.00000

 k-point    18 :       0.5000    0.1667    0.0000
  band No.  band energies     occupation 
      1      -9.5556      2.00000
      2      -9.5556      2.00000
      3      -4.8237      2.00000
      4      -4.8237      2.00000
      5      -2.3007      2.00000
      6      -2.3007      2.00000
      7       0.0748      2.00000
      8       0.0748      2.00000
      9       2.1899      2.00000
     10       2.1899      2.00000
     11       2.5268      2.00000
[...]

 k-point    72 :       0.4167    0.4167    0.2500
  band No.  band energies     occupation 
      1      -8.5358      2.00000
      2      -7.3171      2.00000
      3      -7.3171      2.00000
      4      -6.3985      2.00000
      5      -3.3813      2.00000
      6      -2.4858      2.00000
      7      -2.4858      2.00000
      8      -1.2935      2.00000
      9       2.9632      2.00000
     10       3.6663      2.00000
     11       3.6663      2.00000
     12       4.6938      2.00000
     13       4.7557      2.00000
     14       4.9014      2.00000
     15       4.9014      2.00000
     16       5.8489      2.00000
     17      14.7936      0.00000
     18      15.3424      0.00000
     19      15.3424      0.00000
     20      15.3477      0.00000
     21      15.6795      0.00000
     22      15.9339      0.00000
     23      15.9339      0.00000
     24      16.0964      0.00000

 k-point    73 :       0.5000    0.4167    0.2500
  band No.  band energies     occupation 
      1      -7.9631      2.00000
      2      -7.9631      2.00000
      3      -6.8474      2.00000
      4      -6.8474      2.00000
      5      -3.0371      2.00000
      6      -3.0371      2.00000
      7      -1.9486      2.00000
      8      -1.9486      2.00000
      9       3.3329      2.00000
     10       3.3329      2.00000
     11       4.2112      2.00000
     12       4.2112      2.00000
     13       4.9411      2.00000
     14       4.9411      2.00000
     15       5.4831      2.00000
     16       5.4831      2.00000
     17      15.2391      0.00000
     18      15.2391      0.00000
     19      15.4864      0.00000
     20      15.4864      0.00000
     21      15.6568      0.00000
     22      15.6568      0.00000
     23      16.3103      0.00000
     24      16.3104      0.00000

 k-point    74 :       0.5000    0.5000    0.2500
  band No.  band energies     occupation 
      1      -7.4267      2.00000
      2      -7.4267      2.00000
      3      -7.4267      2.00000
      4      -7.4267      2.00000
      5      -2.5667      2.00000
      6      -2.5667      2.00000
      7      -2.5667      2.00000
      8      -2.5667      2.00000
      9       3.7920      2.00000
     10       3.7920      2.00000
     11       3.7920      2.00000
     12       3.7920      2.00000
     13       5.3463      2.00000
     14       5.3463      2.00000
     15       5.3463      2.00000
     16       5.3463      2.00000
     17      15.2739      0.00000
     18      15.2739      0.00000
     19      15.2739      0.00000
     20      15.2739      0.00000
     21      16.3611      0.00000
     22      16.3613      0.00000
     23      16.3615      0.00000
     24      16.3618      0.00000

 k-point    75 :       0.3333    0.3333    0.3333
  band No.  band energies     occupation 
      1      -9.1298      2.00000
      2      -6.7341      2.00000
      3      -6.7341      2.00000
      4      -6.7341      2.00000
      5      -2.9686      2.00000
      6      -2.9686      2.00000
      7      -2.9686      2.00000
      8      -0.6175      2.00000
      9       3.3830      2.00000
     10       3.3830      2.00000
     11       3.3830      2.00000
     12       4.4265      2.00000
     13       4.4265      2.00000
     14       4.4265      2.00000
     15       5.8689      2.00000
     16       5.8689      2.00000
     17      14.4305      0.00000
     18      14.4305      0.00000
     19      14.4305      0.00000
     20      14.9366      0.00000
     21      15.5642      0.00000
     22      15.5642      0.00000
     23      17.4745      0.00000
     24      17.4758      0.00000

 k-point    76 :       0.4167    0.3333    0.3333
  band No.  band energies     occupation 
      1      -8.6462      2.00000
      2      -7.4226      2.00000
      3      -6.4973      2.00000
      4      -6.4973      2.00000
      5      -3.4838      2.00000
      6      -3.4838      2.00000
      7      -2.5799      2.00000
      8      -1.3792      2.00000
      9       3.5811      2.00000
     10       3.5811      2.00000
     11       4.3910      2.00000
     12       4.6219      2.00000
     13       4.6219      2.00000
     14       4.7521      2.00000
     15       5.4963      2.00000
     16       5.7318      2.00000
     17      14.7131      0.00000
     18      14.9056      0.00000
     19      14.9056      0.00000
     20      15.0451      0.00000
     21      15.4789      0.00000
     22      15.9680      0.00000
     23      16.5893      0.00000
     24      16.5912      0.00000

 k-point    77 :       0.5000    0.3333    0.3333
  band No.  band energies     occupation 
      1      -8.0713      2.00000
      2      -8.0713      2.00000
      3      -6.3933      2.00000
      4      -6.3933      2.00000
      5      -3.6821      2.00000
      6      -3.6821      2.00000
      7      -2.0399      2.00000
      8      -2.0399      2.00000
      9       3.6460      2.00000
     10       3.6460      2.00000
     11       4.6859      2.00000
     12       4.6859      2.00000
     13       5.1155      2.00000
     14       5.1155      2.00000
     15       5.2065      2.00000
     16       5.2065      2.00000
     17      14.9671      0.00000
     18      14.9671      0.00000
     19      15.6239      0.00000
     20      15.6239      0.00000
     21      15.6971      0.00000
     22      15.6971      0.00000
     23      15.8511      0.00000
     24      15.8511      0.00000

 k-point    78 :       0.4167    0.4167    0.3333
  band No.  band energies     occupation 
      1      -8.1816      2.00000
      2      -7.0562      2.00000
      3      -7.0562      2.00000
      4      -6.4975      2.00000
      5      -3.7774      2.00000
      6      -3.2291      2.00000
      7      -3.2291      2.00000
      8      -2.1257      2.00000
      9       3.9731      2.00000
     10       4.3999      2.00000
     11       4.3999      2.00000
     12       4.9336      2.00000
     13       4.9921      2.00000
     14       4.9921      2.00000
     15       5.2971      2.00000
     16       5.7165      2.00000
     17      14.9990      0.00000
     18      15.1024      0.00000
     19      15.1463      0.00000
     20      15.1463      0.00000
     21      15.6606      0.00000
     22      15.8639      0.00000
     23      15.9978      0.00000
     24      15.9978      0.00000

 k-point    79 :       0.5000    0.4167    0.3333
  band No.  band energies     occupation 
      1      -7.6407      2.00000
      2      -7.6407      2.00000
      3      -6.7092      2.00000
      4      -6.7092      2.00000
      5      -3.6677      2.00000
      6      -3.6677      2.00000
      7      -2.7542      2.00000
      8      -2.7542      2.00000
      9       4.2367      2.00000
     10       4.2367      2.00000
     11       4.9311      2.00000
     12       4.9311      2.00000
     13       5.0792      2.00000
     14       5.0792      2.00000
     15       5.4407      2.00000
     16       5.4407      2.00000
     17      15.2523      0.00000
     18      15.2523      0.00000
     19      15.3740      0.00000
     20      15.3740      0.00000
     21      15.6618      0.00000
     22      15.6618      0.00000
     23      15.8571      0.00000
     24      15.8572      0.00000

 k-point    80 :       0.5000    0.5000    0.3333
  band No.  band energies     occupation 
      1      -7.1641      2.00000
      2      -7.1641      2.00000
      3      -7.1641      2.00000
      4      -7.1641      2.00000
      5      -3.3203      2.00000
      6      -3.3203      2.00000
      7      -3.3203      2.00000
      8      -3.3203      2.00000
      9       4.6355      2.00000
     10       4.6355      2.00000
     11       4.6355      2.00000
     12       4.6355      2.00000
     13       5.3905      2.00000
     14       5.3905      2.00000
     15       5.3905      2.00000
     16       5.3905      2.00000
     17      15.2921      0.00000
     18      15.2921      0.00000
     19      15.2921      0.00000
     20      15.2921      0.00000
     21      16.0448      0.00000
     22      16.0463      0.00000
     23      16.0566      0.00000
     24      16.0652      0.00000

 k-point    81 :       0.4167    0.4167    0.4167
  band No.  band energies     occupation 
      1      -7.7491      2.00000
      2      -6.8136      2.00000
      3      -6.8136      2.00000
      4      -6.8136      2.00000
      5      -3.7667      2.00000
      6      -3.7667      2.00000
      7      -3.7667      2.00000
      8      -2.8474      2.00000
      9       4.8163      2.00000
     10       4.8163      2.00000
     11       4.8163      2.00000
     12       5.1372      2.00000
     13       5.1372      2.00000
     14       5.1372      2.00000
     15       5.5451      2.00000
     16       5.5451      2.00000
     17      14.9801      0.00000
     18      15.1657      0.00000
     19      15.1657      0.00000
     20      15.1657      0.00000
     21      15.7571      0.00000
     22      15.7573      0.00000
     23      15.9500      0.00000
     24      15.9501      0.00000

 k-point    82 :       0.5000    0.4167    0.4167
  band No.  band energies     occupation 
      1      -7.2703      2.00000
      2      -7.2703      2.00000
      3      -6.7066      2.00000
      4      -6.7066      2.00000
      5      -3.9731      2.00000
      6      -3.9731      2.00000
      7      -3.4180      2.00000
      8      -3.4180      2.00000
      9       4.9048      2.00000
     10       4.9048      2.00000
     11       5.2458      2.00000
     12       5.2458      2.00000
     13       5.3466      2.00000
     14       5.3466      2.00000
     15       5.3738      2.00000
     16       5.3738      2.00000
     17      15.1016      0.00000
     18      15.1016      0.00000
     19      15.2959      0.00000
     20      15.2959      0.00000
     21      15.6938      0.00000
     22      15.6942      0.00000
     23      15.7203      0.00000
     24      15.7206      0.00000

 k-point    83 :       0.5000    0.5000    0.4167
  band No.  band energies     occupation 
      1      -6.9196      2.00000
      2      -6.9196      2.00000
      3      -6.9196      2.00000
      4      -6.9196      2.00000
      5      -3.8645      2.00000
      6      -3.8645      2.00000
      7      -3.8645      2.00000
      8      -3.8645      2.00000
      9       5.2232      2.00000
     10       5.2232      2.00000
     11       5.2232      2.00000
     12       5.2232      2.00000
     13       5.4231      2.00000
     14       5.4231      2.00000
     15       5.4231      2.00000
     16       5.4231      2.00000
     17      15.1155      0.00000
     18      15.1155      0.00000
     19      15.1155      0.00000
     20      15.1155      0.00000
     21      15.8185      0.00000
     22      15.8194      0.00000
     23      15.8335      0.00000
     24      15.8534      0.00000

 k-point    84 :       0.5000    0.5000    0.5000
  band No.  band energies     occupation 
      1      -6.8116      2.00000
      2      -6.8116      2.00000
      3      -6.8116      2.00000
      4      -6.8116      2.00000
      5      -4.0735      2.00000
      6      -4.0735      2.00000
      7      -4.0735      2.00000
      8      -4.0735      2.00000
      9       5.4349      2.00000
     10       5.4349      2.00000
     11       5.4349      2.00000
     12       5.4349      2.00000
     13       5.4349      2.00000
     14       5.4349      2.00000
     15       5.4349      2.00000
     16       5.4349      2.00000
     17      14.9903      0.00000
     18      14.9903      0.00000
     19      14.9903      0.00000
     20      14.9903      0.00000
     21      15.7901      0.00000
     22      15.7901      0.00000
     23      15.7901      0.00000
     24      15.7901      0.00000


--------------------------------------------------------------------------------------------------------


 soft charge-density along one line, spin component           1
         0         1         2         3         4         5         6         7         8         9
 total charge-density along one line
 
 pseudopotential strength for first ion, spin component:           1
  9.543  -0.002   0.000   0.000  -0.000  -0.000  -0.000   0.000
 -0.002  -0.002  -0.000  -0.000   0.000  -0.000  -0.000  -0.000
  0.000  -0.000  -3.767   0.000  -0.000  -0.004   0.000  -0.000
  0.000  -0.000   0.000  -3.767   0.000   0.000  -0.004   0.000
 -0.000   0.000  -0.000   0.000  -3.767  -0.000   0.000  -0.004
 -0.000  -0.000  -0.004   0.000  -0.000  -0.759   0.000  -0.000
 -0.000  -0.000   0.000  -0.004   0.000   0.000  -0.759   0.000
  0.000  -0.000  -0.000   0.000  -0.004  -0.000   0.000  -0.759
 total augmentation occupancy for first ion, spin component:           1
  1.416  -0.853   0.000   0.000  -0.000  -0.000  -0.000  -0.000
 -0.853   0.772  -0.000   0.000  -0.000  -0.000   0.000   0.000
  0.000  -0.000   1.026   0.000   0.000   0.161  -0.000  -0.000
 -0.000   0.000   0.000   1.026  -0.000  -0.000   0.161   0.000
  0.000   0.000   0.000  -0.000   1.026   0.000  -0.000   0.161
 -0.000  -0.000   0.161   0.000   0.000   0.029   0.000  -0.000
 -0.000   0.000  -0.000   0.161  -0.000   0.000   0.029   0.000
  0.000   0.000  -0.000   0.000   0.161   0.000  -0.000   0.029


------------------------ aborting loop because EDIFF is reached ----------------------------------------


    CHARGE:  cpu time    0.1400: real time    0.1400
    FORLOC:  cpu time    0.0021: real time    0.0021
    FORNL :  cpu time    0.2242: real time    0.2242
    STRESS:  cpu time    0.5317: real time    0.5319
    FORHAR:  cpu time    0.0056: real time    0.0056
    MIXING:  cpu time    0.0019: real time    0.0019
    OFIELD:  cpu time    0.0001: real time    0.0001

  FORCE on cell =-STRESS in cart. coord.  units (eV):
  Direction    XX          YY          ZZ          XY          YZ          ZX
  --------------------------------------------------------------------------------------
  Alpha Z   100.41839   100.41839   100.41839
  Ewald    -443.54741  -443.54741  -443.54741    -0.00000    -0.00000     0.00000
  Hartree    37.79106    37.79106    37.79106    -0.00000    -0.00000    -0.00000
  E(xc)    -116.14876  -116.14876  -116.14876     0.00000     0.00000    -0.00000
  Local     -56.00871   -56.00871   -56.00871    -0.00000     0.00000     0.00000
  n-local   -22.43081   -23.29360   -22.18784     0.71655     0.91750     0.43952
  augment    -2.35721    -2.35721    -2.35721     0.00000    -0.00000     0.00000
  Kinetic   477.16524   492.23394   491.45848    -4.63650    -6.48839    -3.23954
  Fock        0.00000     0.00000     0.00000     0.00000     0.00000     0.00000
  -------------------------------------------------------------------------------------
  Total     -15.53750   -15.53750   -15.53750    -0.00000    -0.00000    -0.00000
  in kB    -479.37262  -479.37262  -479.37262    -0.00000    -0.00000    -0.00000
  external pressure =     -479.37 kB  Pullay stress =        0.00 kB


 VOLUME and BASIS-vectors are now :
 -----------------------------------------------------------------------------
  energy-cutoff  :      400.00
  volume of cell :       51.93
      direct lattice vectors                 reciprocal lattice vectors
     3.730836397  0.000000000  0.000000000     0.268036412  0.000000000  0.000000000
     0.000000000  3.730836397  0.000000000     0.000000000  0.268036412  0.000000000
     0.000000000  0.000000000  3.730836397     0.000000000  0.000000000  0.268036412

  length of vectors
     3.730836397  3.730836397  3.730836397     0.268036412  0.268036412  0.268036412


 FORCES acting on ions
    electron-ion (+dipol)            ewald-force                    non-local-force                 convergence-correction
 -----------------------------------------------------------------------------------------------
   0.229E-13 -.145E-12 0.345E-13   -.213E-13 -.711E-14 0.142E-13   -.838E-17 -.347E-17 -.284E-16   -.973E-14 0.308E-14 -.174E-14
   -.762E-14 -.155E-15 0.540E-13   -.201E-13 0.130E-13 0.142E-13   0.241E-16 -.852E-18 0.257E-16   0.627E-14 -.233E-14 -.152E-14
   0.229E-13 -.170E-12 0.596E-13   0.711E-14 -.711E-14 0.000E+00   -.347E-16 0.628E-17 -.565E-16   -.991E-14 0.300E-14 -.336E-14
   -.762E-14 0.241E-13 0.289E-13   0.729E-14 0.142E-13 0.827E-16   0.274E-16 -.825E-17 0.365E-16   0.549E-14 -.834E-15 -.977E-15
   0.229E-13 0.205E-12 0.425E-12   0.711E-14 -.142E-13 0.000E+00   -.274E-16 -.894E-18 -.256E-16   -.277E-14 0.252E-14 -.429E-14
   0.152E-13 0.227E-15 -.387E-12   0.711E-14 0.646E-14 0.829E-16   -.652E-17 0.367E-18 0.292E-16   0.654E-14 -.163E-14 -.110E-14
   0.457E-13 -.203E-12 0.187E-13   0.213E-13 -.142E-13 -.142E-13   -.326E-16 -.172E-17 -.394E-16   -.180E-14 0.270E-14 -.364E-14
   0.152E-13 0.372E-12 0.519E-13   0.213E-13 0.713E-14 -.143E-13   0.294E-16 -.166E-16 0.541E-16   0.592E-14 0.112E-14 -.570E-15
 -----------------------------------------------------------------------------------------------
   0.130E-12 0.822E-13 0.286E-12   0.297E-13 -.176E-14 0.592E-16   -.287E-16 -.252E-16 -.432E-17   0.956E-17 0.763E-14 -.172E-13
 
 
 POSITION                                       TOTAL-FORCE (eV/Angst)
 -----------------------------------------------------------------------------------
      0.93271      2.79813      0.93271        -0.000000      0.000000     -0.000000
      0.00000      0.00000      1.86542         0.000000     -0.000000      0.000000
      0.93271      0.93271      2.79813        -0.000000      0.000000     -0.000000
      0.00000      1.86542      0.00000         0.000000     -0.000000      0.000000
      2.79813      2.79813      2.79813        -0.000000      0.000000     -0.000000
      1.86542      0.00000      0.00000         0.000000     -0.000000      0.000000
      2.79813      0.93271      0.93271        -0.000000      0.000000     -0.000000
      1.86542      1.86542      1.86542         0.000000     -0.000000      0.000000
 -----------------------------------------------------------------------------------
    total drift:                                0.000000      0.000000      0.000000


--------------------------------------------------------------------------------------------------------



  FREE ENERGIE OF THE ION-ELECTRON SYSTEM (eV)
  ---------------------------------------------------
  free  energy   TOTEN  =       -71.79018766 eV

  energy  without entropy=      -71.79018766  energy(sigma->0) =      -71.79018766
 


--------------------------------------------------------------------------------------------------------


    POTLOK:  cpu time    0.0291: real time    0.0291


--------------------------------------------------------------------------------------------------------


     LOOP+:  cpu time   55.1118: real time   55.3531
    4ORBIT:  cpu time    0.0000: real time    0.0000
 BZINTS: Fermi energy:  7.908669; 32.000000 electrons
         Band energy:  -9.353712;  BLOECHL correction:  0.000000

 total amount of memory used by VASP MPI-rank0    34435. kBytes
=======================================================================

   base      :      30000. kBytes
   nonl-proj :       1409. kBytes
   fftplans  :        346. kBytes
   grid      :        481. kBytes
   one-center:          6. kBytes
   wavefun   :       2193. kBytes
 
  
  
 General timing and accounting informations for this job:
 ========================================================
  
                  Total CPU time used (sec):       57.506
                            User time (sec):       55.578
                          System time (sec):        1.928
                         Elapsed time (sec):       57.823
  
                   Maximum memory used (kb):      189604.
                   Average memory used (kb):           0.
  
                          Minor page faults:        36884
                          Major page faults:           36
                 Voluntary context switches:          784
