   8   8   0   0
  0.4871152E+01  0.3390319E-09  0.3390319E-09  0.3390319E-09  0.2000000E-16
  1.000000000000000E-004
  CAR 
 unknown system                          
     26.92526504    -13.37472847  301     12.16539241      1.00000000
    -13.375  0.0000E+00  0.0000E+00
    -13.240  0.0000E+00  0.0000E+00
    -13.106  0.0000E+00  0.0000E+00
    -12.972  0.0000E+00  0.0000E+00
    -12.837  0.0000E+00  0.0000E+00
    -12.703  0.0000E+00  0.0000E+00
    -12.569  0.0000E+00  0.0000E+00
    -12.434  0.0000E+00  0.0000E+00
    -12.300  0.0000E+00  0.0000E+00
    -12.166  0.0000E+00  0.0000E+00
    -12.031  0.0000E+00  0.0000E+00
    -11.897  0.0000E+00  0.0000E+00
    -11.763  0.0000E+00  0.0000E+00
    -11.628  0.0000E+00  0.0000E+00
    -11.494  0.3093E-01  0.5036E-03
    -11.360  0.1380E+00  0.1476E-01
    -11.225  0.2162E+00  0.3850E-01
    -11.091  0.2443E+00  0.6915E-01
    -10.957  0.2865E+00  0.1048E+00
    -10.822  0.3232E+00  0.1462E+00
    -10.688  0.3487E+00  0.1912E+00
    -10.554  0.3758E+00  0.2398E+00
    -10.419  0.4098E+00  0.2926E+00
    -10.285  0.4309E+00  0.3493E+00
    -10.151  0.4515E+00  0.4085E+00
    -10.016  0.4739E+00  0.4706E+00
     -9.882  0.4988E+00  0.5360E+00
     -9.748  0.5234E+00  0.6046E+00
     -9.613  0.5399E+00  0.6760E+00
     -9.479  0.5573E+00  0.7498E+00
     -9.345  0.5763E+00  0.8259E+00
     -9.210  0.5959E+00  0.9046E+00
     -9.076  0.6167E+00  0.9860E+00
     -8.942  0.6365E+00  0.1070E+01
     -8.807  0.6515E+00  0.1157E+01
     -8.673  0.6663E+00  0.1245E+01
     -8.539  0.6832E+00  0.1336E+01
     -8.404  0.7006E+00  0.1429E+01
     -8.270  0.7187E+00  0.1524E+01
     -8.136  0.7375E+00  0.1622E+01
     -8.001  0.7529E+00  0.1722E+01
     -7.867  0.7673E+00  0.1824E+01
     -7.733  0.7823E+00  0.1928E+01
     -7.598  0.7981E+00  0.2034E+01
     -7.464  0.8140E+00  0.2143E+01
     -7.330  0.8305E+00  0.2253E+01
     -7.195  0.8825E+00  0.2368E+01
     -7.061  0.9062E+00  0.2488E+01
     -6.927  0.9485E+00  0.2613E+01
     -6.792  0.9531E+00  0.2741E+01
     -6.658  0.9373E+00  0.2868E+01
     -6.524  0.9076E+00  0.2992E+01
     -6.389  0.9233E+00  0.3114E+01
     -6.255  0.9288E+00  0.3239E+01
     -6.121  0.9310E+00  0.3364E+01
     -5.986  0.9348E+00  0.3489E+01
     -5.852  0.9694E+00  0.3617E+01
     -5.718  0.1022E+01  0.3750E+01
     -5.583  0.1083E+01  0.3890E+01
     -5.449  0.1114E+01  0.4038E+01
     -5.315  0.1104E+01  0.4187E+01
     -5.180  0.1141E+01  0.4337E+01
     -5.046  0.1234E+01  0.4496E+01
     -4.912  0.1384E+01  0.4672E+01
     -4.777  0.1392E+01  0.4860E+01
     -4.643  0.1299E+01  0.5039E+01
     -4.509  0.1339E+01  0.5215E+01
     -4.374  0.1198E+01  0.5385E+01
     -4.240  0.1217E+01  0.5546E+01
     -4.106  0.1264E+01  0.5713E+01
     -3.971  0.1170E+01  0.5878E+01
     -3.837  0.1085E+01  0.6028E+01
     -3.703  0.1053E+01  0.6171E+01
     -3.568  0.1025E+01  0.6311E+01
     -3.434  0.1010E+01  0.6447E+01
     -3.300  0.1021E+01  0.6584E+01
     -3.165  0.9794E+00  0.6722E+01
     -3.031  0.9726E+00  0.6856E+01
     -2.897  0.9905E+00  0.6983E+01
     -2.762  0.1037E+01  0.7120E+01
     -2.628  0.1069E+01  0.7260E+01
     -2.494  0.1156E+01  0.7411E+01
     -2.359  0.1225E+01  0.7566E+01
     -2.225  0.1138E+01  0.7722E+01
     -2.091  0.1189E+01  0.7879E+01
     -1.956  0.1157E+01  0.8035E+01
     -1.822  0.1115E+01  0.8188E+01
     -1.688  0.1159E+01  0.8349E+01
     -1.553  0.1046E+01  0.8498E+01
     -1.419  0.1080E+01  0.8641E+01
     -1.285  0.1085E+01  0.8785E+01
     -1.150  0.1110E+01  0.8932E+01
     -1.016  0.1176E+01  0.9085E+01
     -0.882  0.1298E+01  0.9250E+01
     -0.747  0.1548E+01  0.9439E+01
     -0.613  0.1943E+01  0.9675E+01
     -0.479  0.2137E+01  0.9953E+01
     -0.344  0.2144E+01  0.1024E+02
     -0.210  0.2048E+01  0.1053E+02
     -0.076  0.1724E+01  0.1079E+02
      0.059  0.1618E+01  0.1101E+02
      0.193  0.1383E+01  0.1121E+02
      0.327  0.1307E+01  0.1139E+02
      0.462  0.1249E+01  0.1156E+02
      0.596  0.1210E+01  0.1173E+02
      0.730  0.1193E+01  0.1189E+02
      0.865  0.1186E+01  0.1205E+02
      0.999  0.1195E+01  0.1221E+02
      1.133  0.1299E+01  0.1237E+02
      1.268  0.1380E+01  0.1256E+02
      1.402  0.1146E+01  0.1273E+02
      1.536  0.1151E+01  0.1288E+02
      1.671  0.1228E+01  0.1304E+02
      1.805  0.1482E+01  0.1322E+02
      1.939  0.2101E+01  0.1345E+02
      2.074  0.1999E+01  0.1373E+02
      2.208  0.1793E+01  0.1398E+02
      2.342  0.1682E+01  0.1422E+02
      2.477  0.1733E+01  0.1444E+02
      2.611  0.2106E+01  0.1470E+02
      2.745  0.2190E+01  0.1499E+02
      2.880  0.2090E+01  0.1529E+02
      3.014  0.1587E+01  0.1553E+02
      3.148  0.1324E+01  0.1573E+02
      3.283  0.1277E+01  0.1590E+02
      3.417  0.1693E+01  0.1610E+02
      3.551  0.1930E+01  0.1634E+02
      3.686  0.1992E+01  0.1661E+02
      3.820  0.2078E+01  0.1688E+02
      3.954  0.2204E+01  0.1717E+02
      4.089  0.2251E+01  0.1747E+02
      4.223  0.2450E+01  0.1779E+02
      4.357  0.2814E+01  0.1814E+02
      4.492  0.2439E+01  0.1850E+02
      4.626  0.2175E+01  0.1881E+02
      4.760  0.2331E+01  0.1912E+02
      4.895  0.2597E+01  0.1945E+02
      5.029  0.2486E+01  0.1980E+02
      5.163  0.2526E+01  0.2013E+02
      5.298  0.2914E+01  0.2050E+02
      5.432  0.3079E+01  0.2091E+02
      5.566  0.3036E+01  0.2132E+02
      5.701  0.2762E+01  0.2171E+02
      5.835  0.2761E+01  0.2210E+02
      5.969  0.2490E+01  0.2244E+02
      6.104  0.2568E+01  0.2277E+02
      6.238  0.2500E+01  0.2312E+02
      6.372  0.2373E+01  0.2344E+02
      6.507  0.2491E+01  0.2377E+02
      6.641  0.2579E+01  0.2411E+02
      6.775  0.2627E+01  0.2446E+02
      6.910  0.2594E+01  0.2481E+02
      7.044  0.2684E+01  0.2516E+02
      7.178  0.2685E+01  0.2553E+02
      7.313  0.2383E+01  0.2587E+02
      7.447  0.2223E+01  0.2618E+02
      7.581  0.2052E+01  0.2646E+02
      7.716  0.2126E+01  0.2674E+02
      7.850  0.2217E+01  0.2702E+02
      7.984  0.2568E+01  0.2735E+02
      8.119  0.2386E+01  0.2768E+02
      8.253  0.2360E+01  0.2799E+02
      8.387  0.2360E+01  0.2831E+02
      8.522  0.2084E+01  0.2860E+02
      8.656  0.1994E+01  0.2888E+02
      8.790  0.2285E+01  0.2916E+02
      8.925  0.2275E+01  0.2952E+02
      9.059  0.1620E+01  0.2977E+02
      9.193  0.1471E+01  0.2997E+02
      9.328  0.1364E+01  0.3016E+02
      9.462  0.1230E+01  0.3034E+02
      9.596  0.1172E+01  0.3050E+02
      9.731  0.1124E+01  0.3065E+02
      9.865  0.1055E+01  0.3080E+02
      9.999  0.9810E+00  0.3094E+02
     10.134  0.8746E+00  0.3106E+02
     10.268  0.7936E+00  0.3117E+02
     10.402  0.7606E+00  0.3128E+02
     10.537  0.7272E+00  0.3138E+02
     10.671  0.6865E+00  0.3147E+02
     10.805  0.6215E+00  0.3156E+02
     10.940  0.5440E+00  0.3164E+02
     11.074  0.4760E+00  0.3171E+02
     11.208  0.4751E+00  0.3177E+02
     11.343  0.3855E+00  0.3183E+02
     11.477  0.3118E+00  0.3188E+02
     11.611  0.3398E+00  0.3192E+02
     11.746  0.2089E+00  0.3196E+02
     11.880  0.1171E+00  0.3198E+02
     12.014  0.3290E-01  0.3200E+02
     12.149  0.0000E+00  0.3200E+02
     12.283  0.0000E+00  0.3200E+02
     12.417  0.0000E+00  0.3200E+02
     12.552  0.0000E+00  0.3200E+02
     12.686  0.0000E+00  0.3200E+02
     12.820  0.0000E+00  0.3200E+02
     12.955  0.0000E+00  0.3200E+02
     13.089  0.0000E+00  0.3200E+02
     13.223  0.0000E+00  0.3200E+02
     13.358  0.0000E+00  0.3200E+02
     13.492  0.0000E+00  0.3200E+02
     13.626  0.0000E+00  0.3200E+02
     13.761  0.0000E+00  0.3200E+02
     13.895  0.0000E+00  0.3200E+02
     14.029  0.0000E+00  0.3200E+02
     14.164  0.0000E+00  0.3200E+02
     14.298  0.0000E+00  0.3200E+02
     14.432  0.0000E+00  0.3200E+02
     14.567  0.0000E+00  0.3200E+02
     14.701  0.0000E+00  0.3200E+02
     14.835  0.0000E+00  0.3200E+02
     14.970  0.0000E+00  0.3200E+02
     15.104  0.0000E+00  0.3200E+02
     15.238  0.0000E+00  0.3200E+02
     15.373  0.0000E+00  0.3200E+02
     15.507  0.0000E+00  0.3200E+02
     15.641  0.0000E+00  0.3200E+02
     15.776  0.0000E+00  0.3200E+02
     15.910  0.0000E+00  0.3200E+02
     16.044  0.0000E+00  0.3200E+02
     16.179  0.0000E+00  0.3200E+02
     16.313  0.0000E+00  0.3200E+02
     16.447  0.0000E+00  0.3200E+02
     16.582  0.5990E-03  0.3200E+02
     16.716  0.9185E-01  0.3200E+02
     16.850  0.2677E+00  0.3203E+02
     16.985  0.4981E+00  0.3208E+02
     17.119  0.5709E+00  0.3215E+02
     17.253  0.6193E+00  0.3223E+02
     17.388  0.7529E+00  0.3232E+02
     17.522  0.8294E+00  0.3243E+02
     17.656  0.1007E+01  0.3255E+02
     17.791  0.1328E+01  0.3273E+02
     17.925  0.1351E+01  0.3291E+02
     18.059  0.1383E+01  0.3310E+02
     18.194  0.1397E+01  0.3329E+02
     18.328  0.1423E+01  0.3347E+02
     18.462  0.1519E+01  0.3367E+02
     18.597  0.1642E+01  0.3388E+02
     18.731  0.1810E+01  0.3411E+02
     18.865  0.2041E+01  0.3437E+02
     19.000  0.2090E+01  0.3465E+02
     19.134  0.1904E+01  0.3492E+02
     19.268  0.1908E+01  0.3517E+02
     19.403  0.1969E+01  0.3543E+02
     19.537  0.2023E+01  0.3570E+02
     19.671  0.2159E+01  0.3598E+02
     19.806  0.2323E+01  0.3628E+02
     19.940  0.2428E+01  0.3660E+02
     20.074  0.2506E+01  0.3694E+02
     20.209  0.2566E+01  0.3728E+02
     20.343  0.2726E+01  0.3763E+02
     20.477  0.3003E+01  0.3801E+02
     20.612  0.3344E+01  0.3845E+02
     20.746  0.4301E+01  0.3895E+02
     20.880  0.3793E+01  0.3950E+02
     21.015  0.3716E+01  0.3999E+02
     21.149  0.3053E+01  0.4046E+02
     21.283  0.2320E+01  0.4080E+02
     21.418  0.2389E+01  0.4112E+02
     21.552  0.2209E+01  0.4143E+02
     21.686  0.2378E+01  0.4173E+02
     21.821  0.2863E+01  0.4208E+02
     21.955  0.2854E+01  0.4246E+02
     22.089  0.2680E+01  0.4282E+02
     22.224  0.2976E+01  0.4320E+02
     22.358  0.3096E+01  0.4361E+02
     22.492  0.3145E+01  0.4404E+02
     22.627  0.2967E+01  0.4445E+02
     22.761  0.2842E+01  0.4484E+02
     22.895  0.2703E+01  0.4521E+02
     23.030  0.2406E+01  0.4554E+02
     23.164  0.2492E+01  0.4587E+02
     23.298  0.2592E+01  0.4622E+02
     23.433  0.2544E+01  0.4656E+02
     23.567  0.2580E+01  0.4691E+02
     23.701  0.2484E+01  0.4725E+02
     23.836  0.1940E+01  0.4755E+02
     23.970  0.1059E+01  0.4775E+02
     24.104  0.5721E+00  0.4785E+02
     24.239  0.2394E+00  0.4791E+02
     24.373  0.1820E+00  0.4794E+02
     24.507  0.1430E+00  0.4796E+02
     24.642  0.1041E+00  0.4798E+02
     24.776  0.6753E-01  0.4799E+02
     24.910  0.3485E-01  0.4800E+02
     25.045  0.6096E-02  0.4800E+02
     25.179  0.0000E+00  0.4800E+02
     25.313  0.0000E+00  0.4800E+02
     25.448  0.0000E+00  0.4800E+02
     25.582  0.0000E+00  0.4800E+02
     25.716  0.0000E+00  0.4800E+02
     25.851  0.0000E+00  0.4800E+02
     25.985  0.0000E+00  0.4800E+02
     26.119  0.0000E+00  0.4800E+02
     26.254  0.0000E+00  0.4800E+02
     26.388  0.0000E+00  0.4800E+02
     26.522  0.0000E+00  0.4800E+02
     26.657  0.0000E+00  0.4800E+02
     26.791  0.0000E+00  0.4800E+02
     26.925  0.0000E+00  0.4800E+02
