       N       E                     dE             d eps       ncg     rms          rms(c)
DAV:   1     0.627612594664E+02    0.62761E+02   -0.14788E+04  4040   0.107E+03
DAV:   2    -0.708893268911E+02   -0.13365E+03   -0.12738E+03  5520   0.233E+02
DAV:   3    -0.749367970310E+02   -0.40475E+01   -0.40295E+01  5216   0.375E+01
DAV:   4    -0.749694491290E+02   -0.32652E-01   -0.32624E-01  5048   0.376E+00
DAV:   5    -0.749699315572E+02   -0.48243E-03   -0.48228E-03  5144   0.400E-01    0.114E+01
DAV:   6    -0.720563588085E+02    0.29136E+01   -0.18704E+00  4400   0.818E+00    0.611E+00
DAV:   7    -0.710787129354E+02    0.97765E+00   -0.20320E+00  4568   0.876E+00    0.732E-01
DAV:   8    -0.710879446776E+02   -0.92317E-02   -0.36437E-02  5016   0.115E+00    0.924E-02
DAV:   9    -0.710881313244E+02   -0.18665E-03   -0.42908E-04  4768   0.146E-01    0.300E-02
DAV:  10    -0.710881741152E+02   -0.42791E-04   -0.31057E-05  5024   0.446E-02    0.301E-03
DAV:  11    -0.710881749558E+02   -0.84067E-06   -0.96362E-07  3632   0.731E-03
   1 F= -.71088175E+02 E0= -.71088175E+02  d E =0.000000E+00
