  64  64   0   0
  0.5270900E+01  0.6961266E-09  0.6961266E-09  0.6961266E-09  0.5000000E-15
  1.000000000000000E-004
  CAR 
 unknown system                          
     24.91965644    -13.38099042  301     11.14738217      1.00000000
    -13.381  0.0000E+00  0.0000E+00
    -13.253  0.0000E+00  0.0000E+00
    -13.126  0.0000E+00  0.0000E+00
    -12.998  0.0000E+00  0.0000E+00
    -12.870  0.0000E+00  0.0000E+00
    -12.743  0.0000E+00  0.0000E+00
    -12.615  0.0000E+00  0.0000E+00
    -12.487  0.0000E+00  0.0000E+00
    -12.360  0.0000E+00  0.0000E+00
    -12.232  0.0000E+00  0.0000E+00
    -12.104  0.0000E+00  0.0000E+00
    -11.977  0.7649E-16  0.9766E-17
    -11.849  0.3075E-07  0.3925E-08
    -11.721  0.2113E-02  0.2697E-03
    -11.594  0.2119E+00  0.2733E-01
    -11.466  0.1161E+01  0.1755E+00
    -11.338  0.1288E+01  0.3400E+00
    -11.211  0.2716E+01  0.6867E+00
    -11.083  0.1366E+01  0.8611E+00
    -10.955  0.3354E+01  0.1289E+01
    -10.828  0.2690E+01  0.1633E+01
    -10.700  0.3578E+01  0.2089E+01
    -10.572  0.2176E+01  0.2367E+01
    -10.445  0.4312E+01  0.2918E+01
    -10.317  0.4073E+01  0.3438E+01
    -10.189  0.4751E+01  0.4044E+01
    -10.062  0.2218E+01  0.4328E+01
     -9.934  0.4120E+01  0.4854E+01
     -9.806  0.6252E+01  0.5652E+01
     -9.679  0.4886E+01  0.6276E+01
     -9.551  0.4494E+01  0.6849E+01
     -9.423  0.3438E+01  0.7288E+01
     -9.296  0.6533E+01  0.8122E+01
     -9.168  0.4734E+01  0.8727E+01
     -9.040  0.5536E+01  0.9433E+01
     -8.913  0.5472E+01  0.1013E+02
     -8.785  0.7571E+01  0.1110E+02
     -8.657  0.5154E+01  0.1176E+02
     -8.530  0.6024E+01  0.1253E+02
     -8.402  0.2625E+01  0.1286E+02
     -8.274  0.8916E+01  0.1400E+02
     -8.147  0.6414E+01  0.1482E+02
     -8.019  0.9514E+01  0.1603E+02
     -7.891  0.5219E+01  0.1670E+02
     -7.764  0.5807E+01  0.1744E+02
     -7.636  0.5937E+01  0.1820E+02
     -7.508  0.9023E+01  0.1935E+02
     -7.381  0.3852E+01  0.1984E+02
     -7.253  0.1118E+02  0.2127E+02
     -7.125  0.7378E+01  0.2221E+02
     -6.998  0.8383E+01  0.2328E+02
     -6.870  0.4069E+01  0.2380E+02
     -6.742  0.1216E+02  0.2535E+02
     -6.615  0.8773E+01  0.2647E+02
     -6.487  0.6187E+01  0.2726E+02
     -6.359  0.6243E+01  0.2806E+02
     -6.232  0.9465E+01  0.2927E+02
     -6.104  0.9326E+01  0.3046E+02
     -5.976  0.9691E+01  0.3170E+02
     -5.849  0.1242E+02  0.3328E+02
     -5.721  0.9083E+01  0.3444E+02
     -5.593  0.1015E+02  0.3574E+02
     -5.466  0.7271E+01  0.3667E+02
     -5.338  0.1025E+02  0.3798E+02
     -5.210  0.1094E+02  0.3937E+02
     -5.083  0.1375E+02  0.4113E+02
     -4.955  0.1045E+02  0.4246E+02
     -4.827  0.1234E+02  0.4404E+02
     -4.700  0.6928E+01  0.4492E+02
     -4.572  0.1161E+02  0.4640E+02
     -4.444  0.1260E+02  0.4801E+02
     -4.317  0.6769E+01  0.4888E+02
     -4.189  0.1094E+02  0.5027E+02
     -4.061  0.7225E+01  0.5120E+02
     -3.933  0.6460E+01  0.5202E+02
     -3.806  0.5320E+01  0.5270E+02
     -3.678  0.1403E+02  0.5449E+02
     -3.550  0.9384E+01  0.5569E+02
     -3.423  0.3002E+01  0.5607E+02
     -3.295  0.8818E+01  0.5720E+02
     -3.167  0.1127E+02  0.5864E+02
     -3.040  0.8533E+01  0.5973E+02
     -2.912  0.1158E+02  0.6121E+02
     -2.784  0.5765E+01  0.6194E+02
     -2.657  0.6317E+01  0.6275E+02
     -2.529  0.6554E+01  0.6358E+02
     -2.401  0.9643E+01  0.6482E+02
     -2.274  0.1378E+02  0.6658E+02
     -2.146  0.1043E+02  0.6791E+02
     -2.018  0.8299E+01  0.6897E+02
     -1.891  0.1038E+02  0.7029E+02
     -1.763  0.1094E+02  0.7169E+02
     -1.635  0.8406E+01  0.7276E+02
     -1.508  0.1075E+02  0.7413E+02
     -1.380  0.8069E+01  0.7516E+02
     -1.252  0.1780E+02  0.7744E+02
     -1.125  0.1320E+02  0.7912E+02
     -0.997  0.1155E+02  0.8060E+02
     -0.869  0.2749E+02  0.8411E+02
     -0.742  0.2322E+02  0.8707E+02
     -0.614  0.1337E+02  0.8878E+02
     -0.486  0.8046E+01  0.8981E+02
     -0.359  0.1013E+02  0.9110E+02
     -0.231  0.7611E+01  0.9207E+02
     -0.103  0.8566E+01  0.9316E+02
      0.024  0.1151E+02  0.9463E+02
      0.152  0.6673E+01  0.9548E+02
      0.280  0.8932E+01  0.9662E+02
      0.407  0.1212E+02  0.9817E+02
      0.535  0.1763E+02  0.1004E+03
      0.663  0.9792E+01  0.1017E+03
      0.790  0.3947E+01  0.1022E+03
      0.918  0.5990E+01  0.1029E+03
      1.046  0.1078E+02  0.1043E+03
      1.173  0.1426E+02  0.1061E+03
      1.301  0.1201E+02  0.1077E+03
      1.429  0.1529E+02  0.1096E+03
      1.556  0.1271E+02  0.1112E+03
      1.684  0.1971E+02  0.1138E+03
      1.812  0.1911E+02  0.1162E+03
      1.939  0.1315E+02  0.1179E+03
      2.067  0.1338E+02  0.1196E+03
      2.195  0.1381E+02  0.1214E+03
      2.322  0.9789E+01  0.1226E+03
      2.450  0.2001E+02  0.1252E+03
      2.578  0.2294E+02  0.1281E+03
      2.705  0.1820E+02  0.1304E+03
      2.833  0.7935E+01  0.1314E+03
      2.961  0.1236E+02  0.1330E+03
      3.088  0.2089E+02  0.1357E+03
      3.216  0.1600E+02  0.1377E+03
      3.344  0.1981E+02  0.1402E+03
      3.471  0.1701E+02  0.1424E+03
      3.599  0.2240E+02  0.1453E+03
      3.727  0.1784E+02  0.1475E+03
      3.854  0.1597E+02  0.1496E+03
      3.982  0.2073E+02  0.1522E+03
      4.110  0.2058E+02  0.1549E+03
      4.237  0.3492E+02  0.1593E+03
      4.365  0.2251E+02  0.1622E+03
      4.493  0.1375E+02  0.1640E+03
      4.620  0.2364E+02  0.1670E+03
      4.748  0.2185E+02  0.1698E+03
      4.876  0.2710E+02  0.1732E+03
      5.003  0.2837E+02  0.1768E+03
      5.131  0.2093E+02  0.1795E+03
      5.259  0.2470E+02  0.1827E+03
      5.386  0.2015E+02  0.1852E+03
      5.514  0.1875E+02  0.1876E+03
      5.642  0.1542E+02  0.1896E+03
      5.769  0.2364E+02  0.1926E+03
      5.897  0.2622E+02  0.1960E+03
      6.025  0.2541E+02  0.1992E+03
      6.152  0.1924E+02  0.2017E+03
      6.280  0.2298E+02  0.2046E+03
      6.408  0.1372E+02  0.2064E+03
      6.535  0.2485E+02  0.2095E+03
      6.663  0.1851E+02  0.2119E+03
      6.791  0.1383E+02  0.2137E+03
      6.918  0.2165E+02  0.2164E+03
      7.046  0.2813E+02  0.2200E+03
      7.174  0.1646E+02  0.2221E+03
      7.301  0.2402E+02  0.2252E+03
      7.429  0.1589E+02  0.2272E+03
      7.557  0.1375E+02  0.2290E+03
      7.684  0.1392E+02  0.2307E+03
      7.812  0.2021E+02  0.2333E+03
      7.940  0.2762E+02  0.2368E+03
      8.067  0.1889E+02  0.2393E+03
      8.195  0.6694E+01  0.2401E+03
      8.323  0.5961E+01  0.2409E+03
      8.450  0.1237E+02  0.2425E+03
      8.578  0.1221E+02  0.2440E+03
      8.706  0.1062E+02  0.2454E+03
      8.833  0.1303E+02  0.2470E+03
      8.961  0.5152E+01  0.2477E+03
      9.089  0.8045E+01  0.2487E+03
      9.216  0.5734E+01  0.2494E+03
      9.344  0.6012E+01  0.2502E+03
      9.472  0.7560E+01  0.2512E+03
      9.599  0.7205E+01  0.2521E+03
      9.727  0.3802E+01  0.2526E+03
      9.855  0.3310E+01  0.2530E+03
      9.982  0.6868E+01  0.2539E+03
     10.110  0.3640E+01  0.2544E+03
     10.238  0.2275E+01  0.2546E+03
     10.365  0.3083E+01  0.2550E+03
     10.493  0.2805E+01  0.2554E+03
     10.621  0.3116E+01  0.2558E+03
     10.748  0.6985E+00  0.2559E+03
     10.876  0.8534E+00  0.2560E+03
     11.004  0.8812E-01  0.2560E+03
     11.131  0.8509E-04  0.2560E+03
     11.259  0.2078E-10  0.2560E+03
     11.387  0.0000E+00  0.2560E+03
     11.514  0.0000E+00  0.2560E+03
     11.642  0.0000E+00  0.2560E+03
     11.770  0.0000E+00  0.2560E+03
     11.897  0.0000E+00  0.2560E+03
     12.025  0.0000E+00  0.2560E+03
     12.153  0.0000E+00  0.2560E+03
     12.280  0.0000E+00  0.2560E+03
     12.408  0.0000E+00  0.2560E+03
     12.536  0.0000E+00  0.2560E+03
     12.663  0.0000E+00  0.2560E+03
     12.791  0.0000E+00  0.2560E+03
     12.919  0.0000E+00  0.2560E+03
     13.046  0.0000E+00  0.2560E+03
     13.174  0.0000E+00  0.2560E+03
     13.302  0.0000E+00  0.2560E+03
     13.429  0.0000E+00  0.2560E+03
     13.557  0.0000E+00  0.2560E+03
     13.685  0.0000E+00  0.2560E+03
     13.812  0.0000E+00  0.2560E+03
     13.940  0.0000E+00  0.2560E+03
     14.068  0.0000E+00  0.2560E+03
     14.195  0.0000E+00  0.2560E+03
     14.323  0.0000E+00  0.2560E+03
     14.451  0.0000E+00  0.2560E+03
     14.578  0.0000E+00  0.2560E+03
     14.706  0.0000E+00  0.2560E+03
     14.834  0.4080E-13  0.2560E+03
     14.961  0.3065E-05  0.2560E+03
     15.089  0.4806E-01  0.2560E+03
     15.217  0.9296E+00  0.2561E+03
     15.344  0.7471E+00  0.2562E+03
     15.472  0.3085E+01  0.2566E+03
     15.600  0.4351E+01  0.2572E+03
     15.728  0.6828E+01  0.2580E+03
     15.855  0.6282E+01  0.2588E+03
     15.983  0.2237E+01  0.2591E+03
     16.111  0.4542E+01  0.2597E+03
     16.238  0.9823E+01  0.2610E+03
     16.366  0.1833E+02  0.2633E+03
     16.494  0.7939E+01  0.2643E+03
     16.621  0.1049E+02  0.2657E+03
     16.749  0.1228E+02  0.2672E+03
     16.877  0.1335E+02  0.2689E+03
     17.004  0.1062E+02  0.2703E+03
     17.132  0.1185E+02  0.2718E+03
     17.260  0.1947E+02  0.2743E+03
     17.387  0.1433E+02  0.2761E+03
     17.515  0.1950E+02  0.2786E+03
     17.643  0.1528E+02  0.2806E+03
     17.770  0.1554E+02  0.2825E+03
     17.898  0.1539E+02  0.2845E+03
     18.026  0.2279E+02  0.2874E+03
     18.153  0.2182E+02  0.2902E+03
     18.281  0.1505E+02  0.2921E+03
     18.409  0.2115E+02  0.2948E+03
     18.536  0.2537E+02  0.2981E+03
     18.664  0.1070E+02  0.2994E+03
     18.792  0.1482E+02  0.3013E+03
     18.919  0.1924E+02  0.3038E+03
     19.047  0.3948E+02  0.3088E+03
     19.175  0.4533E+02  0.3146E+03
     19.302  0.3266E+02  0.3188E+03
     19.430  0.2131E+02  0.3215E+03
     19.558  0.2551E+02  0.3247E+03
     19.685  0.1814E+02  0.3271E+03
     19.813  0.2787E+02  0.3306E+03
     19.941  0.2695E+02  0.3341E+03
     20.068  0.2073E+02  0.3367E+03
     20.196  0.3246E+02  0.3409E+03
     20.324  0.3546E+02  0.3454E+03
     20.451  0.2097E+02  0.3481E+03
     20.579  0.2403E+02  0.3511E+03
     20.707  0.2887E+02  0.3548E+03
     20.834  0.3449E+02  0.3592E+03
     20.962  0.1815E+02  0.3615E+03
     21.090  0.2158E+02  0.3643E+03
     21.217  0.2903E+02  0.3680E+03
     21.345  0.2707E+02  0.3715E+03
     21.473  0.1828E+02  0.3738E+03
     21.600  0.2279E+02  0.3767E+03
     21.728  0.1673E+02  0.3788E+03
     21.856  0.1229E+02  0.3804E+03
     21.983  0.5971E+01  0.3812E+03
     22.111  0.8975E+01  0.3823E+03
     22.239  0.2931E+01  0.3827E+03
     22.366  0.3254E+01  0.3831E+03
     22.494  0.3568E+01  0.3836E+03
     22.622  0.6017E+00  0.3836E+03
     22.749  0.1435E-01  0.3836E+03
     22.877  0.8866E+00  0.3837E+03
     23.005  0.2595E+00  0.3838E+03
     23.132  0.2567E+00  0.3838E+03
     23.260  0.1440E+01  0.3840E+03
     23.388  0.4346E-01  0.3840E+03
     23.515  0.5874E-06  0.3840E+03
     23.643  0.1353E-14  0.3840E+03
     23.771  0.0000E+00  0.3840E+03
     23.898  0.0000E+00  0.3840E+03
     24.026  0.0000E+00  0.3840E+03
     24.154  0.0000E+00  0.3840E+03
     24.281  0.0000E+00  0.3840E+03
     24.409  0.0000E+00  0.3840E+03
     24.537  0.0000E+00  0.3840E+03
     24.664  0.0000E+00  0.3840E+03
     24.792  0.0000E+00  0.3840E+03
     24.920  0.0000E+00  0.3840E+03
