mesh: [    48,    48,    48 ]
nqpoint: 2600   
reciprocal_lattice:
- [   0.28730405,   0.00000000,   0.00000000 ] # a*
- [   0.00000000,   0.28730405,   0.00000000 ] # b*
- [   0.00000000,   0.00000000,   0.28730405 ] # c*
natom:   8      
lattice:
- [     3.480633117661903,     0.000000000000000,     0.000000000000000 ] # a
- [     0.000000000000000,     3.480633117661903,     0.000000000000000 ] # b
- [     0.000000000000000,     0.000000000000000,     3.480633117661903 ] # c
points:
- symbol: C  # 1
  coordinates: [  0.250000000000000,  0.750000000000000,  0.250000000000000 ]
  mass: 12.010700
- symbol: C  # 2
  coordinates: [  0.000000000000000,  0.000000000000000,  0.500000000000000 ]
  mass: 12.010700
- symbol: C  # 3
  coordinates: [  0.250000000000000,  0.250000000000000,  0.750000000000000 ]
  mass: 12.010700
- symbol: C  # 4
  coordinates: [  0.000000000000000,  0.500000000000000,  0.000000000000000 ]
  mass: 12.010700
- symbol: C  # 5
  coordinates: [  0.750000000000000,  0.750000000000000,  0.750000000000000 ]
  mass: 12.010700
- symbol: C  # 6
  coordinates: [  0.500000000000000,  0.000000000000000,  0.000000000000000 ]
  mass: 12.010700
- symbol: C  # 7
  coordinates: [  0.750000000000000,  0.250000000000000,  0.250000000000000 ]
  mass: 12.010700
- symbol: C  # 8
  coordinates: [  0.500000000000000,  0.500000000000000,  0.500000000000000 ]
  mass: 12.010700

phonon:
- q-position: [    0.0104167,    0.0104167,    0.0104167 ]
  distance_from_gamma:  0.005183596
  weight: 8    
  band:
  - # 1
    frequency:     0.6189800543
  - # 2
    frequency:     0.6189800543
  - # 3
    frequency:     1.0050462144
  - # 4
    frequency:    23.7806795190
  - # 5
    frequency:    23.7806795190
  - # 6
    frequency:    23.7806795190
  - # 7
    frequency:    23.7965103473
  - # 8
    frequency:    23.7965103473
  - # 9
    frequency:    23.7965103473
  - # 10
    frequency:    35.7111971122
  - # 11
    frequency:    35.7111971122
  - # 12
    frequency:    35.7111971122
  - # 13
    frequency:    35.7218077776
  - # 14
    frequency:    35.7218077776
  - # 15
    frequency:    35.7218077776
  - # 16
    frequency:    38.1997980579
  - # 17
    frequency:    38.1997980579
  - # 18
    frequency:    38.1997980579
  - # 19
    frequency:    38.5608034810
  - # 20
    frequency:    38.5608034810
  - # 21
    frequency:    38.5608034810
  - # 22
    frequency:    41.9540988275
  - # 23
    frequency:    41.9540988275
  - # 24
    frequency:    41.9574477247

- q-position: [    0.0312500,    0.0104167,    0.0104167 ]
  distance_from_gamma:  0.009925831
  weight: 24   
  band:
  - # 1
    frequency:     1.2088022474
  - # 2
    frequency:     1.2515859942
  - # 3
    frequency:     1.8657062422
  - # 4
    frequency:    23.7540837695
  - # 5
    frequency:    23.7699201591
  - # 6
    frequency:    23.7930416584
  - # 7
    frequency:    23.7930416584
  - # 8
    frequency:    23.8404451336
  - # 9
    frequency:    23.8404451336
  - # 10
    frequency:    35.6822227694
  - # 11
    frequency:    35.6822227694
  - # 12
    frequency:    35.7139797581
  - # 13
    frequency:    35.7139797581
  - # 14
    frequency:    35.7263338584
  - # 15
    frequency:    35.7377851957
  - # 16
    frequency:    37.8208576389
  - # 17
    frequency:    38.1983423688
  - # 18
    frequency:    38.1983423688
  - # 19
    frequency:    38.5572724398
  - # 20
    frequency:    38.5572724398
  - # 21
    frequency:    38.9029868289
  - # 22
    frequency:    41.9426705711
  - # 23
    frequency:    41.9434892924
  - # 24
    frequency:    41.9607547697

- q-position: [    0.0520833,    0.0104167,    0.0104167 ]
  distance_from_gamma:  0.015550788
  weight: 24   
  band:
  - # 1
    frequency:     1.9472758732
  - # 2
    frequency:     1.9819865383
  - # 3
    frequency:     2.8695433136
  - # 4
    frequency:    23.7009509408
  - # 5
    frequency:    23.7167973841
  - # 6
    frequency:    23.8334332084
  - # 7
    frequency:    23.8334332084
  - # 8
    frequency:    23.9121457124
  - # 9
    frequency:    23.9121457124
  - # 10
    frequency:    35.6349052832
  - # 11
    frequency:    35.6349052832
  - # 12
    frequency:    35.6876866965
  - # 13
    frequency:    35.6876866965
  - # 14
    frequency:    35.7561312271
  - # 15
    frequency:    35.7696186044
  - # 16
    frequency:    37.4236896959
  - # 17
    frequency:    38.1955018651
  - # 18
    frequency:    38.1955018651
  - # 19
    frequency:    38.5503527410
  - # 20
    frequency:    38.5503527410
  - # 21
    frequency:    39.2270261649
  - # 22
    frequency:    41.9198433943
  - # 23
    frequency:    41.9207460444
  - # 24
    frequency:    41.9688592041

- q-position: [    0.0729167,    0.0104167,    0.0104167 ]
  distance_from_gamma:  0.021372514
  weight: 24   
  band:
  - # 1
    frequency:     2.7047496055
  - # 2
    frequency:     2.7310888012
  - # 3
    frequency:     3.9118950841
  - # 4
    frequency:    23.6213965390
  - # 5
    frequency:    23.6372554599
  - # 6
    frequency:    23.9014403877
  - # 7
    frequency:    23.9014403877
  - # 8
    frequency:    24.0110296470
  - # 9
    frequency:    24.0110296470
  - # 10
    frequency:    35.5693042795
  - # 11
    frequency:    35.5693042795
  - # 12
    frequency:    35.6428776951
  - # 13
    frequency:    35.6428776951
  - # 14
    frequency:    35.7991537637
  - # 15
    frequency:    35.8170679836
  - # 16
    frequency:    37.0094322756
  - # 17
    frequency:    38.1914108969
  - # 18
    frequency:    38.1914108969
  - # 19
    frequency:    38.5403175688
  - # 20
    frequency:    38.5403175688
  - # 21
    frequency:    39.5330407550
  - # 22
    frequency:    41.8856760810
  - # 23
    frequency:    41.8865992886
  - # 24
    frequency:    41.9809638469

- q-position: [    0.0937500,    0.0104167,    0.0104167 ]
  distance_from_gamma:  0.027265255
  weight: 24   
  band:
  - # 1
    frequency:     3.4645897341
  - # 2
    frequency:     3.4847799354
  - # 3
    frequency:     4.9674666398
  - # 4
    frequency:    23.5155894379
  - # 5
    frequency:    23.5314603205
  - # 6
    frequency:    23.9964037771
  - # 7
    frequency:    23.9964037771
  - # 8
    frequency:    24.1362794169
  - # 9
    frequency:    24.1362794169
  - # 10
    frequency:    35.4855152849
  - # 11
    frequency:    35.4855152849
  - # 12
    frequency:    35.5795186851
  - # 13
    frequency:    35.5795186851
  - # 14
    frequency:    35.8501827884
  - # 15
    frequency:    35.8797801651
  - # 16
    frequency:    36.5828166254
  - # 17
    frequency:    38.1862538413
  - # 18
    frequency:    38.1862538413
  - # 19
    frequency:    38.5275491724
  - # 20
    frequency:    38.5275491724
  - # 21
    frequency:    39.8212581815
  - # 22
    frequency:    41.8402570829
  - # 23
    frequency:    41.8411861954
  - # 24
    frequency:    41.9968327779

- q-position: [    0.1145833,    0.0104167,    0.0104167 ]
  distance_from_gamma:  0.033191209
  weight: 24   
  band:
  - # 1
    frequency:     4.2227187869
  - # 2
    frequency:     4.2383436698
  - # 3
    frequency:     6.0268591714
  - # 4
    frequency:    23.3837471417
  - # 5
    frequency:    23.3996258357
  - # 6
    frequency:    24.1174260387
  - # 7
    frequency:    24.1174260387
  - # 8
    frequency:    24.2868536879
  - # 9
    frequency:    24.2868536879
  - # 10
    frequency:    35.3836991496
  - # 11
    frequency:    35.3836991496
  - # 12
    frequency:    35.4976144082
  - # 13
    frequency:    35.4976144082
  - # 14
    frequency:    35.8672914945
  - # 15
    frequency:    35.9572964737
  - # 16
    frequency:    36.1851734525
  - # 17
    frequency:    38.1802479437
  - # 18
    frequency:    38.1802479437
  - # 19
    frequency:    38.5125096583
  - # 20
    frequency:    38.5125096583
  - # 21
    frequency:    40.0919412358
  - # 22
    frequency:    41.7837048442
  - # 23
    frequency:    41.7846342900
  - # 24
    frequency:    42.0162099689

- q-position: [    0.1354167,    0.0104167,    0.0104167 ]
  distance_from_gamma:  0.039135292
  weight: 24   
  band:
  - # 1
    frequency:     4.9773526146
  - # 2
    frequency:     4.9894411410
  - # 3
    frequency:     7.0854995348
  - # 4
    frequency:    23.2261302465
  - # 5
    frequency:    23.2420084757
  - # 6
    frequency:    24.2633814979
  - # 7
    frequency:    24.2633814979
  - # 8
    frequency:    24.4614999737
  - # 9
    frequency:    24.4614999737
  - # 10
    frequency:    35.2641107394
  - # 11
    frequency:    35.2641107394
  - # 12
    frequency:    35.3972387851
  - # 13
    frequency:    35.3972387851
  - # 14
    frequency:    35.5743451832
  - # 15
    frequency:    36.0490620285
  - # 16
    frequency:    36.0919527332
  - # 17
    frequency:    38.1736251759
  - # 18
    frequency:    38.1736251759
  - # 19
    frequency:    38.4957078766
  - # 20
    frequency:    38.4957078766
  - # 21
    frequency:    40.3453779927
  - # 22
    frequency:    41.7161682215
  - # 23
    frequency:    41.7170951518
  - # 24
    frequency:    42.0387882194

- q-position: [    0.1562500,    0.0104167,    0.0104167 ]
  distance_from_gamma:  0.045090333
  weight: 24   
  band:
  - # 1
    frequency:     5.7273216522
  - # 2
    frequency:     5.7365572867
  - # 3
    frequency:     8.1406556464
  - # 4
    frequency:    23.0430365947
  - # 5
    frequency:    23.0589016790
  - # 6
    frequency:    24.4329263636
  - # 7
    frequency:    24.4329263636
  - # 8
    frequency:    24.6587673613
  - # 9
    frequency:    24.6587673613
  - # 10
    frequency:    35.1000678755
  - # 11
    frequency:    35.1271268546
  - # 12
    frequency:    35.1271268546
  - # 13
    frequency:    35.2785684138
  - # 14
    frequency:    35.2785684138
  - # 15
    frequency:    36.1544361203
  - # 16
    frequency:    36.1736720055
  - # 17
    frequency:    38.1666155972
  - # 18
    frequency:    38.1666155972
  - # 19
    frequency:    38.4776663003
  - # 20
    frequency:    38.4776663003
  - # 21
    frequency:    40.5818783108
  - # 22
    frequency:    41.6378269901
  - # 23
    frequency:    41.6387496474
  - # 24
    frequency:    42.0642071236

- q-position: [    0.1770833,    0.0104167,    0.0104167 ]
  distance_from_gamma:  0.051052500
  weight: 24   
  band:
  - # 1
    frequency:     6.4716708818
  - # 2
    frequency:     6.4785253395
  - # 3
    frequency:     9.1904207051
  - # 4
    frequency:    22.8347955792
  - # 5
    frequency:    22.8506303603
  - # 6
    frequency:    24.6245080082
  - # 7
    frequency:    24.6245080082
  - # 8
    frequency:    24.8770177140
  - # 9
    frequency:    24.8770177140
  - # 10
    frequency:    34.5892615350
  - # 11
    frequency:    34.9732726181
  - # 12
    frequency:    34.9732726181
  - # 13
    frequency:    35.1419161811
  - # 14
    frequency:    35.1419161811
  - # 15
    frequency:    36.2727031068
  - # 16
    frequency:    36.2847107507
  - # 17
    frequency:    38.1594339891
  - # 18
    frequency:    38.1594339891
  - # 19
    frequency:    38.4588914877
  - # 20
    frequency:    38.4588914877
  - # 21
    frequency:    40.8017723531
  - # 22
    frequency:    41.5488924241
  - # 23
    frequency:    41.5498096118
  - # 24
    frequency:    42.0920550974

- q-position: [    0.1979167,    0.0104167,    0.0104167 ]
  distance_from_gamma:  0.057019556
  weight: 24   
  band:
  - # 1
    frequency:     7.2095368430
  - # 2
    frequency:     7.2143483359
  - # 3
    frequency:    10.2333077187
  - # 4
    frequency:    22.6017629615
  - # 5
    frequency:    22.6175459098
  - # 6
    frequency:    24.8363713561
  - # 7
    frequency:    24.8363713561
  - # 8
    frequency:    25.1144334366
  - # 9
    frequency:    25.1144334366
  - # 10
    frequency:    34.0544803325
  - # 11
    frequency:    34.8032469010
  - # 12
    frequency:    34.8032469010
  - # 13
    frequency:    34.9877631784
  - # 14
    frequency:    34.9877631784
  - # 15
    frequency:    36.4030833457
  - # 16
    frequency:    36.4116490414
  - # 17
    frequency:    38.1522706168
  - # 18
    frequency:    38.1522706168
  - # 19
    frequency:    38.4398508149
  - # 20
    frequency:    38.4398508149
  - # 21
    frequency:    41.0054100257
  - # 22
    frequency:    41.4496079347
  - # 23
    frequency:    41.4505188289
  - # 24
    frequency:    42.1218725431

- q-position: [    0.2187500,    0.0104167,    0.0104167 ]
  distance_from_gamma:  0.062990112
  weight: 24   
  band:
  - # 1
    frequency:     7.9401024598
  - # 2
    frequency:     7.9431220617
  - # 3
    frequency:    11.2680676565
  - # 4
    frequency:    22.3443164508
  - # 5
    frequency:    22.3600219215
  - # 6
    frequency:    25.0665599554
  - # 7
    frequency:    25.0665599554
  - # 8
    frequency:    25.3690194359
  - # 9
    frequency:    25.3690194359
  - # 10
    frequency:    33.4980136065
  - # 11
    frequency:    34.6179488043
  - # 12
    frequency:    34.6179488043
  - # 13
    frequency:    34.8167888237
  - # 14
    frequency:    34.8167888237
  - # 15
    frequency:    36.5447437985
  - # 16
    frequency:    36.5512968436
  - # 17
    frequency:    38.1452861181
  - # 18
    frequency:    38.1452861181
  - # 19
    frequency:    38.4209568864
  - # 20
    frequency:    38.4209568864
  - # 21
    frequency:    41.1931609037
  - # 22
    frequency:    41.3402497504
  - # 23
    frequency:    41.3411538443
  - # 24
    frequency:    42.1531555489

- q-position: [    0.2395833,    0.0104167,    0.0104167 ]
  distance_from_gamma:  0.068963259
  weight: 24   
  band:
  - # 1
    frequency:     8.6625782420
  - # 2
    frequency:     8.6639982768
  - # 3
    frequency:    12.2936004516
  - # 4
    frequency:    22.0628521710
  - # 5
    frequency:    22.0784507724
  - # 6
    frequency:    25.3129086352
  - # 7
    frequency:    25.3129086352
  - # 8
    frequency:    25.6385962321
  - # 9
    frequency:    25.6385962321
  - # 10
    frequency:    32.9205547599
  - # 11
    frequency:    34.4185086605
  - # 12
    frequency:    34.4185086605
  - # 13
    frequency:    34.6299011339
  - # 14
    frequency:    34.6299011339
  - # 15
    frequency:    36.6968080523
  - # 16
    frequency:    36.7020366701
  - # 17
    frequency:    38.1386099185
  - # 18
    frequency:    38.1386099185
  - # 19
    frequency:    38.4025597044
  - # 20
    frequency:    38.4025597044
  - # 21
    frequency:    41.2211276206
  - # 22
    frequency:    41.2220247299
  - # 23
    frequency:    41.3654144236
  - # 24
    frequency:    42.1853599205

- q-position: [    0.2604167,    0.0104167,    0.0104167 ]
  distance_from_gamma:  0.074938378
  weight: 24   
  band:
  - # 1
    frequency:     9.3761658354
  - # 2
    frequency:     9.3761937847
  - # 3
    frequency:    13.3089084697
  - # 4
    frequency:    21.7577820347
  - # 5
    frequency:    21.7732410704
  - # 6
    frequency:    25.5730236402
  - # 7
    frequency:    25.5730236402
  - # 8
    frequency:    25.9207801054
  - # 9
    frequency:    25.9207801054
  - # 10
    frequency:    32.3223815431
  - # 11
    frequency:    34.2063285347
  - # 12
    frequency:    34.2063285347
  - # 13
    frequency:    34.4282712725
  - # 14
    frequency:    34.4282712725
  - # 15
    frequency:    36.8583656194
  - # 16
    frequency:    36.8626540790
  - # 17
    frequency:    38.1323412702
  - # 18
    frequency:    38.1323412702
  - # 19
    frequency:    38.3849455932
  - # 20
    frequency:    38.3849455932
  - # 21
    frequency:    41.0925855208
  - # 22
    frequency:    41.0934758244
  - # 23
    frequency:    41.5225802194
  - # 24
    frequency:    42.2179054394

- q-position: [    0.2812500,    0.0104167,    0.0104167 ]
  distance_from_gamma:  0.080915031
  weight: 24   
  band:
  - # 1
    frequency:    10.0788404798
  - # 2
    frequency:    10.0801937561
  - # 3
    frequency:    14.3130709371
  - # 4
    frequency:    21.4295319606
  - # 5
    frequency:    21.4448159118
  - # 6
    frequency:    25.8442445968
  - # 7
    frequency:    25.8442445968
  - # 8
    frequency:    26.2129444672
  - # 9
    frequency:    26.2129444672
  - # 10
    frequency:    31.7036372897
  - # 11
    frequency:    33.9831390532
  - # 12
    frequency:    33.9831390532
  - # 13
    frequency:    34.2133788558
  - # 14
    frequency:    34.2133788558
  - # 15
    frequency:    37.0284804572
  - # 16
    frequency:    37.0320664367
  - # 17
    frequency:    38.1265519774
  - # 18
    frequency:    38.1265519774
  - # 19
    frequency:    38.3683412228
  - # 20
    frequency:    38.3683412228
  - # 21
    frequency:    40.9550023375
  - # 22
    frequency:    40.9558864417
  - # 23
    frequency:    41.6650885192
  - # 24
    frequency:    42.2501802696

- q-position: [    0.3020833,    0.0104167,    0.0104167 ]
  distance_from_gamma:  0.086892903
  weight: 24   
  band:
  - # 1
    frequency:    10.7712591400
  - # 2
    frequency:    10.7738360215
  - # 3
    frequency:    15.3052293607
  - # 4
    frequency:    21.0785408207
  - # 5
    frequency:    21.0936118361
  - # 6
    frequency:    26.1235803465
  - # 7
    frequency:    26.1235803465
  - # 8
    frequency:    26.5121539919
  - # 9
    frequency:    26.5121539919
  - # 10
    frequency:    31.0644221438
  - # 11
    frequency:    33.7510818797
  - # 12
    frequency:    33.7510818797
  - # 13
    frequency:    33.9870772983
  - # 14
    frequency:    33.9870772983
  - # 15
    frequency:    37.2061987147
  - # 16
    frequency:    37.2092409232
  - # 17
    frequency:    38.1212900135
  - # 18
    frequency:    38.1212900135
  - # 19
    frequency:    38.3529208745
  - # 20
    frequency:    38.3529208745
  - # 21
    frequency:    40.8087925095
  - # 22
    frequency:    40.8096715303
  - # 23
    frequency:    41.7933905422
  - # 24
    frequency:    42.2815454426

- q-position: [    0.3229167,    0.0104167,    0.0104167 ]
  distance_from_gamma:  0.092871757
  weight: 24   
  band:
  - # 1
    frequency:    11.4526767084
  - # 2
    frequency:    11.4563908534
  - # 3
    frequency:    16.2845789920
  - # 4
    frequency:    20.7052599709
  - # 5
    frequency:    20.7200783395
  - # 6
    frequency:    26.4076073616
  - # 7
    frequency:    26.4076073616
  - # 8
    frequency:    26.8150590594
  - # 9
    frequency:    26.8150590594
  - # 10
    frequency:    30.4048293947
  - # 11
    frequency:    33.5128305665
  - # 12
    frequency:    33.5128305665
  - # 13
    frequency:    33.7516922628
  - # 14
    frequency:    33.7516922628
  - # 15
    frequency:    37.3905557471
  - # 16
    frequency:    37.3931667058
  - # 17
    frequency:    38.1165834478
  - # 18
    frequency:    38.1165834478
  - # 19
    frequency:    38.3388152454
  - # 20
    frequency:    38.3388152454
  - # 21
    frequency:    40.6544065997
  - # 22
    frequency:    40.6552822620
  - # 23
    frequency:    41.9079588498
  - # 24
    frequency:    42.3113393601

- q-position: [    0.3437500,    0.0104167,    0.0104167 ]
  distance_from_gamma:  0.098851416
  weight: 24   
  band:
  - # 1
    frequency:    12.1223642371
  - # 2
    frequency:    12.1271407267
  - # 3
    frequency:    17.2503637340
  - # 4
    frequency:    20.3101532187
  - # 5
    frequency:    20.3246778061
  - # 6
    frequency:    26.6923151939
  - # 7
    frequency:    26.6923151939
  - # 8
    frequency:    27.1177325106
  - # 9
    frequency:    27.1177325106
  - # 10
    frequency:    29.7249624105
  - # 11
    frequency:    33.2717665766
  - # 12
    frequency:    33.2717665766
  - # 13
    frequency:    33.5101716578
  - # 14
    frequency:    33.5101716578
  - # 15
    frequency:    37.5805824593
  - # 16
    frequency:    37.5828458385
  - # 17
    frequency:    38.1124443268
  - # 18
    frequency:    38.1124443268
  - # 19
    frequency:    38.3261204471
  - # 20
    frequency:    38.3261204471
  - # 21
    frequency:    40.4923317713
  - # 22
    frequency:    40.4932065238
  - # 23
    frequency:    42.0092876118
  - # 24
    frequency:    42.3388822545

- q-position: [    0.3645833,    0.0104167,    0.0104167 ]
  distance_from_gamma:  0.104831741
  weight: 24   
  band:
  - # 1
    frequency:    12.7796079793
  - # 2
    frequency:    12.7853804364
  - # 3
    frequency:    18.2018730587
  - # 4
    frequency:    19.8936970860
  - # 5
    frequency:    19.9078857189
  - # 6
    frequency:    26.9728794264
  - # 7
    frequency:    26.9728794264
  - # 8
    frequency:    27.4154244270
  - # 9
    frequency:    27.4154244270
  - # 10
    frequency:    29.0249436529
  - # 11
    frequency:    33.0322299702
  - # 12
    frequency:    33.0322299702
  - # 13
    frequency:    33.2663127665
  - # 14
    frequency:    33.2663127665
  - # 15
    frequency:    37.7753110406
  - # 16
    frequency:    37.7772914555
  - # 17
    frequency:    38.1088723339
  - # 18
    frequency:    38.1088723339
  - # 19
    frequency:    38.3149062710
  - # 20
    frequency:    38.3149062710
  - # 21
    frequency:    40.3230921427
  - # 22
    frequency:    40.3239692882
  - # 23
    frequency:    42.0978927497
  - # 24
    frequency:    42.3634805552

- q-position: [    0.3854167,    0.0104167,    0.0104167 ]
  distance_from_gamma:  0.110812626
  weight: 24   
  band:
  - # 1
    frequency:    13.4237089453
  - # 2
    frequency:    13.4304173956
  - # 3
    frequency:    19.1384401085
  - # 4
    frequency:    19.4563812488
  - # 5
    frequency:    19.4701910381
  - # 6
    frequency:    27.2433437644
  - # 7
    frequency:    27.2433437644
  - # 8
    frequency:    27.7022081089
  - # 9
    frequency:    27.7022081089
  - # 10
    frequency:    28.3049200815
  - # 11
    frequency:    32.7998581768
  - # 12
    frequency:    32.7998581768
  - # 13
    frequency:    33.0250991470
  - # 14
    frequency:    33.0250991470
  - # 15
    frequency:    37.9737801498
  - # 16
    frequency:    37.9755289920
  - # 17
    frequency:    38.1058581800
  - # 18
    frequency:    38.1058581800
  - # 19
    frequency:    38.3052231829
  - # 20
    frequency:    38.3052231829
  - # 21
    frequency:    40.1472489928
  - # 22
    frequency:    40.1481328349
  - # 23
    frequency:    42.1743119293
  - # 24
    frequency:    42.3844311120

- q-position: [    0.4062500,    0.0104167,    0.0104167 ]
  distance_from_gamma:  0.116793983
  weight: 24   
  band:
  - # 1
    frequency:    14.0539827708
  - # 2
    frequency:    14.0615720299
  - # 3
    frequency:    18.9987090531
  - # 4
    frequency:    19.0120966485
  - # 5
    frequency:    20.0594404911
  - # 6
    frequency:    27.4962135863
  - # 7
    frequency:    27.4962135863
  - # 8
    frequency:    27.5650667490
  - # 9
    frequency:    27.9705069180
  - # 10
    frequency:    27.9705069180
  - # 11
    frequency:    32.5819900874
  - # 12
    frequency:    32.5819900874
  - # 13
    frequency:    32.7931786609
  - # 14
    frequency:    32.7931786609
  - # 15
    frequency:    38.1033867405
  - # 16
    frequency:    38.1033867405
  - # 17
    frequency:    38.1750395984
  - # 18
    frequency:    38.1765986638
  - # 19
    frequency:    38.2971078156
  - # 20
    frequency:    38.2971078156
  - # 21
    frequency:    39.9654007905
  - # 22
    frequency:    39.9662967974
  - # 23
    frequency:    42.2391043698
  - # 24
    frequency:    42.4010252347

- q-position: [    0.4270833,    0.0104167,    0.0104167 ]
  distance_from_gamma:  0.122775745
  weight: 24   
  band:
  - # 1
    frequency:    14.6697597720
  - # 2
    frequency:    14.6781782122
  - # 3
    frequency:    18.5211980343
  - # 4
    frequency:    18.5341198067
  - # 5
    frequency:    20.9642914640
  - # 6
    frequency:    26.8055894093
  - # 7
    frequency:    27.7220379031
  - # 8
    frequency:    27.7220379031
  - # 9
    frequency:    28.2105676000
  - # 10
    frequency:    28.2105676000
  - # 11
    frequency:    32.3879953607
  - # 12
    frequency:    32.3879953607
  - # 13
    frequency:    32.5794805496
  - # 14
    frequency:    32.5794805496
  - # 15
    frequency:    38.1014399668
  - # 16
    frequency:    38.1014399668
  - # 17
    frequency:    38.2905869585
  - # 18
    frequency:    38.2905869585
  - # 19
    frequency:    38.3781545711
  - # 20
    frequency:    38.3795584057
  - # 21
    frequency:    39.7781830214
  - # 22
    frequency:    39.7790980092
  - # 23
    frequency:    42.2928504445
  - # 24
    frequency:    42.4125525100

- q-position: [    0.4479167,    0.0104167,    0.0104167 ]
  distance_from_gamma:  0.128757854
  weight: 24   
  band:
  - # 1
    frequency:    15.2703851047
  - # 2
    frequency:    15.2795837025
  - # 3
    frequency:    18.0243803853
  - # 4
    frequency:    18.0367925345
  - # 5
    frequency:    21.8524513200
  - # 6
    frequency:    26.0267265381
  - # 7
    frequency:    27.9092433713
  - # 8
    frequency:    27.9092433713
  - # 9
    frequency:    28.4101581578
  - # 10
    frequency:    28.4101581578
  - # 11
    frequency:    32.2291044536
  - # 12
    frequency:    32.2291044536
  - # 13
    frequency:    32.3958545862
  - # 14
    frequency:    32.3958545862
  - # 15
    frequency:    38.0999995695
  - # 16
    frequency:    38.0999995695
  - # 17
    frequency:    38.2856802014
  - # 18
    frequency:    38.2856802014
  - # 19
    frequency:    38.5822094135
  - # 20
    frequency:    38.5834868866
  - # 21
    frequency:    39.5862677854
  - # 22
    frequency:    39.5872101231
  - # 23
    frequency:    42.3361510483
  - # 24
    frequency:    42.4183043683

- q-position: [    0.4687500,    0.0104167,    0.0104167 ]
  distance_from_gamma:  0.134740264
  weight: 24   
  band:
  - # 1
    frequency:    15.8552189660
  - # 2
    frequency:    15.8651505655
  - # 3
    frequency:    17.5088033415
  - # 4
    frequency:    17.5206619264
  - # 5
    frequency:    22.7234188483
  - # 6
    frequency:    25.2287509678
  - # 7
    frequency:    28.0447986855
  - # 8
    frequency:    28.0447986855
  - # 9
    frequency:    28.5551630757
  - # 10
    frequency:    28.5551630757
  - # 11
    frequency:    32.1168662845
  - # 12
    frequency:    32.1168662845
  - # 13
    frequency:    32.2573544478
  - # 14
    frequency:    32.2573544478
  - # 15
    frequency:    38.0990494152
  - # 16
    frequency:    38.0990494152
  - # 17
    frequency:    38.2824014865
  - # 18
    frequency:    38.2824014865
  - # 19
    frequency:    38.7863110072
  - # 20
    frequency:    38.7874864071
  - # 21
    frequency:    39.3903631406
  - # 22
    frequency:    39.3913429821
  - # 23
    frequency:    42.3696267095
  - # 24
    frequency:    42.4175773737

- q-position: [    0.4895833,    0.0104167,    0.0104167 ]
  distance_from_gamma:  0.140722937
  weight: 24   
  band:
  - # 1
    frequency:    16.4236367987
  - # 2
    frequency:    16.4342555410
  - # 3
    frequency:    16.9750294615
  - # 4
    frequency:    16.9862903514
  - # 5
    frequency:    23.5767327922
  - # 6
    frequency:    24.4119712480
  - # 7
    frequency:    28.1164470995
  - # 8
    frequency:    28.1164470995
  - # 9
    frequency:    28.6320148081
  - # 10
    frequency:    28.6320148081
  - # 11
    frequency:    32.0595534120
  - # 12
    frequency:    32.0595534120
  - # 13
    frequency:    32.1811688980
  - # 14
    frequency:    32.1811688980
  - # 15
    frequency:    38.0985775247
  - # 16
    frequency:    38.0985775247
  - # 17
    frequency:    38.2807598820
  - # 18
    frequency:    38.2807598820
  - # 19
    frequency:    38.9895917525
  - # 20
    frequency:    38.9906855770
  - # 21
    frequency:    39.1912121706
  - # 22
    frequency:    39.1922417205
  - # 23
    frequency:    42.3939164276
  - # 24
    frequency:    42.4096762212

- q-position: [    0.0312500,    0.0312500,    0.0104167 ]
  distance_from_gamma:  0.013045097
  weight: 24   
  band:
  - # 1
    frequency:     1.5029527918
  - # 2
    frequency:     1.6497350602
  - # 3
    frequency:     2.4998406624
  - # 4
    frequency:    23.7663701146
  - # 5
    frequency:    23.7663701146
  - # 6
    frequency:    23.7736968916
  - # 7
    frequency:    23.8138142484
  - # 8
    frequency:    23.8138142484
  - # 9
    frequency:    23.9156239732
  - # 10
    frequency:    35.6338274419
  - # 11
    frequency:    35.6938847195
  - # 12
    frequency:    35.6938847195
  - # 13
    frequency:    35.7273414435
  - # 14
    frequency:    35.7302808322
  - # 15
    frequency:    35.7302808322
  - # 16
    frequency:    37.8271438356
  - # 17
    frequency:    37.8271438356
  - # 18
    frequency:    38.1855801951
  - # 19
    frequency:    38.5633560673
  - # 20
    frequency:    38.8950585803
  - # 21
    frequency:    38.8950585803
  - # 22
    frequency:    41.9316079661
  - # 23
    frequency:    41.9378713826
  - # 24
    frequency:    41.9587456386

- q-position: [    0.0520833,    0.0312500,    0.0104167 ]
  distance_from_gamma:  0.017705351
  weight: 48   
  band:
  - # 1
    frequency:     2.0795393666
  - # 2
    frequency:     2.2547079591
  - # 3
    frequency:     3.3534327604
  - # 4
    frequency:    23.7130880655
  - # 5
    frequency:    23.7606109992
  - # 6
    frequency:    23.7824285793
  - # 7
    frequency:    23.8065850643
  - # 8
    frequency:    23.8854569679
  - # 9
    frequency:    24.0180682444
  - # 10
    frequency:    35.5689522431
  - # 11
    frequency:    35.6386356890
  - # 12
    frequency:    35.7060742166
  - # 13
    frequency:    35.7155959370
  - # 14
    frequency:    35.7218971472
  - # 15
    frequency:    35.7626510639
  - # 16
    frequency:    37.4407393641
  - # 17
    frequency:    37.8392468138
  - # 18
    frequency:    38.1623222687
  - # 19
    frequency:    38.5737156142
  - # 20
    frequency:    38.8794288040
  - # 21
    frequency:    39.2162686399
  - # 22
    frequency:    41.9089873120
  - # 23
    frequency:    41.9178417929
  - # 24
    frequency:    41.9640119810

- q-position: [    0.0729167,    0.0312500,    0.0104167 ]
  distance_from_gamma:  0.022987753
  weight: 48   
  band: