       N       E                     dE             d eps       ncg     rms          rms(c)
DAV:   1     0.521133296523E+03    0.52113E+03   -0.11497E+05  7680   0.107E+03
DAV:   2    -0.564148488480E+03   -0.10853E+04   -0.10364E+04 10112   0.236E+02
DAV:   3    -0.603595281597E+03   -0.39447E+02   -0.39231E+02 10208   0.421E+01
DAV:   4    -0.603969303800E+03   -0.37402E+00   -0.37326E+00  9920   0.458E+00
DAV:   5    -0.603976826228E+03   -0.75224E-02   -0.75197E-02  9664   0.589E-01    0.294E+01
DAV:   6    -0.585121710097E+03    0.18855E+02   -0.12253E+01  8960   0.723E+00    0.159E+01
DAV:   7    -0.578771961805E+03    0.63497E+01   -0.13691E+01  9344   0.786E+00    0.202E+00
DAV:   8    -0.578840706380E+03   -0.68745E-01   -0.29637E-01  9504   0.111E+00    0.229E-01
DAV:   9    -0.578842746448E+03   -0.20401E-02   -0.35404E-03  9952   0.146E-01    0.834E-02
DAV:  10    -0.578843164629E+03   -0.41818E-03   -0.34321E-04  9216   0.505E-02    0.823E-03
DAV:  11    -0.578843171179E+03   -0.65494E-05   -0.10014E-05  9984   0.774E-03    0.195E-03
DAV:  12    -0.578843170860E+03    0.31886E-06   -0.24111E-07  9760   0.129E-03    0.256E-04
DAV:  13    -0.578843170880E+03   -0.20096E-07   -0.48183E-09  7168   0.180E-04    0.360E-05
DAV:  14    -0.578843170910E+03   -0.29931E-07   -0.54770E-10  6304   0.637E-05    0.228E-05
DAV:  15    -0.578843170910E+03   -0.46930E-09   -0.76591E-11  5728   0.221E-05
   1 F= -.57884317E+03 E0= -.57884317E+03  d E =-.327830E-13
 Linear response reoptimize wavefunctions
DAV:   1    -0.578843170909E+03    0.18208E-08   -0.10862E-11  5760   0.963E-06
DAV:   2    -0.578843170909E+03   -0.23738E-09   -0.34423E-12  5728   0.462E-06
DAV:   3    -0.578843170909E+03   -0.90949E-12   -0.16623E-12  5664   0.224E-06
 Linear response DOF=           1
 Linear response progress:
  Degree of freedom:   1/  1
       N       E                     dE             d eps       ncg     rms          rms(c)
RMM:   1    -0.151452005742E+00   -0.15145E+00    0.45171E-03 56638   0.757E-01
RMM:   2    -0.127308081676E+00    0.24144E-01   -0.72139E-03 33599   0.190E-01    0.203E-01
RMM:   3    -0.127031704300E+00    0.27638E-03   -0.11995E-03 35215   0.578E-02    0.101E-01
RMM:   4    -0.127368339248E+00   -0.33663E-03   -0.34046E-04 35345   0.321E-02    0.295E-02
RMM:   5    -0.127477760934E+00   -0.10942E-03   -0.21696E-05 35979   0.871E-03    0.696E-03
RMM:   6    -0.127462973274E+00    0.14788E-04   -0.10497E-06 36368   0.205E-03    0.144E-03
RMM:   7    -0.127454478369E+00    0.84949E-05   -0.22015E-07 36801   0.589E-04    0.409E-04
RMM:   8    -0.127453956723E+00    0.52165E-06   -0.26653E-07 37348   0.223E-04    0.847E-05
RMM:   9    -0.127453699256E+00    0.25747E-06   -0.26257E-07 38722   0.939E-05    0.362E-05
RMM:  10    -0.127453747478E+00   -0.48221E-07   -0.27946E-07 39827   0.830E-05    0.989E-06
RMM:  11    -0.127453747288E+00    0.18924E-09   -0.25044E-07 40700   0.773E-05    0.429E-06
RMM:  12    -0.127453763870E+00   -0.16581E-07   -0.31571E-07 41081   0.762E-05    0.179E-06
 Linear response finished
