 vasp.5.4.4.18Apr17-6-g9f103f2a35 (build Mar 12 2022 03:36:41) complex          
  
 executed on IFC19.0.3.199_CrayMP date 2022.12.02  01:12:08
 running on   32 total cores
 distrk:  each k-point on   32 cores,    1 groups
 distr:  one band on NCORES_PER_BAND=   1 cores,   32 groups


--------------------------------------------------------------------------------------------------------


 INCAR:
 POTCAR:   PAW_PBE C 08Apr2002                    

 ----------------------------------------------------------------------------- 
|                                                                             |
|           W    W    AA    RRRRR   N    N  II  N    N   GGGG   !!!           |
|           W    W   A  A   R    R  NN   N  II  NN   N  G    G  !!!           |
|           W    W  A    A  R    R  N N  N  II  N N  N  G       !!!           |
|           W WW W  AAAAAA  RRRRR   N  N N  II  N  N N  G  GGG   !            |
|           WW  WW  A    A  R   R   N   NN  II  N   NN  G    G                |
|           W    W  A    A  R    R  N    N  II  N    N   GGGG   !!!           |
|                                                                             |
|      For optimal performance we recommend to set                            |
|        NCORE= 4 - approx SQRT( number of cores)                             |
|      NCORE specifies how many cores store one orbital (NPAR=cpu/NCORE).     |
|      This setting can  greatly improve the performance of VASP for DFT.     |
|      The default,   NCORE=1            might be grossly inefficient         |
|      on modern multi-core architectures or massively parallel machines.     |
|      Do your own testing !!!!                                               |
|      Unfortunately you need to use the default for GW and RPA calculations. |
|      (for HF NCORE is supported but not extensively tested yet)             |
|                                                                             |
 ----------------------------------------------------------------------------- 

 POTCAR:   PAW_PBE C 08Apr2002                    
   VRHFIN =C: s2p2                                                              
   LEXCH  = PE                                                                  
   EATOM  =   147.1560 eV,   10.8157 Ry                                         
                                                                                
   TITEL  = PAW_PBE C 08Apr2002                                                 
   LULTRA =        F    use ultrasoft PP ?                                      
   IUNSCR =        0    unscreen: 0-lin 1-nonlin 2-no                           
   RPACOR =     .000    partial core radius                                     
   POMASS =   12.011; ZVAL   =    4.000    mass and valenz                      
   RCORE  =    1.500    outmost cutoff radius                                   
   RWIGS  =    1.630; RWIGS  =     .863    wigner-seitz radius (au A)           
   ENMAX  =  400.000; ENMIN  =  300.000 eV                                      
   ICORE  =        2    local potential                                         
   LCOR   =        T    correct aug charges                                     
   LPAW   =        T    paw PP                                                  
   EAUG   =  644.873                                                            
   DEXC   =     .000                                                            
   RMAX   =    2.266    core radius for proj-oper                               
   RAUG   =    1.300    factor for augmentation sphere                          
   RDEP   =    1.501    radius for radial grids                                 
   RDEPT  =    1.300    core radius for aug-charge                              
   QCUT   =   -5.516; QGAM   =   11.032    optimization parameters              
                                                                                
   Description                                                                  
     l     E      TYP  RCUT    TYP  RCUT                                        
     0   .000     23  1.200                                                     
     0   .000     23  1.200                                                     
     1   .000     23  1.500                                                     
     1  2.500     23  1.500                                                     
     2   .000      7  1.500                                                     
  local pseudopotential read in
  atomic valenz-charges read in
  non local Contribution for L=           0  read in
    real space projection operators read in
  non local Contribution for L=           0  read in
    real space projection operators read in
  non local Contribution for L=           1  read in
    real space projection operators read in
  non local Contribution for L=           1  read in
    real space projection operators read in
    PAW grid and wavefunctions read in
 
   number of l-projection  operators is LMAX  =           4
   number of lm-projection operators is LMMAX =           8
 

 ----------------------------------------------------------------------------- 
|                                                                             |
|  ADVICE TO THIS USER RUNNING 'VASP/VAMP'   (HEAR YOUR MASTER'S VOICE ...):  |
|                                                                             |
|      You have a (more or less) 'large supercell' and for larger cells       |
|      it might be more efficient to use real space projection operators      |
|      So try LREAL= Auto  in the INCAR   file.                               |
|      Mind: If you want to do a very accurate calculations keep the          |
|      reciprocal projection scheme          (i.e. LREAL=.FALSE.)             |
|                                                                             |
 ----------------------------------------------------------------------------- 

 PAW_PBE C 08Apr2002                    :
 energy of atom  1       EATOM= -147.1560
 kinetic energy error for atom=    0.0288 (will be added to EATOM!!)
 
 
 POSCAR: generated by phonopy                    
  positions in direct lattice
  No initial velocities read in
 exchange correlation table for  LEXCH =        8
   RHO(1)=    0.500       N(1)  =     2000
   RHO(2)=  100.500       N(2)  =     4000
 


--------------------------------------------------------------------------------------------------------


 ion  position               nearest neighbor table
   1  0.125  0.375  0.125-  11 1.51  25 1.51  43 1.51  57 1.51
   2  0.625  0.375  0.125-  12 1.51  26 1.51  44 1.51  58 1.51
   3  0.125  0.875  0.125-   9 1.51  27 1.51  41 1.51  59 1.51
   4  0.625  0.875  0.125-  10 1.51  28 1.51  42 1.51  60 1.51
   5  0.125  0.375  0.625-  15 1.51  29 1.51  47 1.51  61 1.51
   6  0.625  0.375  0.625-  16 1.51  30 1.51  48 1.51  62 1.51
   7  0.125  0.875  0.625-  13 1.51  31 1.51  45 1.51  63 1.51
   8  0.625  0.875  0.625-  14 1.51  32 1.51  46 1.51  64 1.51
   9  0.000  0.000  0.250-   3 1.51  17 1.51  36 1.51  50 1.51
  10  0.500  0.000  0.250-   4 1.51  18 1.51  35 1.51  49 1.51
  11  0.000  0.500  0.250-   1 1.51  19 1.51  34 1.51  52 1.51
  12  0.500  0.500  0.250-   2 1.51  20 1.51  33 1.51  51 1.51
  13  0.000  0.000  0.750-   7 1.51  21 1.51  40 1.51  54 1.51
  14  0.500  0.000  0.750-   8 1.51  22 1.51  39 1.51  53 1.51
  15  0.000  0.500  0.750-   5 1.51  23 1.51  38 1.51  56 1.51
  16  0.500  0.500  0.750-   6 1.51  24 1.51  37 1.51  55 1.51
  17  0.125  0.125  0.375-   9 1.51  29 1.51  45 1.51  57 1.51
  18  0.625  0.125  0.375-  10 1.51  30 1.51  46 1.51  58 1.51
  19  0.125  0.625  0.375-  11 1.51  31 1.51  47 1.51  59 1.51
  20  0.625  0.625  0.375-  12 1.51  32 1.51  48 1.51  60 1.51
  21  0.125  0.125  0.875-  13 1.51  25 1.51  41 1.51  61 1.51
  22  0.625  0.125  0.875-  14 1.51  26 1.51  42 1.51  62 1.51
  23  0.125  0.625  0.875-  15 1.51  27 1.51  43 1.51  63 1.51
  24  0.625  0.625  0.875-  16 1.51  28 1.51  44 1.51  64 1.51
  25  0.000  0.250  0.000-   1 1.51  21 1.51  38 1.51  50 1.51
  26  0.500  0.250  0.000-   2 1.51  22 1.51  37 1.51  49 1.51
  27  0.000  0.750  0.000-   3 1.51  23 1.51  40 1.51  52 1.51
  28  0.500  0.750  0.000-   4 1.51  24 1.51  39 1.51  51 1.51
  29  0.000  0.250  0.500-   5 1.51  17 1.51  34 1.51  54 1.51
  30  0.500  0.250  0.500-   6 1.51  18 1.51  33 1.51  53 1.51
  31  0.000  0.750  0.500-   7 1.51  19 1.51  36 1.51  56 1.51
  32  0.500  0.750  0.500-   8 1.51  20 1.51  35 1.51  55 1.51
  33  0.375  0.375  0.375-  12 1.51  30 1.51  47 1.51  57 1.51
  34  0.875  0.375  0.375-  11 1.51  29 1.51  48 1.51  58 1.51
  35  0.375  0.875  0.375-  10 1.51  32 1.51  45 1.51  59 1.51
  36  0.875  0.875  0.375-   9 1.51  31 1.51  46 1.51  60 1.51
  37  0.375  0.375  0.875-  16 1.51  26 1.51  43 1.51  61 1.51
  38  0.875  0.375  0.875-  15 1.51  25 1.51  44 1.51  62 1.51
  39  0.375  0.875  0.875-  14 1.51  28 1.51  41 1.51  63 1.51
  40  0.875  0.875  0.875-  13 1.51  27 1.51  42 1.51  64 1.51
  41  0.250  0.000  0.000-   3 1.51  21 1.51  39 1.51  49 1.51
  42  0.750  0.000  0.000-   4 1.51  22 1.51  40 1.51  50 1.51
  43  0.250  0.500  0.000-   1 1.51  23 1.51  37 1.51  51 1.51
  44  0.750  0.500  0.000-   2 1.51  24 1.51  38 1.51  52 1.51
  45  0.250  0.000  0.500-   7 1.51  17 1.51  35 1.51  53 1.51
  46  0.750  0.000  0.500-   8 1.51  18 1.51  36 1.51  54 1.51
  47  0.250  0.500  0.500-   5 1.51  19 1.51  33 1.51  55 1.51
  48  0.750  0.500  0.500-   6 1.51  20 1.51  34 1.51  56 1.51
  49  0.375  0.125  0.125-  10 1.51  26 1.51  41 1.51  57 1.51
  50  0.875  0.125  0.125-   9 1.51  25 1.51  42 1.51  58 1.51
  51  0.375  0.625  0.125-  12 1.51  28 1.51  43 1.51  59 1.51
  52  0.875  0.625  0.125-  11 1.51  27 1.51  44 1.51  60 1.51
  53  0.375  0.125  0.625-  14 1.51  30 1.51  45 1.51  61 1.51
  54  0.875  0.125  0.625-  13 1.51  29 1.51  46 1.51  62 1.51
  55  0.375  0.625  0.625-  16 1.51  32 1.51  47 1.51  63 1.51
  56  0.875  0.625  0.625-  15 1.51  31 1.51  48 1.51  64 1.51
  57  0.250  0.250  0.250-   1 1.51  17 1.51  33 1.51  49 1.51
  58  0.750  0.250  0.250-   2 1.51  18 1.51  34 1.51  50 1.51
  59  0.250  0.750  0.250-   3 1.51  19 1.51  35 1.51  51 1.51
  60  0.750  0.750  0.250-   4 1.51  20 1.51  36 1.51  52 1.51
  61  0.250  0.250  0.750-   5 1.51  21 1.51  37 1.51  53 1.51
  62  0.750  0.250  0.750-   6 1.51  22 1.51  38 1.51  54 1.51
  63  0.250  0.750  0.750-   7 1.51  23 1.51  39 1.51  55 1.51
  64  0.750  0.750  0.750-   8 1.51  24 1.51  40 1.51  56 1.51
 
  LATTYP: Found a simple cubic cell.
 ALAT       =     6.9612662353
  
  Lattice vectors:
  
 A1 = (   6.9612662353,   0.0000000000,   0.0000000000)
 A2 = (   0.0000000000,   6.9612662353,   0.0000000000)
 A3 = (   0.0000000000,   0.0000000000,   6.9612662353)


Analysis of symmetry for initial positions (statically):
=====================================================================
 Subroutine PRICEL returns following result:
 
  LATTYP: Found a face centered cubic cell.
 ALAT       =     3.4806331177
  
  Lattice vectors:
  
 A1 = (   1.7403165588,   1.7403165588,   0.0000000000)
 A2 = (   1.7403165588,   0.0000000000,  -1.7403165588)
 A3 = (   0.0000000000,   1.7403165588,  -1.7403165588)
 
  32 primitive cells build up your supercell.
 

 Routine SETGRP: Setting up the symmetry group for a 
 simple cubic supercell.


 Subroutine GETGRP returns: Found 48 space group operations
 (whereof 24 operations were pure point group operations)
 out of a pool of 48 trial point group operations.


The static configuration has the point symmetry T_d .
 The point group associated with its full space group is O_h .


Analysis of symmetry for dynamics (positions and initial velocities):
=====================================================================
 Subroutine PRICEL returns following result:
 
  LATTYP: Found a face centered cubic cell.
 ALAT       =     3.4806331177
  
  Lattice vectors:
  
 A1 = (   1.7403165588,   1.7403165588,   0.0000000000)
 A2 = (   1.7403165588,   0.0000000000,  -1.7403165588)
 A3 = (   0.0000000000,   1.7403165588,  -1.7403165588)
 
  32 primitive cells build up your supercell.
 

 Routine SETGRP: Setting up the symmetry group for a 
 simple cubic supercell.


 Subroutine GETGRP returns: Found 48 space group operations
 (whereof 24 operations were pure point group operations)
 out of a pool of 48 trial point group operations.


The dynamic configuration has the point symmetry T_d .
 The point group associated with its full space group is O_h .


 Subroutine INISYM returns: Found 48 space group operations
 (whereof 24 operations are pure point group operations),
 and found    32 'primitive' translations

 
 
 KPOINTS: kpt_density=3000                        

Automatic generation of k-mesh.
Space group operators:
 irot       det(A)        alpha          n_x          n_y          n_z        tau_x        tau_y        tau_z
    1     1.000000     0.000000     1.000000     0.000000     0.000000     0.000000     0.000000     0.000000
    2     1.000000   120.000000    -0.577350    -0.577350    -0.577350     0.000000     0.000000     0.000000
    3     1.000000   120.000000     0.577350     0.577350     0.577350     0.000000     0.000000     0.000000
    4    -1.000000    90.000000     0.000000     0.000000    -1.000000     0.000000     0.000000     0.000000
    5    -1.000000   180.000000     0.000000     0.707107     0.707107     0.000000     0.000000     0.000000
    6    -1.000000    90.000000     0.000000     1.000000     0.000000     0.000000     0.000000     0.000000
    7     1.000000   180.000000     0.000000     0.000000     1.000000     0.000000     0.000000     0.000000
    8     1.000000   120.000000    -0.577350     0.577350     0.577350     0.000000     0.000000     0.000000
    9     1.000000   120.000000    -0.577350     0.577350    -0.577350     0.000000     0.000000     0.000000
   10    -1.000000    90.000000     0.000000     0.000000     1.000000     0.000000     0.000000     0.000000
   11    -1.000000    90.000000    -1.000000     0.000000     0.000000     0.000000     0.000000     0.000000
   12    -1.000000   180.000000     0.707107     0.000000     0.707107     0.000000     0.000000     0.000000
   13     1.000000   120.000000     0.577350    -0.577350     0.577350     0.000000     0.000000     0.000000
   14     1.000000   120.000000    -0.577350    -0.577350     0.577350     0.000000     0.000000     0.000000
   15     1.000000   180.000000     1.000000     0.000000     0.000000     0.000000     0.000000     0.000000
   16    -1.000000    90.000000     0.000000    -1.000000     0.000000     0.000000     0.000000     0.000000
   17    -1.000000   180.000000     0.707107     0.707107     0.000000     0.000000     0.000000     0.000000
   18    -1.000000    90.000000     1.000000     0.000000     0.000000     0.000000     0.000000     0.000000
   19     1.000000   120.000000     0.577350    -0.577350    -0.577350     0.000000     0.000000     0.000000
   20     1.000000   180.000000     0.000000     1.000000     0.000000     0.000000     0.000000     0.000000
   21     1.000000   120.000000     0.577350     0.577350    -0.577350     0.000000     0.000000     0.000000
   22    -1.000000   180.000000     0.000000    -0.707107     0.707107     0.000000     0.000000     0.000000
   23    -1.000000   180.000000     0.707107    -0.707107     0.000000     0.000000     0.000000     0.000000
   24    -1.000000   180.000000     0.707107     0.000000    -0.707107     0.000000     0.000000     0.000000
   25    -1.000000     0.000000     1.000000     0.000000     0.000000     0.375000     0.375000    -0.375000
   26    -1.000000   120.000000    -0.577350    -0.577350    -0.577350     0.375000     0.375000    -0.375000
   27    -1.000000   120.000000     0.577350     0.577350     0.577350     0.375000     0.375000    -0.375000
   28     1.000000    90.000000     0.000000     0.000000    -1.000000     0.375000     0.375000    -0.375000
   29     1.000000   180.000000     0.000000     0.707107     0.707107     0.375000     0.375000    -0.375000
   30     1.000000    90.000000     0.000000     1.000000     0.000000     0.375000     0.375000    -0.375000
   31    -1.000000   180.000000     0.000000     0.000000     1.000000     0.375000     0.375000    -0.375000
   32    -1.000000   120.000000    -0.577350     0.577350     0.577350     0.375000     0.375000    -0.375000
   33    -1.000000   120.000000    -0.577350     0.577350    -0.577350     0.375000     0.375000    -0.375000
   34     1.000000    90.000000     0.000000     0.000000     1.000000     0.375000     0.375000    -0.375000
   35     1.000000    90.000000    -1.000000     0.000000     0.000000     0.375000     0.375000    -0.375000
   36     1.000000   180.000000     0.707107     0.000000     0.707107     0.375000     0.375000    -0.375000
   37    -1.000000   120.000000     0.577350    -0.577350     0.577350     0.375000     0.375000    -0.375000
   38    -1.000000   120.000000    -0.577350    -0.577350     0.577350     0.375000     0.375000    -0.375000
   39    -1.000000   180.000000     1.000000     0.000000     0.000000     0.375000     0.375000    -0.375000
   40     1.000000    90.000000     0.000000    -1.000000     0.000000     0.375000     0.375000    -0.375000
   41     1.000000   180.000000     0.707107     0.707107     0.000000     0.375000     0.375000    -0.375000
   42     1.000000    90.000000     1.000000     0.000000     0.000000     0.375000     0.375000    -0.375000
   43    -1.000000   120.000000     0.577350    -0.577350    -0.577350     0.375000     0.375000    -0.375000
   44    -1.000000   180.000000     0.000000     1.000000     0.000000     0.375000     0.375000    -0.375000
   45    -1.000000   120.000000     0.577350     0.577350    -0.577350     0.375000     0.375000    -0.375000
   46     1.000000   180.000000     0.000000    -0.707107     0.707107     0.375000     0.375000    -0.375000
   47     1.000000   180.000000     0.707107    -0.707107     0.000000     0.375000     0.375000    -0.375000
   48     1.000000   180.000000     0.707107     0.000000    -0.707107     0.375000     0.375000    -0.375000
 
 Subroutine IBZKPT returns following result:
 ===========================================
 
 Found     20 irreducible k-points:
 
 Following reciprocal coordinates:
            Coordinates               Weight
  0.000000  0.000000  0.000000      1.000000
  0.166667  0.000000  0.000000      6.000000
  0.333333  0.000000  0.000000      6.000000
  0.500000  0.000000  0.000000      3.000000
  0.166667  0.166667  0.000000     12.000000
  0.333333  0.166667  0.000000     24.000000
  0.500000  0.166667  0.000000     12.000000
  0.333333  0.333333  0.000000     12.000000
  0.500000  0.333333  0.000000     12.000000
  0.500000  0.500000  0.000000      3.000000
  0.166667  0.166667  0.166667      8.000000
  0.333333  0.166667  0.166667     24.000000
  0.500000  0.166667  0.166667     12.000000
  0.333333  0.333333  0.166667     24.000000
  0.500000  0.333333  0.166667     24.000000
  0.500000  0.500000  0.166667      6.000000
  0.333333  0.333333  0.333333      8.000000
  0.500000  0.333333  0.333333     12.000000
  0.500000  0.500000  0.333333      6.000000
  0.500000  0.500000  0.500000      1.000000
 
 Following cartesian coordinates:
            Coordinates               Weight
  0.000000  0.000000  0.000000      1.000000
  0.023942  0.000000  0.000000      6.000000
  0.047884  0.000000  0.000000      6.000000
  0.071826  0.000000  0.000000      3.000000
  0.023942  0.023942  0.000000     12.000000
  0.047884  0.023942  0.000000     24.000000
  0.071826  0.023942  0.000000     12.000000
  0.047884  0.047884  0.000000     12.000000
  0.071826  0.047884  0.000000     12.000000
  0.071826  0.071826  0.000000      3.000000
  0.023942  0.023942  0.023942      8.000000
  0.047884  0.023942  0.023942     24.000000
  0.071826  0.023942  0.023942     12.000000
  0.047884  0.047884  0.023942     24.000000
  0.071826  0.047884  0.023942     24.000000
  0.071826  0.071826  0.023942      6.000000
  0.047884  0.047884  0.047884      8.000000
  0.071826  0.047884  0.047884     12.000000
  0.071826  0.071826  0.047884      6.000000
  0.071826  0.071826  0.071826      1.000000
 
 
 Subroutine IBZKPT_HF returns following result:
 ==============================================
 
 Found    216 k-points in 1st BZ
 the following    216 k-points will be used (e.g. in the exchange kernel)
 Following reciprocal coordinates:   # in IRBZ
  0.000000  0.000000  0.000000    0.00462963   1 t-inv F
  0.166667  0.000000  0.000000    0.00462963   2 t-inv F
  0.333333  0.000000  0.000000    0.00462963   3 t-inv F
  0.500000  0.000000  0.000000    0.00462963   4 t-inv F
  0.166667  0.166667  0.000000    0.00462963   5 t-inv F
  0.333333  0.166667  0.000000    0.00462963   6 t-inv F
  0.500000  0.166667  0.000000    0.00462963   7 t-inv F
  0.333333  0.333333  0.000000    0.00462963   8 t-inv F
  0.500000  0.333333  0.000000    0.00462963   9 t-inv F
  0.500000  0.500000  0.000000    0.00462963  10 t-inv F
  0.166667  0.166667  0.166667    0.00462963  11 t-inv F
  0.333333  0.166667  0.166667    0.00462963  12 t-inv F
  0.500000  0.166667  0.166667    0.00462963  13 t-inv F
  0.333333  0.333333  0.166667    0.00462963  14 t-inv F
  0.500000  0.333333  0.166667    0.00462963  15 t-inv F
  0.500000  0.500000  0.166667    0.00462963  16 t-inv F
  0.333333  0.333333  0.333333    0.00462963  17 t-inv F
  0.500000  0.333333  0.333333    0.00462963  18 t-inv F
  0.500000  0.500000  0.333333    0.00462963  19 t-inv F
  0.500000  0.500000  0.500000    0.00462963  20 t-inv F
  0.000000  0.166667  0.000000    0.00462963   2 t-inv F
  0.000000  0.000000  0.166667    0.00462963   2 t-inv F
  0.000000 -0.166667  0.000000    0.00462963   2 t-inv F
  0.000000  0.000000 -0.166667    0.00462963   2 t-inv F
 -0.166667  0.000000  0.000000    0.00462963   2 t-inv F
  0.000000  0.333333  0.000000    0.00462963   3 t-inv F
  0.000000  0.000000  0.333333    0.00462963   3 t-inv F
  0.000000 -0.333333  0.000000    0.00462963   3 t-inv F
  0.000000  0.000000 -0.333333    0.00462963   3 t-inv F
 -0.333333  0.000000  0.000000    0.00462963   3 t-inv F
  0.000000  0.500000  0.000000    0.00462963   4 t-inv F
  0.000000  0.000000  0.500000    0.00462963   4 t-inv F
  0.000000  0.166667  0.166667    0.00462963   5 t-inv F
  0.166667  0.000000  0.166667    0.00462963   5 t-inv F
  0.166667 -0.166667  0.000000    0.00462963   5 t-inv F
  0.166667  0.000000 -0.166667    0.00462963   5 t-inv F
  0.000000 -0.166667 -0.166667    0.00462963   5 t-inv F
 -0.166667 -0.166667  0.000000    0.00462963   5 t-inv F
  0.000000 -0.166667  0.166667    0.00462963   5 t-inv F
 -0.166667  0.000000  0.166667    0.00462963   5 t-inv F
 -0.166667  0.166667  0.000000    0.00462963   5 t-inv F
 -0.166667  0.000000 -0.166667    0.00462963   5 t-inv F
  0.000000  0.166667 -0.166667    0.00462963   5 t-inv F
  0.000000  0.333333  0.166667    0.00462963   6 t-inv F
  0.166667  0.000000  0.333333    0.00462963   6 t-inv F
  0.166667 -0.333333  0.000000    0.00462963   6 t-inv F
  0.333333  0.000000 -0.166667    0.00462963   6 t-inv F
  0.000000 -0.166667 -0.333333    0.00462963   6 t-inv F
 -0.333333 -0.166667  0.000000    0.00462963   6 t-inv F
  0.000000 -0.333333  0.166667    0.00462963   6 t-inv F
 -0.166667  0.000000  0.333333    0.00462963   6 t-inv F
 -0.166667  0.333333  0.000000    0.00462963   6 t-inv F
 -0.333333  0.000000 -0.166667    0.00462963   6 t-inv F
  0.000000  0.166667 -0.333333    0.00462963   6 t-inv F
  0.000000 -0.333333 -0.166667    0.00462963   6 t-inv F
  0.166667  0.000000 -0.333333    0.00462963   6 t-inv F
  0.333333 -0.166667  0.000000    0.00462963   6 t-inv F
  0.000000 -0.166667  0.333333    0.00462963   6 t-inv F
 -0.166667 -0.333333  0.000000    0.00462963   6 t-inv F
 -0.333333  0.000000  0.166667    0.00462963   6 t-inv F
 -0.166667  0.000000 -0.333333    0.00462963   6 t-inv F
 -0.333333  0.166667  0.000000    0.00462963   6 t-inv F
  0.000000  0.333333 -0.166667    0.00462963   6 t-inv F
  0.333333  0.000000  0.166667    0.00462963   6 t-inv F
  0.166667  0.333333  0.000000    0.00462963   6 t-inv F
  0.000000  0.166667  0.333333    0.00462963   6 t-inv F
  0.000000  0.500000  0.166667    0.00462963   7 t-inv F
  0.166667  0.000000  0.500000    0.00462963   7 t-inv F
  0.166667 -0.500000  0.000000    0.00462963   7 t-inv F
  0.500000  0.000000 -0.166667    0.00462963   7 t-inv F
  0.000000 -0.166667 -0.500000    0.00462963   7 t-inv F
 -0.500000 -0.166667  0.000000    0.00462963   7 t-inv F
 -0.166667  0.000000  0.500000    0.00462963   7 t-inv F
 -0.166667  0.500000  0.000000    0.00462963   7 t-inv F
  0.000000  0.166667 -0.500000    0.00462963   7 t-inv F
  0.000000 -0.500000 -0.166667    0.00462963   7 t-inv F
 -0.500000  0.000000  0.166667    0.00462963   7 t-inv F
  0.000000  0.333333  0.333333    0.00462963   8 t-inv F
  0.333333  0.000000  0.333333    0.00462963   8 t-inv F
  0.333333 -0.333333  0.000000    0.00462963   8 t-inv F
  0.333333  0.000000 -0.333333    0.00462963   8 t-inv F
  0.000000 -0.333333 -0.333333    0.00462963   8 t-inv F
 -0.333333 -0.333333  0.000000    0.00462963   8 t-inv F
  0.000000 -0.333333  0.333333    0.00462963   8 t-inv F
 -0.333333  0.000000  0.333333    0.00462963   8 t-inv F
 -0.333333  0.333333  0.000000    0.00462963   8 t-inv F
 -0.333333  0.000000 -0.333333    0.00462963   8 t-inv F
  0.000000  0.333333 -0.333333    0.00462963   8 t-inv F
  0.000000  0.500000  0.333333    0.00462963   9 t-inv F
  0.333333  0.000000  0.500000    0.00462963   9 t-inv F
  0.333333 -0.500000  0.000000    0.00462963   9 t-inv F
  0.500000  0.000000 -0.333333    0.00462963   9 t-inv F
  0.000000 -0.333333 -0.500000    0.00462963   9 t-inv F
 -0.500000 -0.333333  0.000000    0.00462963   9 t-inv F
 -0.333333  0.000000  0.500000    0.00462963   9 t-inv F
 -0.333333  0.500000  0.000000    0.00462963   9 t-inv F
  0.000000  0.333333 -0.500000    0.00462963   9 t-inv F
  0.000000 -0.500000 -0.333333    0.00462963   9 t-inv F
 -0.500000  0.000000  0.333333    0.00462963   9 t-inv F
  0.000000  0.500000  0.500000    0.00462963  10 t-inv F
  0.500000  0.000000  0.500000    0.00462963  10 t-inv F
  0.166667 -0.166667 -0.166667    0.00462963  11 t-inv F
 -0.166667 -0.166667  0.166667    0.00462963  11 t-inv F
 -0.166667  0.166667 -0.166667    0.00462963  11 t-inv F
 -0.166667 -0.166667 -0.166667    0.00462963  11 t-inv F
 -0.166667  0.166667  0.166667    0.00462963  11 t-inv F
  0.166667  0.166667 -0.166667    0.00462963  11 t-inv F
  0.166667 -0.166667  0.166667    0.00462963  11 t-inv F
  0.166667  0.333333  0.166667    0.00462963  12 t-inv F
  0.166667  0.166667  0.333333    0.00462963  12 t-inv F
  0.166667 -0.333333 -0.166667    0.00462963  12 t-inv F
  0.333333 -0.166667 -0.166667    0.00462963  12 t-inv F
  0.166667 -0.166667 -0.333333    0.00462963  12 t-inv F
 -0.333333 -0.166667  0.166667    0.00462963  12 t-inv F
 -0.166667 -0.333333  0.166667    0.00462963  12 t-inv F
 -0.166667 -0.166667  0.333333    0.00462963  12 t-inv F
 -0.166667  0.333333 -0.166667    0.00462963  12 t-inv F
 -0.333333  0.166667 -0.166667    0.00462963  12 t-inv F
 -0.166667  0.166667 -0.333333    0.00462963  12 t-inv F
 -0.333333 -0.166667 -0.166667    0.00462963  12 t-inv F
 -0.166667 -0.333333 -0.166667    0.00462963  12 t-inv F
 -0.166667 -0.166667 -0.333333    0.00462963  12 t-inv F
 -0.166667  0.333333  0.166667    0.00462963  12 t-inv F
 -0.333333  0.166667  0.166667    0.00462963  12 t-inv F
 -0.166667  0.166667  0.333333    0.00462963  12 t-inv F
  0.333333  0.166667 -0.166667    0.00462963  12 t-inv F
  0.166667  0.333333 -0.166667    0.00462963  12 t-inv F
  0.166667  0.166667 -0.333333    0.00462963  12 t-inv F
  0.166667 -0.333333  0.166667    0.00462963  12 t-inv F
  0.333333 -0.166667  0.166667    0.00462963  12 t-inv F
  0.166667 -0.166667  0.333333    0.00462963  12 t-inv F
  0.166667  0.500000  0.166667    0.00462963  13 t-inv F
  0.166667  0.166667  0.500000    0.00462963  13 t-inv F
  0.166667 -0.500000 -0.166667    0.00462963  13 t-inv F
  0.500000 -0.166667 -0.166667    0.00462963  13 t-inv F
  0.166667 -0.166667 -0.500000    0.00462963  13 t-inv F
 -0.500000 -0.166667  0.166667    0.00462963  13 t-inv F
 -0.166667 -0.500000  0.166667    0.00462963  13 t-inv F
 -0.166667 -0.166667  0.500000    0.00462963  13 t-inv F
 -0.166667  0.500000 -0.166667    0.00462963  13 t-inv F
 -0.500000  0.166667 -0.166667    0.00462963  13 t-inv F
 -0.166667  0.166667 -0.500000    0.00462963  13 t-inv F
  0.166667  0.333333  0.333333    0.00462963  14 t-inv F
  0.333333  0.166667  0.333333    0.00462963  14 t-inv F
  0.333333 -0.333333 -0.166667    0.00462963  14 t-inv F
  0.333333 -0.166667 -0.333333    0.00462963  14 t-inv F
  0.166667 -0.333333 -0.333333    0.00462963  14 t-inv F
 -0.333333 -0.333333  0.166667    0.00462963  14 t-inv F
 -0.166667 -0.333333  0.333333    0.00462963  14 t-inv F
 -0.333333 -0.166667  0.333333    0.00462963  14 t-inv F
 -0.333333  0.333333 -0.166667    0.00462963  14 t-inv F
 -0.333333  0.166667 -0.333333    0.00462963  14 t-inv F
 -0.166667  0.333333 -0.333333    0.00462963  14 t-inv F
 -0.333333 -0.333333 -0.166667    0.00462963  14 t-inv F
 -0.166667 -0.333333 -0.333333    0.00462963  14 t-inv F
 -0.333333 -0.166667 -0.333333    0.00462963  14 t-inv F
 -0.333333  0.333333  0.166667    0.00462963  14 t-inv F
 -0.333333  0.166667  0.333333    0.00462963  14 t-inv F
 -0.166667  0.333333  0.333333    0.00462963  14 t-inv F
  0.333333  0.333333 -0.166667    0.00462963  14 t-inv F
  0.166667  0.333333 -0.333333    0.00462963  14 t-inv F
  0.333333  0.166667 -0.333333    0.00462963  14 t-inv F
  0.333333 -0.333333  0.166667    0.00462963  14 t-inv F
  0.333333 -0.166667  0.333333    0.00462963  14 t-inv F
  0.166667 -0.333333  0.333333    0.00462963  14 t-inv F
  0.166667  0.500000  0.333333    0.00462963  15 t-inv F
  0.333333  0.166667  0.500000    0.00462963  15 t-inv F
  0.333333 -0.500000 -0.166667    0.00462963  15 t-inv F
  0.500000 -0.166667 -0.333333    0.00462963  15 t-inv F
  0.166667 -0.333333 -0.500000    0.00462963  15 t-inv F
 -0.500000 -0.333333  0.166667    0.00462963  15 t-inv F
 -0.166667 -0.500000  0.333333    0.00462963  15 t-inv F
 -0.333333 -0.166667  0.500000    0.00462963  15 t-inv F
 -0.333333  0.500000 -0.166667    0.00462963  15 t-inv F
 -0.500000  0.166667 -0.333333    0.00462963  15 t-inv F
 -0.166667  0.333333 -0.500000    0.00462963  15 t-inv F
  0.166667 -0.500000 -0.333333    0.00462963  15 t-inv F
  0.333333 -0.166667 -0.500000    0.00462963  15 t-inv F
  0.500000 -0.333333 -0.166667    0.00462963  15 t-inv F
 -0.166667 -0.333333  0.500000    0.00462963  15 t-inv F
 -0.333333 -0.500000  0.166667    0.00462963  15 t-inv F
 -0.500000 -0.166667  0.333333    0.00462963  15 t-inv F
 -0.333333  0.166667 -0.500000    0.00462963  15 t-inv F
 -0.500000  0.333333 -0.166667    0.00462963  15 t-inv F
 -0.166667  0.500000 -0.333333    0.00462963  15 t-inv F
  0.500000  0.166667  0.333333    0.00462963  15 t-inv F
  0.333333  0.500000  0.166667    0.00462963  15 t-inv F
  0.166667  0.333333  0.500000    0.00462963  15 t-inv F
  0.166667  0.500000  0.500000    0.00462963  16 t-inv F
  0.500000  0.166667  0.500000    0.00462963  16 t-inv F
  0.500000 -0.500000 -0.166667    0.00462963  16 t-inv F
  0.500000 -0.166667 -0.500000    0.00462963  16 t-inv F
 -0.166667 -0.500000  0.500000    0.00462963  16 t-inv F
  0.333333 -0.333333 -0.333333    0.00462963  17 t-inv F
 -0.333333 -0.333333  0.333333    0.00462963  17 t-inv F
 -0.333333  0.333333 -0.333333    0.00462963  17 t-inv F
 -0.333333 -0.333333 -0.333333    0.00462963  17 t-inv F
 -0.333333  0.333333  0.333333    0.00462963  17 t-inv F
  0.333333  0.333333 -0.333333    0.00462963  17 t-inv F
  0.333333 -0.333333  0.333333    0.00462963  17 t-inv F
  0.333333  0.500000  0.333333    0.00462963  18 t-inv F
  0.333333  0.333333  0.500000    0.00462963  18 t-inv F
  0.333333 -0.500000 -0.333333    0.00462963  18 t-inv F
  0.500000 -0.333333 -0.333333    0.00462963  18 t-inv F
  0.333333 -0.333333 -0.500000    0.00462963  18 t-inv F
 -0.500000 -0.333333  0.333333    0.00462963  18 t-inv F
 -0.333333 -0.500000  0.333333    0.00462963  18 t-inv F
 -0.333333 -0.333333  0.500000    0.00462963  18 t-inv F
 -0.333333  0.500000 -0.333333    0.00462963  18 t-inv F
 -0.500000  0.333333 -0.333333    0.00462963  18 t-inv F
 -0.333333  0.333333 -0.500000    0.00462963  18 t-inv F
  0.333333  0.500000  0.500000    0.00462963  19 t-inv F
  0.500000  0.333333  0.500000    0.00462963  19 t-inv F
  0.500000 -0.500000 -0.333333    0.00462963  19 t-inv F
  0.500000 -0.333333 -0.500000    0.00462963  19 t-inv F
 -0.333333 -0.500000  0.500000    0.00462963  19 t-inv F


--------------------------------------------------------------------------------------------------------




 Dimension of arrays:
   k-points           NKPTS =     20   k-points in BZ     NKDIM =     20   number of bands    NBANDS=    192
   number of dos      NEDOS =    301   number of ions     NIONS =     64
   non local maximal  LDIM  =      4   non local SUM 2l+1 LMDIM =      8
   total plane-waves  NPLWV = 110592
   max r-space proj   IRMAX =      1   max aug-charges    IRDMAX=  31146
   dimension x,y,z NGX =    48 NGY =   48 NGZ =   48
   dimension x,y,z NGXF=    96 NGYF=   96 NGZF=   96
   support grid    NGXF=   192 NGYF=  192 NGZF=  192
   ions per type =              64
   NGX,Y,Z   is equivalent  to a cutoff of  11.46, 11.46, 11.46 a.u.
   NGXF,Y,Z  is equivalent  to a cutoff of  22.93, 22.93, 22.93 a.u.

 SYSTEM =  unknown system                          
 POSCAR =  generated by phonopy                    

 Startparameter for this run:
   NWRITE =      2    write-flag & timer
   PREC   = accura    normal or accurate (medium, high low for compatibility)
   ISTART =      0    job   : 0-new  1-cont  2-samecut
   ICHARG =      2    charge: 1-file 2-atom 10-const
   ISPIN  =      1    spin polarized calculation?
   LNONCOLLINEAR =      F non collinear calculations
   LSORBIT =      F    spin-orbit coupling
   INIWAV =      1    electr: 0-lowe 1-rand  2-diag
   LASPH  =      F    aspherical Exc in radial PAW
   METAGGA=      F    non-selfconsistent MetaGGA calc.

 Electronic Relaxation 1
   ENCUT  =  400.0 eV  29.40 Ry    5.42 a.u.  11.35 11.35 11.35*2*pi/ulx,y,z
   ENINI  =  400.0     initial cutoff
   ENAUG  =  644.9 eV  augmentation charge cutoff
   NELM   =     60;   NELMIN=  2; NELMDL= -5     # of ELM steps 
   EDIFF  = 0.1E-07   stopping-criterion for ELM
   LREAL  =      F    real-space projection
   NLSPLINE    = F    spline interpolate recip. space projectors
   LCOMPAT=      F    compatible to vasp.4.4
   GGA_COMPAT  = T    GGA compatible to vasp.4.4-vasp.4.6
   LMAXPAW     = -100 max onsite density
   LMAXMIX     =    2 max onsite mixed and CHGCAR
   VOSKOWN=      0    Vosko Wilk Nusair interpolation
   ROPT   =    0.00000
 Ionic relaxation
   EDIFFG = 0.1E-06   stopping-criterion for IOM
   NSW    =      1    number of steps for IOM
   NBLOCK =      1;   KBLOCK =      1    inner block; outer block 
   IBRION =      8    ionic relax: 0-MD 1-quasi-New 2-CG
   NFREE  =      0    steps in history (QN), initial steepest desc. (CG)
   ISIF   =      2    stress and relaxation
   IWAVPR =     11    prediction:  0-non 1-charg 2-wave 3-comb
   ISYM   =      2    0-nonsym 1-usesym 2-fastsym
   LCORR  =      T    Harris-Foulkes like correction to forces

   POTIM  = 0.5000    time-step for ionic-motion
   TEIN   =    0.0    initial temperature
   TEBEG  =    0.0;   TEEND  =   0.0 temperature during run
   SMASS  =  -3.00    Nose mass-parameter (am)
   estimated Nose-frequenzy (Omega)   =  0.10E-29 period in steps =****** mass=  -0.111E-26a.u.
   SCALEE = 1.0000    scale energy and forces
   NPACO  =    256;   APACO  = 16.0  distance and # of slots for P.C.
   PSTRESS=    0.0 pullay stress

  Mass of Ions in am
   POMASS =  12.01
  Ionic Valenz
   ZVAL   =   4.00
  Atomic Wigner-Seitz radii
   RWIGS  =  -1.00
  virtual crystal weights 
   VCA    =   1.00
   NELECT =     256.0000    total number of electrons
   NUPDOWN=      -1.0000    fix difference up-down

 DOS related values:
   EMIN   =  10.00;   EMAX   =-10.00  energy-range for DOS
   EFERMI =   0.00
   ISMEAR =     0;   SIGMA  =   0.06  broadening in eV -4-tet -1-fermi 0-gaus

 Electronic relaxation 2 (details)
   IALGO  =     38    algorithm
   LDIAG  =      T    sub-space diagonalisation (order eigenvalues)
   LSUBROT=      F    optimize rotation matrix (better conditioning)
   TURBO    =      0    0=normal 1=particle mesh
   IRESTART =      0    0=no restart 2=restart with 2 vectors
   NREBOOT  =      0    no. of reboots
   NMIN     =      0    reboot dimension
   EREF     =   0.00    reference energy to select bands
   IMIX   =      4    mixing-type and parameters
     AMIX     =   0.40;   BMIX     =  1.00
     AMIX_MAG =   1.60;   BMIX_MAG =  1.00
     AMIN     =   0.10
     WC   =   100.;   INIMIX=   1;  MIXPRE=   1;  MAXMIX= -45

 Intra band minimization:
   WEIMIN = 0.0010     energy-eigenvalue tresh-hold
   EBREAK =  0.13E-10  absolut break condition
   DEPER  =   0.30     relativ break condition  

   TIME   =   0.40     timestep for ELM

  volume/ion in A,a.u.               =       5.27        35.57
  Fermi-wavevector in a.u.,A,eV,Ry     =   1.493252  2.821838 30.338311  2.229803
  Thomas-Fermi vector in A             =   2.605677
 
 Write flags
   LWAVE        =      F    write WAVECAR
   LDOWNSAMPLE  =      F    k-point downsampling of WAVECAR
   LCHARG       =      F    write CHGCAR
   LVTOT        =      F    write LOCPOT, total local potential
   LVHAR        =      F    write LOCPOT, Hartree potential only
   LELF         =      F    write electronic localiz. function (ELF)
   LORBIT       =      0    0 simple, 1 ext, 2 COOP (PROOUT), +10 PAW based schemes


 Dipole corrections
   LMONO  =      F    monopole corrections only (constant potential shift)
   LDIPOL =      F    correct potential (dipole corrections)
   IDIPOL =      0    1-x, 2-y, 3-z, 4-all directions 
   EPSILON=  1.0000000 bulk dielectric constant

 Exchange correlation treatment:
   GGA     =    --    GGA type
   LEXCH   =     8    internal setting for exchange type
   VOSKOWN=      0    Vosko Wilk Nusair interpolation
   LHFCALC =     F    Hartree Fock is set to
   LHFONE  =     F    Hartree Fock one center treatment
   AEXX    =    0.0000 exact exchange contribution

 Linear response parameters
   LEPSILON=     F    determine dielectric tensor
   LRPA    =     F    only Hartree local field effects (RPA)
   LNABLA  =     F    use nabla operator in PAW spheres
   LVEL    =     F    velocity operator in full k-point grid
   LINTERFAST=   F  fast interpolation
   KINTER  =     0    interpolate to denser k-point grid
   CSHIFT  =0.1000    complex shift for real part using Kramers Kronig
   OMEGAMAX=  -1.0    maximum frequency
   DEG_THRESHOLD= 0.2000000E-02 threshold for treating states as degnerate
   RTIME   =   -0.100 relaxation time in fs
  (WPLASMAI=    0.000 imaginary part of plasma frequency in eV, 0.658/RTIME)
   DFIELD  = 0.0000000 0.0000000 0.0000000 field for delta impulse in time
 
 Orbital magnetization related:
   ORBITALMAG=     F  switch on orbital magnetization
   LCHIMAG   =     F  perturbation theory with respect to B field
   DQ        =  0.001000  dq finite difference perturbation B field
   LLRAUG    =     F  two centre corrections for induced B field



--------------------------------------------------------------------------------------------------------


 linear response using symmetry
 charge density and potential will be updated during run
 non-spin polarized calculation
 Variant of blocked Davidson
 Davidson routine will perform the subspace rotation
 perform sub-space diagonalisation
    after iterative eigenvector-optimisation
 modified Broyden-mixing scheme, WC =      100.0
 initial mixing is a Kerker type mixing with AMIX =  0.4000 and BMIX =      1.0000
 Hartree-type preconditioning will be used
 using additional bands           64
 reciprocal scheme for non local part
 calculate Harris-corrections to forces 
   (improved forces if not selfconsistent)
 use gradient corrections 
 use of overlap-Matrix (Vanderbilt PP)
 Gauss-broadening in eV      SIGMA  =   0.06


--------------------------------------------------------------------------------------------------------


  energy-cutoff  :      400.00
  volume of cell :      337.34
      direct lattice vectors                 reciprocal lattice vectors
     6.961266235  0.000000000  0.000000000     0.143652026  0.000000000  0.000000000
     0.000000000  6.961266235  0.000000000     0.000000000  0.143652026  0.000000000
     0.000000000  0.000000000  6.961266235     0.000000000  0.000000000  0.143652026

  length of vectors
     6.961266235  6.961266235  6.961266235     0.143652026  0.143652026  0.143652026


 
 k-points in units of 2pi/SCALE and weight: kpt_density=3000                        
   0.00000000  0.00000000  0.00000000       0.005
   0.02394200  0.00000000  0.00000000       0.028
   0.04788401  0.00000000  0.00000000       0.028
   0.07182601  0.00000000  0.00000000       0.014
   0.02394200  0.02394200  0.00000000       0.056
   0.04788401  0.02394200  0.00000000       0.111
   0.07182601  0.02394200  0.00000000       0.056
   0.04788401  0.04788401  0.00000000       0.056
   0.07182601  0.04788401  0.00000000       0.056
   0.07182601  0.07182601  0.00000000       0.014
   0.02394200  0.02394200  0.02394200       0.037
   0.04788401  0.02394200  0.02394200       0.111
   0.07182601  0.02394200  0.02394200       0.056
   0.04788401  0.04788401  0.02394200       0.111
   0.07182601  0.04788401  0.02394200       0.111
   0.07182601  0.07182601  0.02394200       0.028
   0.04788401  0.04788401  0.04788401       0.037
   0.07182601  0.04788401  0.04788401       0.056
   0.07182601  0.07182601  0.04788401       0.028
   0.07182601  0.07182601  0.07182601       0.005
 
 k-points in reciprocal lattice and weights: kpt_density=3000                        
   0.00000000  0.00000000  0.00000000       0.005
   0.16666667  0.00000000  0.00000000       0.028
   0.33333333  0.00000000  0.00000000       0.028
   0.50000000  0.00000000  0.00000000       0.014
   0.16666667  0.16666667  0.00000000       0.056
   0.33333333  0.16666667  0.00000000       0.111
   0.50000000  0.16666667  0.00000000       0.056
   0.33333333  0.33333333  0.00000000       0.056
   0.50000000  0.33333333  0.00000000       0.056
   0.50000000  0.50000000  0.00000000       0.014
   0.16666667  0.16666667  0.16666667       0.037
   0.33333333  0.16666667  0.16666667       0.111
   0.50000000  0.16666667  0.16666667       0.056
   0.33333333  0.33333333  0.16666667       0.111
   0.50000000  0.33333333  0.16666667       0.111
   0.50000000  0.50000000  0.16666667       0.028
   0.33333333  0.33333333  0.33333333       0.037
   0.50000000  0.33333333  0.33333333       0.056
   0.50000000  0.50000000  0.33333333       0.028
   0.50000000  0.50000000  0.50000000       0.005
 
 position of ions in fractional coordinates (direct lattice) 
   0.12500000  0.37500000  0.12500000
   0.62500000  0.37500000  0.12500000
   0.12500000  0.87500000  0.12500000
   0.62500000  0.87500000  0.12500000
   0.12500000  0.37500000  0.62500000
   0.62500000  0.37500000  0.62500000
   0.12500000  0.87500000  0.62500000
   0.62500000  0.87500000  0.62500000
   0.00000000  0.00000000  0.25000000
   0.50000000  0.00000000  0.25000000
   0.00000000  0.50000000  0.25000000
   0.50000000  0.50000000  0.25000000
   0.00000000  0.00000000  0.75000000
   0.50000000  0.00000000  0.75000000
   0.00000000  0.50000000  0.75000000
   0.50000000  0.50000000  0.75000000
   0.12500000  0.12500000  0.37500000
   0.62500000  0.12500000  0.37500000
   0.12500000  0.62500000  0.37500000
   0.62500000  0.62500000  0.37500000
   0.12500000  0.12500000  0.87500000
   0.62500000  0.12500000  0.87500000
   0.12500000  0.62500000  0.87500000
   0.62500000  0.62500000  0.87500000
   0.00000000  0.25000000  0.00000000
   0.50000000  0.25000000  0.00000000
   0.00000000  0.75000000  0.00000000
   0.50000000  0.75000000  0.00000000
   0.00000000  0.25000000  0.50000000
   0.50000000  0.25000000  0.50000000
   0.00000000  0.75000000  0.50000000
   0.50000000  0.75000000  0.50000000
   0.37500000  0.37500000  0.37500000
   0.87500000  0.37500000  0.37500000
   0.37500000  0.87500000  0.37500000
   0.87500000  0.87500000  0.37500000
   0.37500000  0.37500000  0.87500000
   0.87500000  0.37500000  0.87500000
   0.37500000  0.87500000  0.87500000
   0.87500000  0.87500000  0.87500000
   0.25000000  0.00000000  0.00000000
   0.75000000  0.00000000  0.00000000
   0.25000000  0.50000000  0.00000000
   0.75000000  0.50000000  0.00000000
   0.25000000  0.00000000  0.50000000
   0.75000000  0.00000000  0.50000000
   0.25000000  0.50000000  0.50000000
   0.75000000  0.50000000  0.50000000
   0.37500000  0.12500000  0.12500000
   0.87500000  0.12500000  0.12500000
   0.37500000  0.62500000  0.12500000
   0.87500000  0.62500000  0.12500000
   0.37500000  0.12500000  0.62500000
   0.87500000  0.12500000  0.62500000
   0.37500000  0.62500000  0.62500000
   0.87500000  0.62500000  0.62500000
   0.25000000  0.25000000  0.25000000
   0.75000000  0.25000000  0.25000000
   0.25000000  0.75000000  0.25000000
   0.75000000  0.75000000  0.25000000
   0.25000000  0.25000000  0.75000000
   0.75000000  0.25000000  0.75000000
   0.25000000  0.75000000  0.75000000
   0.75000000  0.75000000  0.75000000
 
 position of ions in cartesian coordinates  (Angst):
   0.87015828  2.61047484  0.87015828
   4.35079140  2.61047484  0.87015828
   0.87015828  6.09110796  0.87015828
   4.35079140  6.09110796  0.87015828
   0.87015828  2.61047484  4.35079140
   4.35079140  2.61047484  4.35079140
   0.87015828  6.09110796  4.35079140
   4.35079140  6.09110796  4.35079140
   0.00000000  0.00000000  1.74031656
   3.48063312  0.00000000  1.74031656
   0.00000000  3.48063312  1.74031656
   3.48063312  3.48063312  1.74031656
   0.00000000  0.00000000  5.22094968
   3.48063312  0.00000000  5.22094968
   0.00000000  3.48063312  5.22094968
   3.48063312  3.48063312  5.22094968
   0.87015828  0.87015828  2.61047484
   4.35079140  0.87015828  2.61047484
   0.87015828  4.35079140  2.61047484
   4.35079140  4.35079140  2.61047484
   0.87015828  0.87015828  6.09110796
   4.35079140  0.87015828  6.09110796
   0.87015828  4.35079140  6.09110796
   4.35079140  4.35079140  6.09110796
   0.00000000  1.74031656  0.00000000
   3.48063312  1.74031656  0.00000000
   0.00000000  5.22094968  0.00000000
   3.48063312  5.22094968  0.00000000
   0.00000000  1.74031656  3.48063312
   3.48063312  1.74031656  3.48063312
   0.00000000  5.22094968  3.48063312
   3.48063312  5.22094968  3.48063312
   2.61047484  2.61047484  2.61047484
   6.09110796  2.61047484  2.61047484
   2.61047484  6.09110796  2.61047484
   6.09110796  6.09110796  2.61047484
   2.61047484  2.61047484  6.09110796
   6.09110796  2.61047484  6.09110796
   2.61047484  6.09110796  6.09110796
   6.09110796  6.09110796  6.09110796
   1.74031656  0.00000000  0.00000000
   5.22094968  0.00000000  0.00000000
   1.74031656  3.48063312  0.00000000
   5.22094968  3.48063312  0.00000000
   1.74031656  0.00000000  3.48063312
   5.22094968  0.00000000  3.48063312
   1.74031656  3.48063312  3.48063312
   5.22094968  3.48063312  3.48063312
   2.61047484  0.87015828  0.87015828
   6.09110796  0.87015828  0.87015828
   2.61047484  4.35079140  0.87015828
   6.09110796  4.35079140  0.87015828
   2.61047484  0.87015828  4.35079140
   6.09110796  0.87015828  4.35079140
   2.61047484  4.35079140  4.35079140
   6.09110796  4.35079140  4.35079140
   1.74031656  1.74031656  1.74031656
   5.22094968  1.74031656  1.74031656
   1.74031656  5.22094968  1.74031656
   5.22094968  5.22094968  1.74031656
   1.74031656  1.74031656  5.22094968
   5.22094968  1.74031656  5.22094968
   1.74031656  5.22094968  5.22094968
   5.22094968  5.22094968  5.22094968
 


--------------------------------------------------------------------------------------------------------


 k-point  1 :   0.0000 0.0000 0.0000  plane waves:    6043
 k-point  2 :   0.1667 0.0000 0.0000  plane waves:    6131
 k-point  3 :   0.3333 0.0000 0.0000  plane waves:    6127
 k-point  4 :   0.5000 0.0000 0.0000  plane waves:    6126
 k-point  5 :   0.1667 0.1667 0.0000  plane waves:    6124
 k-point  6 :   0.3333 0.1667 0.0000  plane waves:    6140
 k-point  7 :   0.5000 0.1667 0.0000  plane waves:    6142
 k-point  8 :   0.3333 0.3333 0.0000  plane waves:    6118
 k-point  9 :   0.5000 0.3333 0.0000  plane waves:    6132
 k-point 10 :   0.5000 0.5000 0.0000  plane waves:    6152
 k-point 11 :   0.1667 0.1667 0.1667  plane waves:    6148
 k-point 12 :   0.3333 0.1667 0.1667  plane waves:    6130
 k-point 13 :   0.5000 0.1667 0.1667  plane waves:    6140
 k-point 14 :   0.3333 0.3333 0.1667  plane waves:    6113
 k-point 15 :   0.5000 0.3333 0.1667  plane waves:    6130
 k-point 16 :   0.5000 0.5000 0.1667  plane waves:    6104
 k-point 17 :   0.3333 0.3333 0.3333  plane waves:    6115
 k-point 18 :   0.5000 0.3333 0.3333  plane waves:    6120
 k-point 19 :   0.5000 0.5000 0.3333  plane waves:    6080
 k-point 20 :   0.5000 0.5000 0.5000  plane waves:    6152

 maximum and minimum number of plane-waves per node :      6152     6043

 maximum number of plane-waves:      6152
 maximum index in each direction: 
   IXMAX=   11   IYMAX=   11   IZMAX=   11
   IXMIN=  -11   IYMIN=  -11   IZMIN=  -11


 serial   3D FFT for wavefunctions
 parallel 3D FFT for charge:
    minimum data exchange during FFTs selected (reduces bandwidth)


 total amount of memory used by VASP MPI-rank0    67608. kBytes
=======================================================================

   base      :      30000. kBytes
   nonl-proj :      14229. kBytes
   fftplans  :       4537. kBytes
   grid      :       5806. kBytes
   one-center:        196. kBytes
   wavefun   :      12840. kBytes
 
     INWAV:  cpu time    0.0004: real time    0.0005
 Broyden mixing: mesh for mixing (old mesh)
   NGX = 23   NGY = 23   NGZ = 23
  (NGX  = 96   NGY  = 96   NGZ  = 96)
  gives a total of  12167 points

 initial charge density was supplied:
 charge density of overlapping atoms calculated
 number of electron     256.0000000 magnetization 
 keeping initial charge density in first step


--------------------------------------------------------------------------------------------------------


 Maximum index for augmentation-charges         1177 (set IRDMAX)


--------------------------------------------------------------------------------------------------------


 First call to EWALD:  gamma=   0.255
 Maximum number of real-space cells 3x 3x 3
 Maximum number of reciprocal cells 3x 3x 3

    FEWALD:  cpu time    0.0086: real time    0.0086


--------------------------------------- Iteration      1(   1)  ---------------------------------------


    POTLOK:  cpu time    0.0649: real time    0.0855
    SETDIJ:  cpu time    0.0457: real time    0.0459
     EDDAV:  cpu time   12.9911: real time   13.0020
       DOS:  cpu time    0.0059: real time    0.0059
    --------------------------------------------
      LOOP:  cpu time   13.1078: real time   13.1395

 eigenvalue-minimisations  :  7680
 total energy-change (2. order) : 0.5211333E+03  (-0.1149747E+05)
 number of electron     256.0000000 magnetization 
 augmentation part      256.0000000 magnetization 

 Free energy of the ion-electron system (eV)
  ---------------------------------------------------
  alpha Z        PSCENC =       989.34351435
  Ewald energy   TEWEN  =    -11410.33925039
  -Hartree energ DENC   =      -513.42266140
  -exchange      EXHF   =         0.00000000
  -V(xc)+E(xc)   XCENC  =       930.37448523
  PAW double counting   =      2421.21235816    -2494.84305711
  entropy T*S    EENTRO =        -0.01338085
  eigenvalues    EBANDS =      1182.67896075
  atomic energy  EATOM  =      9416.14232778
  Solvation  Ediel_sol  =         0.00000000
  ---------------------------------------------------
  free energy    TOTEN  =       521.13329652 eV

  energy without entropy =      521.14667737  energy(sigma->0) =      521.13998695


--------------------------------------------------------------------------------------------------------




--------------------------------------- Iteration      1(   2)  ---------------------------------------


     EDDAV:  cpu time   16.1994: real time   16.2006
       DOS:  cpu time    0.0032: real time    0.0032
    --------------------------------------------
      LOOP:  cpu time   16.2026: real time   16.2038

 eigenvalue-minimisations  : 10112
 total energy-change (2. order) :-0.1085282E+04  (-0.1036428E+04)
 number of electron     256.0000000 magnetization 
 augmentation part      256.0000000 magnetization 

 Free energy of the ion-electron system (eV)
  ---------------------------------------------------
  alpha Z        PSCENC =       989.34351435
  Ewald energy   TEWEN  =    -11410.33925039
  -Hartree energ DENC   =      -513.42266140
  -exchange      EXHF   =         0.00000000
  -V(xc)+E(xc)   XCENC  =       930.37448523
  PAW double counting   =      2421.21235816    -2494.84305711
  entropy T*S    EENTRO =        -0.00000000
  eigenvalues    EBANDS =        97.38379490
  atomic energy  EATOM  =      9416.14232778
  Solvation  Ediel_sol  =         0.00000000
  ---------------------------------------------------
  free energy    TOTEN  =      -564.14848848 eV

  energy without entropy =     -564.14848848  energy(sigma->0) =     -564.14848848


--------------------------------------------------------------------------------------------------------




--------------------------------------- Iteration      1(   3)  ---------------------------------------


     EDDAV:  cpu time   16.4003: real time   16.4017
       DOS:  cpu time    0.0028: real time    0.0028
    --------------------------------------------
      LOOP:  cpu time   16.4031: real time   16.4044

 eigenvalue-minimisations  : 10208
 total energy-change (2. order) :-0.3944679E+02  (-0.3923079E+02)
 number of electron     256.0000000 magnetization 
 augmentation part      256.0000000 magnetization 

 Free energy of the ion-electron system (eV)
  ---------------------------------------------------
  alpha Z        PSCENC =       989.34351435
  Ewald energy   TEWEN  =    -11410.33925039
  -Hartree energ DENC   =      -513.42266140
  -exchange      EXHF   =         0.00000000
  -V(xc)+E(xc)   XCENC  =       930.37448523
  PAW double counting   =      2421.21235816    -2494.84305711
  entropy T*S    EENTRO =        -0.00000000
  eigenvalues    EBANDS =        57.93700178
  atomic energy  EATOM  =      9416.14232778
  Solvation  Ediel_sol  =         0.00000000
  ---------------------------------------------------
  free energy    TOTEN  =      -603.59528160 eV

  energy without entropy =     -603.59528160  energy(sigma->0) =     -603.59528160


--------------------------------------------------------------------------------------------------------




--------------------------------------- Iteration      1(   4)  ---------------------------------------


     EDDAV:  cpu time   16.0073: real time   16.0086
       DOS:  cpu time    0.0027: real time    0.0027
    --------------------------------------------
      LOOP:  cpu time   16.0100: real time   16.0113

 eigenvalue-minimisations  :  9920
 total energy-change (2. order) :-0.3740222E+00  (-0.3732586E+00)
 number of electron     256.0000000 magnetization 
 augmentation part      256.0000000 magnetization 

 Free energy of the ion-electron system (eV)
  ---------------------------------------------------
  alpha Z        PSCENC =       989.34351435
  Ewald energy   TEWEN  =    -11410.33925039
  -Hartree energ DENC   =      -513.42266140
  -exchange      EXHF   =         0.00000000
  -V(xc)+E(xc)   XCENC  =       930.37448523
  PAW double counting   =      2421.21235816    -2494.84305711
  entropy T*S    EENTRO =        -0.00000000
  eigenvalues    EBANDS =        57.56297958
  atomic energy  EATOM  =      9416.14232778
  Solvation  Ediel_sol  =         0.00000000
  ---------------------------------------------------
  free energy    TOTEN  =      -603.96930380 eV

  energy without entropy =     -603.96930380  energy(sigma->0) =     -603.96930380


--------------------------------------------------------------------------------------------------------




--------------------------------------- Iteration      1(   5)  ---------------------------------------


     EDDAV:  cpu time   15.8035: real time   15.8048
       DOS:  cpu time    0.0031: real time    0.0031
    CHARGE:  cpu time    0.5168: real time    0.5171
    MIXING:  cpu time    0.0039: real time    0.0039
    --------------------------------------------
      LOOP:  cpu time   16.3274: real time   16.3288

 eigenvalue-minimisations  :  9664
 total energy-change (2. order) :-0.7522427E-02  (-0.7519728E-02)
 number of electron     256.0000009 magnetization 
 augmentation part        6.7997561 magnetization 

 Broyden mixing:
  rms(total) = 0.29367E+01    rms(broyden)= 0.29362E+01
  rms(prec ) = 0.43491E+01
  weight for this iteration     100.00

 Free energy of the ion-electron system (eV)
  ---------------------------------------------------
  alpha Z        PSCENC =       989.34351435
  Ewald energy   TEWEN  =    -11410.33925039
  -Hartree energ DENC   =      -513.42266140
  -exchange      EXHF   =         0.00000000
  -V(xc)+E(xc)   XCENC  =       930.37448523
  PAW double counting   =      2421.21235816    -2494.84305711
  entropy T*S    EENTRO =        -0.00000000
  eigenvalues    EBANDS =        57.55545715
  atomic energy  EATOM  =      9416.14232778
  Solvation  Ediel_sol  =         0.00000000
  ---------------------------------------------------
  free energy    TOTEN  =      -603.97682623 eV

  energy without entropy =     -603.97682623  energy(sigma->0) =     -603.97682623


--------------------------------------------------------------------------------------------------------




--------------------------------------- Iteration      1(   6)  ---------------------------------------


    POTLOK:  cpu time    0.0724: real time    0.0727
    SETDIJ:  cpu time    0.0431: real time    0.0431
     EDDAV:  cpu time   15.4302: real time   15.4310
       DOS:  cpu time    0.0045: real time    0.0045
    CHARGE:  cpu time    0.5135: real time    0.5136
    MIXING:  cpu time    0.0043: real time    0.0043
    --------------------------------------------
      LOOP:  cpu time   16.0680: real time   16.0692

 eigenvalue-minimisations  :  8960
 total energy-change (2. order) : 0.1885512E+02  (-0.1225324E+01)
 number of electron     256.0000009 magnetization 
 augmentation part        6.6312530 magnetization 

 Broyden mixing:
  rms(total) = 0.15917E+01    rms(broyden)= 0.15917E+01
  rms(prec ) = 0.23403E+01
  weight for this iteration     100.00

 eigenvalues of (default mixing * dielectric matrix)
  average eigenvalue GAMMA=   2.1430
  2.1430

 Free energy of the ion-electron system (eV)
  ---------------------------------------------------
  alpha Z        PSCENC =       989.34351435
  Ewald energy   TEWEN  =    -11410.33925039
  -Hartree energ DENC   =      -642.49209909
  -exchange      EXHF   =         0.00000000
  -V(xc)+E(xc)   XCENC  =       942.55235409
  PAW double counting   =      3269.57447136    -3348.38040580
  entropy T*S    EENTRO =        -0.00000000
  eigenvalues    EBANDS =       198.47737759
  atomic energy  EATOM  =      9416.14232778
  Solvation  Ediel_sol  =         0.00000000
  ---------------------------------------------------
  free energy    TOTEN  =      -585.12171010 eV

  energy without entropy =     -585.12171010  energy(sigma->0) =     -585.12171010


--------------------------------------------------------------------------------------------------------




--------------------------------------- Iteration      1(   7)  ---------------------------------------


    POTLOK:  cpu time    0.0658: real time    0.0661
    SETDIJ:  cpu time    0.0424: real time    0.0424
     EDDAV:  cpu time   15.6073: real time   15.6080
       DOS:  cpu time    0.0029: real time    0.0029
    CHARGE:  cpu time    0.5146: real time    0.5146
    MIXING:  cpu time    0.0042: real time    0.0042
    --------------------------------------------
      LOOP:  cpu time   16.2372: real time   16.2383

 eigenvalue-minimisations  :  9344
 total energy-change (2. order) : 0.6349748E+01  (-0.1369143E+01)
 number of electron     256.0000009 magnetization 
 augmentation part        6.4541288 magnetization 

 Broyden mixing:
  rms(total) = 0.20178E+00    rms(broyden)= 0.20084E+00
  rms(prec ) = 0.24739E+00
  weight for this iteration     100.00

 eigenvalues of (default mixing * dielectric matrix)
  average eigenvalue GAMMA=   2.2755
  2.0135  2.5374

 Free energy of the ion-electron system (eV)
  ---------------------------------------------------
  alpha Z        PSCENC =       989.34351435
  Ewald energy   TEWEN  =    -11410.33925039
  -Hartree energ DENC   =      -807.61033223
  -exchange      EXHF   =         0.00000000
  -V(xc)+E(xc)   XCENC  =       958.25826834
  PAW double counting   =      4441.67275009    -4525.43003108
  entropy T*S    EENTRO =        -0.00000000
  eigenvalues    EBANDS =       359.19079132
  atomic energy  EATOM  =      9416.14232778
  Solvation  Ediel_sol  =         0.00000000
  ---------------------------------------------------
  free energy    TOTEN  =      -578.77196180 eV

  energy without entropy =     -578.77196180  energy(sigma->0) =     -578.77196180


--------------------------------------------------------------------------------------------------------




--------------------------------------- Iteration      1(   8)  ---------------------------------------


    POTLOK:  cpu time    0.0695: real time    0.0698
    SETDIJ:  cpu time    0.0429: real time    0.0429
     EDDAV:  cpu time   15.3734: real time   15.3742
       DOS:  cpu time    0.0031: real time    0.0031
    CHARGE:  cpu time    0.5139: real time    0.5139
    MIXING:  cpu time    0.0055: real time    0.0055
    --------------------------------------------
      LOOP:  cpu time   16.0082: real time   16.0093

 eigenvalue-minimisations  :  9504
 total energy-change (2. order) :-0.6874458E-01  (-0.2963707E-01)
 number of electron     256.0000009 magnetization 
 augmentation part        6.4597284 magnetization 

 Broyden mixing:
  rms(total) = 0.22950E-01    rms(broyden)= 0.22624E-01
  rms(prec ) = 0.27854E-01
  weight for this iteration     100.00

 eigenvalues of (default mixing * dielectric matrix)
  average eigenvalue GAMMA=   2.1039
  1.4591  2.7006  2.1521

 Free energy of the ion-electron system (eV)
  ---------------------------------------------------
  alpha Z        PSCENC =       989.34351435
  Ewald energy   TEWEN  =    -11410.33925039
  -Hartree energ DENC   =      -811.54854003
  -exchange      EXHF   =         0.00000000
  -V(xc)+E(xc)   XCENC  =       958.67239290
  PAW double counting   =      4546.62579441    -4629.29851527
  entropy T*S    EENTRO =        -0.00000000
  eigenvalues    EBANDS =       361.56156986
  atomic energy  EATOM  =      9416.14232778
  Solvation  Ediel_sol  =         0.00000000
  ---------------------------------------------------
  free energy    TOTEN  =      -578.84070638 eV

  energy without entropy =     -578.84070638  energy(sigma->0) =     -578.84070638


--------------------------------------------------------------------------------------------------------




--------------------------------------- Iteration      1(   9)  ---------------------------------------


    POTLOK:  cpu time    0.0612: real time    0.0617
    SETDIJ:  cpu time    0.0416: real time    0.0416
     EDDAV:  cpu time   16.1468: real time   16.1477
       DOS:  cpu time    0.0030: real time    0.0030
    CHARGE:  cpu time    0.5151: real time    0.5151
    MIXING:  cpu time    0.0045: real time    0.0045
    --------------------------------------------
      LOOP:  cpu time   16.7722: real time   16.7735

 eigenvalue-minimisations  :  9952
 total energy-change (2. order) :-0.2040068E-02  (-0.3540425E-03)
 number of electron     256.0000009 magnetization 
 augmentation part        6.4589554 magnetization 

 Broyden mixing:
  rms(total) = 0.83387E-02    rms(broyden)= 0.83131E-02
  rms(prec ) = 0.10515E-01
  weight for this iteration     100.00

 eigenvalues of (default mixing * dielectric matrix)
  average eigenvalue GAMMA=   2.0322
  0.9657  2.7390  2.4319  1.9920

 Free energy of the ion-electron system (eV)
  ---------------------------------------------------
  alpha Z        PSCENC =       989.34351435
  Ewald energy   TEWEN  =    -11410.33925039
  -Hartree energ DENC   =      -811.00948197
  -exchange      EXHF   =         0.00000000
  -V(xc)+E(xc)   XCENC  =       958.62085171
  PAW double counting   =      4543.41917072    -4625.97319043
  entropy T*S    EENTRO =        -0.00000000
  eigenvalues    EBANDS =       360.95331178
  atomic energy  EATOM  =      9416.14232778
  Solvation  Ediel_sol  =         0.00000000
  ---------------------------------------------------
  free energy    TOTEN  =      -578.84274645 eV

  energy without entropy =     -578.84274645  energy(sigma->0) =     -578.84274645


--------------------------------------------------------------------------------------------------------




--------------------------------------- Iteration      1(  10)  ---------------------------------------


    POTLOK:  cpu time    0.0652: real time    0.0655
    SETDIJ:  cpu time    0.0420: real time    0.0420
     EDDAV:  cpu time   15.2725: real time   15.2733
       DOS:  cpu time    0.0029: real time    0.0029
    CHARGE:  cpu time    0.5274: real time    0.5274
    MIXING:  cpu time    0.0051: real time    0.0051
    --------------------------------------------
      LOOP:  cpu time   15.9149: real time   15.9161

 eigenvalue-minimisations  :  9216
 total energy-change (2. order) :-0.4181809E-03  (-0.3432124E-04)
 number of electron     256.0000009 magnetization 
 augmentation part        6.4586687 magnetization 

 Broyden mixing:
  rms(total) = 0.82258E-03    rms(broyden)= 0.80602E-03
  rms(prec ) = 0.12238E-02
  weight for this iteration     100.00

 eigenvalues of (default mixing * dielectric matrix)
  average eigenvalue GAMMA=   1.9482
  2.9174  2.5499  2.0597  0.9914  1.2227

 Free energy of the ion-electron system (eV)
  ---------------------------------------------------
  alpha Z        PSCENC =       989.34351435
  Ewald energy   TEWEN  =    -11410.33925039
  -Hartree energ DENC   =      -811.37842865
  -exchange      EXHF   =         0.00000000
  -V(xc)+E(xc)   XCENC  =       958.65244897
  PAW double counting   =      4538.77733287    -4621.34491979
  entropy T*S    EENTRO =        -0.00000000
  eigenvalues    EBANDS =       361.30381023
  atomic energy  EATOM  =      9416.14232778
  Solvation  Ediel_sol  =         0.00000000
  ---------------------------------------------------
  free energy    TOTEN  =      -578.84316463 eV

  energy without entropy =     -578.84316463  energy(sigma->0) =     -578.84316463


--------------------------------------------------------------------------------------------------------




--------------------------------------- Iteration      1(  11)  ---------------------------------------


    POTLOK:  cpu time    0.0580: real time    0.0584
    SETDIJ:  cpu time    0.0423: real time    0.0423
     EDDAV:  cpu time   16.2291: real time   16.2299
       DOS:  cpu time    0.0038: real time    0.0038
    CHARGE:  cpu time    0.5149: real time    0.5149
    MIXING:  cpu time    0.0055: real time    0.0055
    --------------------------------------------
      LOOP:  cpu time   16.8536: real time   16.8548

 eigenvalue-minimisations  :  9984
 total energy-change (2. order) :-0.6549442E-05  (-0.1001381E-05)
 number of electron     256.0000009 magnetization 
 augmentation part        6.4585037 magnetization 

 Broyden mixing:
  rms(total) = 0.19522E-03    rms(broyden)= 0.18967E-03
  rms(prec ) = 0.25255E-03
  weight for this iteration     100.00

 eigenvalues of (default mixing * dielectric matrix)
  average eigenvalue GAMMA=   1.9973
  2.9483  2.5722  2.4399  2.0324  0.9954  0.9954

 Free energy of the ion-electron system (eV)
  ---------------------------------------------------
  alpha Z        PSCENC =       989.34351435
  Ewald energy   TEWEN  =    -11410.33925039
  -Hartree energ DENC   =      -811.49282491
  -exchange      EXHF   =         0.00000000
  -V(xc)+E(xc)   XCENC  =       958.66300899
  PAW double counting   =      4538.95955945    -4621.53151575
  entropy T*S    EENTRO =        -0.00000000
  eigenvalues    EBANDS =       361.41200929
  atomic energy  EATOM  =      9416.14232778
  Solvation  Ediel_sol  =         0.00000000
  ---------------------------------------------------
  free energy    TOTEN  =      -578.84317118 eV

  energy without entropy =     -578.84317118  energy(sigma->0) =     -578.84317118


--------------------------------------------------------------------------------------------------------




--------------------------------------- Iteration      1(  12)  ---------------------------------------


    POTLOK:  cpu time    0.0671: real time    0.0674
    SETDIJ:  cpu time    0.0424: real time    0.0424
     EDDAV:  cpu time   15.9154: real time   15.9162
       DOS:  cpu time    0.0028: real time    0.0028
    CHARGE:  cpu time    0.5151: real time    0.5152
    MIXING:  cpu time    0.0052: real time    0.0051
    --------------------------------------------
      LOOP:  cpu time   16.5479: real time   16.5492

 eigenvalue-minimisations  :  9760
 total energy-change (2. order) : 0.3188579E-06  (-0.2411092E-07)
 number of electron     256.0000009 magnetization 
 augmentation part        6.4585145 magnetization 

 Broyden mixing:
  rms(total) = 0.25642E-04    rms(broyden)= 0.24446E-04
  rms(prec ) = 0.37363E-04
  weight for this iteration     100.00

 eigenvalues of (default mixing * dielectric matrix)
  average eigenvalue GAMMA=   1.9061
  2.8985  2.6722  2.5143  2.0450  1.0179  0.9927  1.2021

 Free energy of the ion-electron system (eV)
  ---------------------------------------------------
  alpha Z        PSCENC =       989.34351435
  Ewald energy   TEWEN  =    -11410.33925039
  -Hartree energ DENC   =      -811.48002027
  -exchange      EXHF   =         0.00000000
  -V(xc)+E(xc)   XCENC  =       958.66183925
  PAW double counting   =      4539.06591114    -4621.63662575
  entropy T*S    EENTRO =        -0.00000000
  eigenvalues    EBANDS =       361.39913301
  atomic energy  EATOM  =      9416.14232778
  Solvation  Ediel_sol  =         0.00000000
  ---------------------------------------------------
  free energy    TOTEN  =      -578.84317086 eV

  energy without entropy =     -578.84317086  energy(sigma->0) =     -578.84317086


--------------------------------------------------------------------------------------------------------




--------------------------------------- Iteration      1(  13)  ---------------------------------------


    POTLOK:  cpu time    0.0613: real time    0.0618
    SETDIJ:  cpu time    0.0427: real time    0.0427
     EDDAV:  cpu time   13.1331: real time   13.1338
       DOS:  cpu time    0.0032: real time    0.0032
    CHARGE:  cpu time    0.5227: real time    0.5227
    MIXING:  cpu time    0.0053: real time    0.0053
    --------------------------------------------
      LOOP:  cpu time   13.7683: real time   13.7695

 eigenvalue-minimisations  :  7168
 total energy-change (2. order) :-0.2009619E-07  (-0.4818326E-09)
 number of electron     256.0000009 magnetization 
 augmentation part        6.4585145 magnetization 

 Broyden mixing:
  rms(total) = 0.36006E-05    rms(broyden)= 0.33306E-05
  rms(prec ) = 0.39377E-05
  weight for this iteration     100.00

 eigenvalues of (default mixing * dielectric matrix)
  average eigenvalue GAMMA=   1.9674
  2.0405  2.8904  2.7647  2.5548  2.5135  1.0038  1.0038  0.9679

 Free energy of the ion-electron system (eV)
  ---------------------------------------------------
  alpha Z        PSCENC =       989.34351435
  Ewald energy   TEWEN  =    -11410.33925039
  -Hartree energ DENC   =      -811.47697139
  -exchange      EXHF   =         0.00000000
  -V(xc)+E(xc)   XCENC  =       958.66155179
  PAW double counting   =      4539.05760472    -4621.62818290
  entropy T*S    EENTRO =        -0.00000000
  eigenvalues    EBANDS =       361.39623514
  atomic energy  EATOM  =      9416.14232778
  Solvation  Ediel_sol  =         0.00000000
  ---------------------------------------------------
  free energy    TOTEN  =      -578.84317088 eV

  energy without entropy =     -578.84317088  energy(sigma->0) =     -578.84317088


--------------------------------------------------------------------------------------------------------




--------------------------------------- Iteration      1(  14)  ---------------------------------------


    POTLOK:  cpu time    0.0578: real time    0.0582
    SETDIJ:  cpu time    0.0426: real time    0.0426
     EDDAV:  cpu time   11.9662: real time   11.9668
       DOS:  cpu time    0.0028: real time    0.0028
    CHARGE:  cpu time    0.5159: real time    0.5159
    MIXING:  cpu time    0.0056: real time    0.0056
    --------------------------------------------
      LOOP:  cpu time   12.5911: real time   12.5922

 eigenvalue-minimisations  :  6304
 total energy-change (2. order) :-0.2993147E-07  (-0.5477021E-10)
 number of electron     256.0000009 magnetization 
 augmentation part        6.4585150 magnetization 

 Broyden mixing:
  rms(total) = 0.22821E-05    rms(broyden)= 0.22736E-05
  rms(prec ) = 0.30360E-05
  weight for this iteration     100.00

 eigenvalues of (default mixing * dielectric matrix)
  average eigenvalue GAMMA=   1.8709
  2.8490  2.8490  2.0445  2.5271  2.5271  0.9693  0.9693  1.0605  1.0425

 Free energy of the ion-electron system (eV)
  ---------------------------------------------------
  alpha Z        PSCENC =       989.34351435
  Ewald energy   TEWEN  =    -11410.33925039
  -Hartree energ DENC   =      -811.47665456
  -exchange      EXHF   =         0.00000000
  -V(xc)+E(xc)   XCENC  =       958.66152268
  PAW double counting   =      4539.05157925    -4621.62214220
  entropy T*S    EENTRO =        -0.00000000
  eigenvalues    EBANDS =       361.39593217
  atomic energy  EATOM  =      9416.14232778
  Solvation  Ediel_sol  =         0.00000000
  ---------------------------------------------------
  free energy    TOTEN  =      -578.84317091 eV

  energy without entropy =     -578.84317091  energy(sigma->0) =     -578.84317091


--------------------------------------------------------------------------------------------------------




--------------------------------------- Iteration      1(  15)  ---------------------------------------


    POTLOK:  cpu time    0.0660: real time    0.0665
    SETDIJ:  cpu time    0.0423: real time    0.0423
     EDDAV:  cpu time   11.8932: real time   11.8938
       DOS:  cpu time    0.0029: real time    0.0029
    --------------------------------------------
      LOOP:  cpu time   12.0041: real time   12.0053

 eigenvalue-minimisations  :  5728
 total energy-change (2. order) :-0.4692993E-09  (-0.7659108E-11)
 number of electron     256.0000009 magnetization 
 augmentation part        6.4585150 magnetization 

 Free energy of the ion-electron system (eV)
  ---------------------------------------------------
  alpha Z        PSCENC =       989.34351435
  Ewald energy   TEWEN  =    -11410.33925039
  -Hartree energ DENC   =      -811.47681713
  -exchange      EXHF   =         0.00000000
  -V(xc)+E(xc)   XCENC  =       958.66153780
  PAW double counting   =      4539.05256612    -4621.62314477
  entropy T*S    EENTRO =        -0.00000000
  eigenvalues    EBANDS =       361.39609533
  atomic energy  EATOM  =      9416.14232778
  Solvation  Ediel_sol  =         0.00000000
  ---------------------------------------------------
  free energy    TOTEN  =      -578.84317091 eV

  energy without entropy =     -578.84317091  energy(sigma->0) =     -578.84317091


--------------------------------------------------------------------------------------------------------




 average (electrostatic) potential at core
  the test charge radii are     0.6991
  (the norm of the test charge is              1.0000)
       1 -44.2958       2 -44.2958       3 -44.2958       4 -44.2958       5 -44.2958
       6 -44.2958       7 -44.2958       8 -44.2958       9 -44.2958      10 -44.2958
      11 -44.2958      12 -44.2958      13 -44.2958      14 -44.2958      15 -44.2958
      16 -44.2958      17 -44.2958      18 -44.2958      19 -44.2958      20 -44.2958
      21 -44.2958      22 -44.2958      23 -44.2958      24 -44.2958      25 -44.2958
      26 -44.2958      27 -44.2958      28 -44.2958      29 -44.2958      30 -44.2958
      31 -44.2958      32 -44.2958      33 -44.2958      34 -44.2958      35 -44.2958
      36 -44.2958      37 -44.2958      38 -44.2958      39 -44.2958      40 -44.2958
      41 -44.2958      42 -44.2958      43 -44.2958      44 -44.2958      45 -44.2958
      46 -44.2958      47 -44.2958      48 -44.2958      49 -44.2958      50 -44.2958
      51 -44.2958      52 -44.2958      53 -44.2958      54 -44.2958      55 -44.2958
      56 -44.2958      57 -44.2958      58 -44.2958      59 -44.2958      60 -44.2958
      61 -44.2958      62 -44.2958      63 -44.2958      64 -44.2958
 
 
 
 E-fermi :  11.1514     XC(G=0): -13.5933     alpha+bet :-19.0461


 k-point     1 :       0.0000    0.0000    0.0000
  band No.  band energies     occupation 
      1     -11.6401      2.00000
      2      -9.2374      2.00000
      3      -9.2374      2.00000
      4      -9.2374      2.00000
      5      -9.2374      2.00000
      6      -9.2374      2.00000
      7      -9.2374      2.00000
      8      -6.9264      2.00000
      9      -6.9264      2.00000
     10      -6.9264      2.00000
     11      -6.9264      2.00000
     12      -6.9264      2.00000
     13      -6.9264      2.00000
     14      -6.9264      2.00000
     15      -6.9264      2.00000
     16      -6.9264      2.00000
     17      -6.9264      2.00000
     18      -6.9264      2.00000
     19      -6.9264      2.00000
     20      -5.4314      2.00000
     21      -5.4314      2.00000
     22      -5.4314      2.00000
     23      -5.4314      2.00000
     24      -3.3623      2.00000
     25      -3.3623      2.00000
     26      -3.3623      2.00000
     27      -3.3623      2.00000
     28      -2.4525      2.00000
     29      -2.4525      2.00000
     30      -2.4525      2.00000
     31      -2.4525      2.00000
     32      -2.4525      2.00000
     33      -2.4525      2.00000
     34      -1.5361      2.00000
     35      -1.5361      2.00000
     36      -1.5361      2.00000
     37      -1.5361      2.00000
     38      -1.5361      2.00000
     39      -1.5361      2.00000
     40      -1.5361      2.00000
     41      -1.5361      2.00000
     42      -1.5361      2.00000
     43      -1.5361      2.00000
     44      -1.5361      2.00000
     45      -1.5361      2.00000
     46       1.7686      2.00000
     47       1.7686      2.00000
     48       1.7686      2.00000
     49       1.7686      2.00000
     50       1.7686      2.00000
     51       1.7686      2.00000
     52       1.7686      2.00000
     53       1.7686      2.00000
     54       1.7686      2.00000
[...]
      4.350791  0.870158  6.091108    -0.073760    0.057720    0.057503  
      0.870158  4.350791  6.091108    -0.073760    0.057720    0.057503  
      4.350791  4.350791  6.091108     0.073760   -0.057720   -0.057503  
      0.000000  1.740317  0.000000     0.085124   -0.052441   -0.051418  
      3.480633  1.740317  0.000000    -0.085124    0.052441    0.051418  
      0.000000  5.220950  0.000000    -0.085124    0.052441    0.051418  
      3.480633  5.220950  0.000000     0.085124   -0.052441   -0.051418  
      0.000000  1.740317  3.480633    -0.085124    0.052441    0.051418  
      3.480633  1.740317  3.480633     0.085124   -0.052441   -0.051418  
      0.000000  5.220950  3.480633     0.085124   -0.052441   -0.051418  
      3.480633  5.220950  3.480633    -0.085124    0.052441    0.051418  
      2.610475  2.610475  2.610475    -0.042405    0.008741    0.137293  
      6.091108  2.610475  2.610475     0.042405   -0.008741   -0.137293  
      2.610475  6.091108  2.610475     0.042405   -0.008741   -0.137293  
      6.091108  6.091108  2.610475    -0.042405    0.008741    0.137293  
      2.610475  2.610475  6.091108     0.042405   -0.008741   -0.137293  
      6.091108  2.610475  6.091108    -0.042405    0.008741    0.137293  
      2.610475  6.091108  6.091108    -0.042405    0.008741    0.137293  
      6.091108  6.091108  6.091108     0.042405   -0.008741   -0.137293  
      1.740317  0.000000  0.000000    -0.053768    0.003462    0.131208  
      5.220950  0.000000  0.000000     0.053768   -0.003462   -0.131208  
      1.740317  3.480633  0.000000     0.053768   -0.003462   -0.131208  
      5.220950  3.480633  0.000000    -0.053768    0.003462    0.131208  
      1.740317  0.000000  3.480633     0.053768   -0.003462   -0.131208  
      5.220950  0.000000  3.480633    -0.053768    0.003462    0.131208  
      1.740317  3.480633  3.480633    -0.053768    0.003462    0.131208  
      5.220950  3.480633  3.480633     0.053768   -0.003462   -0.131208  
      2.610475  0.870158  0.870158    -0.053561    0.051962    0.082501  
      6.091108  0.870158  0.870158     0.053561   -0.051962   -0.082501  
      2.610475  4.350791  0.870158     0.053561   -0.051962   -0.082501  
      6.091108  4.350791  0.870158    -0.053561    0.051962    0.082501  
      2.610475  0.870158  4.350791     0.053561   -0.051962   -0.082501  
      6.091108  0.870158  4.350791    -0.053561    0.051962    0.082501  
      2.610475  4.350791  4.350791    -0.053561    0.051962    0.082501  
      6.091108  4.350791  4.350791     0.053561   -0.051962   -0.082501  
      1.740317  1.740317  1.740317    -0.042197    0.057241    0.088586  
      5.220950  1.740317  1.740317     0.042197   -0.057241   -0.088586  
      1.740317  5.220950  1.740317     0.042197   -0.057241   -0.088586  
      5.220950  5.220950  1.740317    -0.042197    0.057241    0.088586  
      1.740317  1.740317  5.220950     0.042197   -0.057241   -0.088586  
      5.220950  1.740317  5.220950    -0.042197    0.057241    0.088586  
      1.740317  5.220950  5.220950    -0.042197    0.057241    0.088586  
      5.220950  5.220950  5.220950     0.042197   -0.057241   -0.088586  
 
 190 f  =    0.000006 THz     0.000038 2PiTHz    0.000201 cm-1     0.000025 meV
             X         Y         Z           dx          dy          dz
      0.870158  2.610475  0.870158    -0.001740   -0.001163   -0.124982  
      4.350791  2.610475  0.870158    -0.001740   -0.001163   -0.124982  
      0.870158  6.091108  0.870158    -0.001740   -0.001163   -0.124982  
      4.350791  6.091108  0.870158    -0.001740   -0.001163   -0.124982  
      0.870158  2.610475  4.350791    -0.001740   -0.001163   -0.124982  
      4.350791  2.610475  4.350791    -0.001740   -0.001163   -0.124982  
      0.870158  6.091108  4.350791    -0.001740   -0.001163   -0.124982  
      4.350791  6.091108  4.350791    -0.001740   -0.001163   -0.124982  
      0.000000  0.000000  1.740317    -0.001740   -0.001163   -0.124982  
      3.480633  0.000000  1.740317    -0.001740   -0.001163   -0.124982  
      0.000000  3.480633  1.740317    -0.001740   -0.001163   -0.124982  
      3.480633  3.480633  1.740317    -0.001740   -0.001163   -0.124982  
      0.000000  0.000000  5.220950    -0.001740   -0.001163   -0.124982  
      3.480633  0.000000  5.220950    -0.001740   -0.001163   -0.124982  
      0.000000  3.480633  5.220950    -0.001740   -0.001163   -0.124982  
      3.480633  3.480633  5.220950    -0.001740   -0.001163   -0.124982  
      0.870158  0.870158  2.610475    -0.001740   -0.001163   -0.124982  
      4.350791  0.870158  2.610475    -0.001740   -0.001163   -0.124982  
      0.870158  4.350791  2.610475    -0.001740   -0.001163   -0.124982  
      4.350791  4.350791  2.610475    -0.001740   -0.001163   -0.124982  
      0.870158  0.870158  6.091108    -0.001740   -0.001163   -0.124982  
      4.350791  0.870158  6.091108    -0.001740   -0.001163   -0.124982  
      0.870158  4.350791  6.091108    -0.001740   -0.001163   -0.124982  
      4.350791  4.350791  6.091108    -0.001740   -0.001163   -0.124982  
      0.000000  1.740317  0.000000    -0.001740   -0.001163   -0.124982  
      3.480633  1.740317  0.000000    -0.001740   -0.001163   -0.124982  
      0.000000  5.220950  0.000000    -0.001740   -0.001163   -0.124982  
      3.480633  5.220950  0.000000    -0.001740   -0.001163   -0.124982  
      0.000000  1.740317  3.480633    -0.001740   -0.001163   -0.124982  
      3.480633  1.740317  3.480633    -0.001740   -0.001163   -0.124982  
      0.000000  5.220950  3.480633    -0.001740   -0.001163   -0.124982  
      3.480633  5.220950  3.480633    -0.001740   -0.001163   -0.124982  
      2.610475  2.610475  2.610475    -0.001740   -0.001163   -0.124982  
      6.091108  2.610475  2.610475    -0.001740   -0.001163   -0.124982  
      2.610475  6.091108  2.610475    -0.001740   -0.001163   -0.124982  
      6.091108  6.091108  2.610475    -0.001740   -0.001163   -0.124982  
      2.610475  2.610475  6.091108    -0.001740   -0.001163   -0.124982  
      6.091108  2.610475  6.091108    -0.001740   -0.001163   -0.124982  
      2.610475  6.091108  6.091108    -0.001740   -0.001163   -0.124982  
      6.091108  6.091108  6.091108    -0.001740   -0.001163   -0.124982  
      1.740317  0.000000  0.000000    -0.001740   -0.001163   -0.124982  
      5.220950  0.000000  0.000000    -0.001740   -0.001163   -0.124982  
      1.740317  3.480633  0.000000    -0.001740   -0.001163   -0.124982  
      5.220950  3.480633  0.000000    -0.001740   -0.001163   -0.124982  
      1.740317  0.000000  3.480633    -0.001740   -0.001163   -0.124982  
      5.220950  0.000000  3.480633    -0.001740   -0.001163   -0.124982  
      1.740317  3.480633  3.480633    -0.001740   -0.001163   -0.124982  
      5.220950  3.480633  3.480633    -0.001740   -0.001163   -0.124982  
      2.610475  0.870158  0.870158    -0.001740   -0.001163   -0.124982  
      6.091108  0.870158  0.870158    -0.001740   -0.001163   -0.124982  
      2.610475  4.350791  0.870158    -0.001740   -0.001163   -0.124982  
      6.091108  4.350791  0.870158    -0.001740   -0.001163   -0.124982  
      2.610475  0.870158  4.350791    -0.001740   -0.001163   -0.124982  
      6.091108  0.870158  4.350791    -0.001740   -0.001163   -0.124982  
      2.610475  4.350791  4.350791    -0.001740   -0.001163   -0.124982  
      6.091108  4.350791  4.350791    -0.001740   -0.001163   -0.124982  
      1.740317  1.740317  1.740317    -0.001740   -0.001163   -0.124982  
      5.220950  1.740317  1.740317    -0.001740   -0.001163   -0.124982  
      1.740317  5.220950  1.740317    -0.001740   -0.001163   -0.124982  
      5.220950  5.220950  1.740317    -0.001740   -0.001163   -0.124982  
      1.740317  1.740317  5.220950    -0.001740   -0.001163   -0.124982  
      5.220950  1.740317  5.220950    -0.001740   -0.001163   -0.124982  
      1.740317  5.220950  5.220950    -0.001740   -0.001163   -0.124982  
      5.220950  5.220950  5.220950    -0.001740   -0.001163   -0.124982  
 
 191 f  =    0.000006 THz     0.000037 2PiTHz    0.000197 cm-1     0.000024 meV
             X         Y         Z           dx          dy          dz
      0.870158  2.610475  0.870158    -0.057162    0.111164   -0.000239  
      4.350791  2.610475  0.870158    -0.057162    0.111164   -0.000239  
      0.870158  6.091108  0.870158    -0.057162    0.111164   -0.000239  
      4.350791  6.091108  0.870158    -0.057162    0.111164   -0.000239  
      0.870158  2.610475  4.350791    -0.057162    0.111164   -0.000239  
      4.350791  2.610475  4.350791    -0.057162    0.111164   -0.000239  
      0.870158  6.091108  4.350791    -0.057162    0.111164   -0.000239  
      4.350791  6.091108  4.350791    -0.057162    0.111164   -0.000239  
      0.000000  0.000000  1.740317    -0.057162    0.111164   -0.000239  
      3.480633  0.000000  1.740317    -0.057162    0.111164   -0.000239  
      0.000000  3.480633  1.740317    -0.057162    0.111164   -0.000239  
      3.480633  3.480633  1.740317    -0.057162    0.111164   -0.000239  
      0.000000  0.000000  5.220950    -0.057162    0.111164   -0.000239  
      3.480633  0.000000  5.220950    -0.057162    0.111164   -0.000239  
      0.000000  3.480633  5.220950    -0.057162    0.111164   -0.000239  
      3.480633  3.480633  5.220950    -0.057162    0.111164   -0.000239  
      0.870158  0.870158  2.610475    -0.057162    0.111164   -0.000239  
      4.350791  0.870158  2.610475    -0.057162    0.111164   -0.000239  
      0.870158  4.350791  2.610475    -0.057162    0.111164   -0.000239  
      4.350791  4.350791  2.610475    -0.057162    0.111164   -0.000239  
      0.870158  0.870158  6.091108    -0.057162    0.111164   -0.000239  
      4.350791  0.870158  6.091108    -0.057162    0.111164   -0.000239  
      0.870158  4.350791  6.091108    -0.057162    0.111164   -0.000239  
      4.350791  4.350791  6.091108    -0.057162    0.111164   -0.000239  
      0.000000  1.740317  0.000000    -0.057162    0.111164   -0.000239  
      3.480633  1.740317  0.000000    -0.057162    0.111164   -0.000239  
      0.000000  5.220950  0.000000    -0.057162    0.111164   -0.000239  
      3.480633  5.220950  0.000000    -0.057162    0.111164   -0.000239  
      0.000000  1.740317  3.480633    -0.057162    0.111164   -0.000239  
      3.480633  1.740317  3.480633    -0.057162    0.111164   -0.000239  
      0.000000  5.220950  3.480633    -0.057162    0.111164   -0.000239  
      3.480633  5.220950  3.480633    -0.057162    0.111164   -0.000239  
      2.610475  2.610475  2.610475    -0.057162    0.111164   -0.000239  
      6.091108  2.610475  2.610475    -0.057162    0.111164   -0.000239  
      2.610475  6.091108  2.610475    -0.057162    0.111164   -0.000239  
      6.091108  6.091108  2.610475    -0.057162    0.111164   -0.000239  
      2.610475  2.610475  6.091108    -0.057162    0.111164   -0.000239  
      6.091108  2.610475  6.091108    -0.057162    0.111164   -0.000239  
      2.610475  6.091108  6.091108    -0.057162    0.111164   -0.000239  
      6.091108  6.091108  6.091108    -0.057162    0.111164   -0.000239  
      1.740317  0.000000  0.000000    -0.057162    0.111164   -0.000239  
      5.220950  0.000000  0.000000    -0.057162    0.111164   -0.000239  
      1.740317  3.480633  0.000000    -0.057162    0.111164   -0.000239  
      5.220950  3.480633  0.000000    -0.057162    0.111164   -0.000239  
      1.740317  0.000000  3.480633    -0.057162    0.111164   -0.000239  
      5.220950  0.000000  3.480633    -0.057162    0.111164   -0.000239  
      1.740317  3.480633  3.480633    -0.057162    0.111164   -0.000239  
      5.220950  3.480633  3.480633    -0.057162    0.111164   -0.000239  
      2.610475  0.870158  0.870158    -0.057162    0.111164   -0.000239  
      6.091108  0.870158  0.870158    -0.057162    0.111164   -0.000239  
      2.610475  4.350791  0.870158    -0.057162    0.111164   -0.000239  
      6.091108  4.350791  0.870158    -0.057162    0.111164   -0.000239  
      2.610475  0.870158  4.350791    -0.057162    0.111164   -0.000239  
      6.091108  0.870158  4.350791    -0.057162    0.111164   -0.000239  
      2.610475  4.350791  4.350791    -0.057162    0.111164   -0.000239  
      6.091108  4.350791  4.350791    -0.057162    0.111164   -0.000239  
      1.740317  1.740317  1.740317    -0.057162    0.111164   -0.000239  
      5.220950  1.740317  1.740317    -0.057162    0.111164   -0.000239  
      1.740317  5.220950  1.740317    -0.057162    0.111164   -0.000239  
      5.220950  5.220950  1.740317    -0.057162    0.111164   -0.000239  
      1.740317  1.740317  5.220950    -0.057162    0.111164   -0.000239  
      5.220950  1.740317  5.220950    -0.057162    0.111164   -0.000239  
      1.740317  5.220950  5.220950    -0.057162    0.111164   -0.000239  
      5.220950  5.220950  5.220950    -0.057162    0.111164   -0.000239  
 
 192 f  =    0.000006 THz     0.000037 2PiTHz    0.000195 cm-1     0.000024 meV
             X         Y         Z           dx          dy          dz
      0.870158  2.610475  0.870158    -0.111151   -0.057151    0.002080  
      4.350791  2.610475  0.870158    -0.111151   -0.057151    0.002080  
      0.870158  6.091108  0.870158    -0.111151   -0.057151    0.002080  
      4.350791  6.091108  0.870158    -0.111151   -0.057151    0.002080  
      0.870158  2.610475  4.350791    -0.111151   -0.057151    0.002080  
      4.350791  2.610475  4.350791    -0.111151   -0.057151    0.002080  
      0.870158  6.091108  4.350791    -0.111151   -0.057151    0.002080  
      4.350791  6.091108  4.350791    -0.111151   -0.057151    0.002080  
      0.000000  0.000000  1.740317    -0.111151   -0.057151    0.002080  
      3.480633  0.000000  1.740317    -0.111151   -0.057151    0.002080  
      0.000000  3.480633  1.740317    -0.111151   -0.057151    0.002080  
      3.480633  3.480633  1.740317    -0.111151   -0.057151    0.002080  
      0.000000  0.000000  5.220950    -0.111151   -0.057151    0.002080  
      3.480633  0.000000  5.220950    -0.111151   -0.057151    0.002080  
      0.000000  3.480633  5.220950    -0.111151   -0.057151    0.002080  
      3.480633  3.480633  5.220950    -0.111151   -0.057151    0.002080  
      0.870158  0.870158  2.610475    -0.111151   -0.057151    0.002080  
      4.350791  0.870158  2.610475    -0.111151   -0.057151    0.002080  
      0.870158  4.350791  2.610475    -0.111151   -0.057151    0.002080  
      4.350791  4.350791  2.610475    -0.111151   -0.057151    0.002080  
      0.870158  0.870158  6.091108    -0.111151   -0.057151    0.002080  
      4.350791  0.870158  6.091108    -0.111151   -0.057151    0.002080  
      0.870158  4.350791  6.091108    -0.111151   -0.057151    0.002080  
      4.350791  4.350791  6.091108    -0.111151   -0.057151    0.002080  
      0.000000  1.740317  0.000000    -0.111151   -0.057151    0.002080  
      3.480633  1.740317  0.000000    -0.111151   -0.057151    0.002080  
      0.000000  5.220950  0.000000    -0.111151   -0.057151    0.002080  
      3.480633  5.220950  0.000000    -0.111151   -0.057151    0.002080  
      0.000000  1.740317  3.480633    -0.111151   -0.057151    0.002080  
      3.480633  1.740317  3.480633    -0.111151   -0.057151    0.002080  
      0.000000  5.220950  3.480633    -0.111151   -0.057151    0.002080  
      3.480633  5.220950  3.480633    -0.111151   -0.057151    0.002080  
      2.610475  2.610475  2.610475    -0.111151   -0.057151    0.002080  
      6.091108  2.610475  2.610475    -0.111151   -0.057151    0.002080  
      2.610475  6.091108  2.610475    -0.111151   -0.057151    0.002080  
      6.091108  6.091108  2.610475    -0.111151   -0.057151    0.002080  
      2.610475  2.610475  6.091108    -0.111151   -0.057151    0.002080  
      6.091108  2.610475  6.091108    -0.111151   -0.057151    0.002080  
      2.610475  6.091108  6.091108    -0.111151   -0.057151    0.002080  
      6.091108  6.091108  6.091108    -0.111151   -0.057151    0.002080  
      1.740317  0.000000  0.000000    -0.111151   -0.057151    0.002080  
      5.220950  0.000000  0.000000    -0.111151   -0.057151    0.002080  
      1.740317  3.480633  0.000000    -0.111151   -0.057151    0.002080  
      5.220950  3.480633  0.000000    -0.111151   -0.057151    0.002080  
      1.740317  0.000000  3.480633    -0.111151   -0.057151    0.002080  
      5.220950  0.000000  3.480633    -0.111151   -0.057151    0.002080  
      1.740317  3.480633  3.480633    -0.111151   -0.057151    0.002080  
      5.220950  3.480633  3.480633    -0.111151   -0.057151    0.002080  
      2.610475  0.870158  0.870158    -0.111151   -0.057151    0.002080  
      6.091108  0.870158  0.870158    -0.111151   -0.057151    0.002080  
      2.610475  4.350791  0.870158    -0.111151   -0.057151    0.002080  
      6.091108  4.350791  0.870158    -0.111151   -0.057151    0.002080  
      2.610475  0.870158  4.350791    -0.111151   -0.057151    0.002080  
      6.091108  0.870158  4.350791    -0.111151   -0.057151    0.002080  
      2.610475  4.350791  4.350791    -0.111151   -0.057151    0.002080  
      6.091108  4.350791  4.350791    -0.111151   -0.057151    0.002080  
      1.740317  1.740317  1.740317    -0.111151   -0.057151    0.002080  
      5.220950  1.740317  1.740317    -0.111151   -0.057151    0.002080  
      1.740317  5.220950  1.740317    -0.111151   -0.057151    0.002080  
      5.220950  5.220950  1.740317    -0.111151   -0.057151    0.002080  
      1.740317  1.740317  5.220950    -0.111151   -0.057151    0.002080  
      5.220950  1.740317  5.220950    -0.111151   -0.057151    0.002080  
      1.740317  5.220950  5.220950    -0.111151   -0.057151    0.002080  
      5.220950  5.220950  5.220950    -0.111151   -0.057151    0.002080  
 


--------------------------------------------------------------------------------------------------------



 ELASTIC MODULI CONTR FROM IONIC RELAXATION (kBar)
 Direction    XX          YY          ZZ          XY          YZ          ZX
 --------------------------------------------------------------------------------
 XX          -0.0000      0.0000      0.0000      0.0000      0.0000      0.0000
 YY           0.0000     -0.0000     -0.0000      0.0000     -0.0000      0.0000
 ZZ           0.0000     -0.0000     -0.0000      0.0000     -0.0000      0.0000
 XY           0.0000      0.0000      0.0000   -221.8613      0.0000     -0.0000
 YZ           0.0000     -0.0000     -0.0000      0.0000   -221.8613      0.0000
 ZX           0.0000      0.0000      0.0000      0.0000      0.0000   -221.8613
 --------------------------------------------------------------------------------



--------------------------------------------------------------------------------------------------------


     LOOP+:  cpu time  844.8062: real time  844.9787
    4ORBIT:  cpu time    0.0000: real time    0.0000

 total amount of memory used by VASP MPI-rank0    67608. kBytes
=======================================================================

   base      :      30000. kBytes
   nonl-proj :      14229. kBytes
   fftplans  :       4537. kBytes
   grid      :       5806. kBytes
   one-center:        196. kBytes
   wavefun   :      12840. kBytes
 
  
  
 General timing and accounting informations for this job:
 ========================================================
  
                  Total CPU time used (sec):      853.061
                            User time (sec):      848.289
                          System time (sec):        4.772
                         Elapsed time (sec):      853.317
  
                   Maximum memory used (kb):      375016.
                   Average memory used (kb):           0.
  
                          Minor page faults:        39307
                          Major page faults:           35
                 Voluntary context switches:          848
