# Thermal properties / unit cell (natom)

unit:
  temperature:   K
  free_energy:   kJ/mol
  entropy:       J/K/mol
  heat_capacity: J/K/mol

natom: 8    
cutoff_frequency:    0.000
num_modes: 2654208
num_integrated_modes: 2654208

zero_point_energy:     149.2903978
high_T_entropy:        419.3056984

thermal_properties:
- temperature:         0.0000000
  free_energy:       149.2903978
  entropy:             0.0000000
  heat_capacity:       0.0000000
  energy:            149.2903978

- temperature:         2.0000000
  free_energy:       149.2903978
  entropy:             0.0000000
  heat_capacity:       0.0000000
  energy:            149.2903978

- temperature:         4.0000000
  free_energy:       149.2903977
  entropy:             0.0000061
  heat_capacity:       0.0000404
  energy:            149.2903978

- temperature:         6.0000000
  free_energy:       149.2903977
  entropy:             0.0000551
  heat_capacity:       0.0002456
  energy:            149.2903980

- temperature:         8.0000000
  free_energy:       149.2903975
  entropy:             0.0001750
  heat_capacity:       0.0006413
  energy:            149.2903989

- temperature:        10.0000000
  free_energy:       149.2903969
  entropy:             0.0003811
  heat_capacity:       0.0012744
  energy:            149.2904008

- temperature:        12.0000000
  free_energy:       149.2903959
  entropy:             0.0006911
  heat_capacity:       0.0022113
  energy:            149.2904042

- temperature:        14.0000000
  free_energy:       149.2903941
  entropy:             0.0011250
  heat_capacity:       0.0035180
  energy:            149.2904098

- temperature:        16.0000000
  free_energy:       149.2903913
  entropy:             0.0017032
  heat_capacity:       0.0052592
  energy:            149.2904185

- temperature:        18.0000000
  free_energy:       149.2903872
  entropy:             0.0024468
  heat_capacity:       0.0074998
  energy:            149.2904312

- temperature:        20.0000000
  free_energy:       149.2903814
  entropy:             0.0033769
  heat_capacity:       0.0103052
  energy:            149.2904489

- temperature:        22.0000000
  free_energy:       149.2903735
  entropy:             0.0045150
  heat_capacity:       0.0137421
  energy:            149.2904729

- temperature:        24.0000000
  free_energy:       149.2903632
  entropy:             0.0058828
  heat_capacity:       0.0178781
  energy:            149.2905044

- temperature:        26.0000000
  free_energy:       149.2903498
  entropy:             0.0075021
  heat_capacity:       0.0227822
  energy:            149.2905449

- temperature:        28.0000000
  free_energy:       149.2903330
  entropy:             0.0093952
  heat_capacity:       0.0285251
  energy:            149.2905960

- temperature:        30.0000000
  free_energy:       149.2903120
  entropy:             0.0115847
  heat_capacity:       0.0351793
  energy:            149.2906596

- temperature:        32.0000000
  free_energy:       149.2902864
  entropy:             0.0140935
  heat_capacity:       0.0428193
  energy:            149.2907374

- temperature:        34.0000000
  free_energy:       149.2902554
  entropy:             0.0169449
  heat_capacity:       0.0515218
  energy:            149.2908316

- temperature:        36.0000000
  free_energy:       149.2902184
  entropy:             0.0201629
  heat_capacity:       0.0613665
  energy:            149.2909443

- temperature:        38.0000000
  free_energy:       149.2901745
  entropy:             0.0237717
  heat_capacity:       0.0724359
  energy:            149.2910779

- temperature:        40.0000000
  free_energy:       149.2901230
  entropy:             0.0277961
  heat_capacity:       0.0848161
  energy:            149.2912349

- temperature:        42.0000000
  free_energy:       149.2900631
  entropy:             0.0322619
  heat_capacity:       0.0985975
  energy:            149.2914181

- temperature:        44.0000000
  free_energy:       149.2899937
  entropy:             0.0371953
  heat_capacity:       0.1138751
  energy:            149.2916303

- temperature:        46.0000000
  free_energy:       149.2899139
  entropy:             0.0426234
  heat_capacity:       0.1307493
  energy:            149.2918746

- temperature:        48.0000000
  free_energy:       149.2898228
  entropy:             0.0485743
  heat_capacity:       0.1493267
  energy:            149.2921544

- temperature:        50.0000000
  free_energy:       149.2897193
  entropy:             0.0550772
  heat_capacity:       0.1697210
  energy:            149.2924731

- temperature:        52.0000000
  free_energy:       149.2896021
  entropy:             0.0621623
  heat_capacity:       0.1920532
  energy:            149.2928346

- temperature:        54.0000000
  free_energy:       149.2894702
  entropy:             0.0698613
  heat_capacity:       0.2164528
  energy:            149.2932427

- temperature:        56.0000000
  free_energy:       149.2893223
  entropy:             0.0782071
  heat_capacity:       0.2430577
  energy:            149.2937019

- temperature:        58.0000000
  free_energy:       149.2891569
  entropy:             0.0872343
  heat_capacity:       0.2720149
  energy:            149.2942165

- temperature:        60.0000000
  free_energy:       149.2889728
  entropy:             0.0969791
  heat_capacity:       0.3034805
  energy:            149.2947916

- temperature:        62.0000000
  free_energy:       149.2887685
  entropy:             0.1074793
  heat_capacity:       0.3376198
  energy:            149.2954322

- temperature:        64.0000000
  free_energy:       149.2885424
  entropy:             0.1187745
  heat_capacity:       0.3746066
  energy:            149.2961440

- temperature:        66.0000000
  free_energy:       149.2882929
  entropy:             0.1309063
  heat_capacity:       0.4146231
  energy:            149.2969327

- temperature:        68.0000000
  free_energy:       149.2880182
  entropy:             0.1439179
  heat_capacity:       0.4578590
  energy:            149.2978046

- temperature:        70.0000000
  free_energy:       149.2877166
  entropy:             0.1578545
  heat_capacity:       0.5045106
  energy:            149.2987664

- temperature:        72.0000000
  free_energy:       149.2873861
  entropy:             0.1727630
  heat_capacity:       0.5547800
  energy:            149.2998251

- temperature:        74.0000000
  free_energy:       149.2870248
  entropy:             0.1886921
  heat_capacity:       0.6088738
  energy:            149.3009881

- temperature:        76.0000000
  free_energy:       149.2866306
  entropy:             0.2056922
  heat_capacity:       0.6670017
  energy:            149.3022632

- temperature:        78.0000000
  free_energy:       149.2862013
  entropy:             0.2238150
  heat_capacity:       0.7293753
  energy:            149.3036589

- temperature:        80.0000000
  free_energy:       149.2857346
  entropy:             0.2431140
  heat_capacity:       0.7962071
  energy:            149.3051837

- temperature:        82.0000000
  free_energy:       149.2852280
  entropy:             0.2636438
  heat_capacity:       0.8677084
  energy:            149.3068468

- temperature:        84.0000000
  free_energy:       149.2846792
  entropy:             0.2854600
  heat_capacity:       0.9440888
  energy:            149.3086578

- temperature:        86.0000000
  free_energy:       149.2840853
  entropy:             0.3086194
  heat_capacity:       1.0255543
  energy:            149.3106266

- temperature:        88.0000000
  free_energy:       149.2834438
  entropy:             0.3331795
  heat_capacity:       1.1123065
  energy:            149.3127635

- temperature:        90.0000000
  free_energy:       149.2827516
  entropy:             0.3591983
  heat_capacity:       1.2045412
  energy:            149.3150795

- temperature:        92.0000000
  free_energy:       149.2820059
  entropy:             0.3867342
  heat_capacity:       1.3024477
  energy:            149.3175855

- temperature:        94.0000000
  free_energy:       149.2812036
  entropy:             0.4158460
  heat_capacity:       1.4062074
  energy:            149.3202932

- temperature:        96.0000000
  free_energy:       149.2803415
  entropy:             0.4465924
  heat_capacity:       1.5159937
  energy:            149.3232143

- temperature:        98.0000000
  free_energy:       149.2794161
  entropy:             0.4790319
  heat_capacity:       1.6319706
  energy:            149.3263613

- temperature:       100.0000000
  free_energy:       149.2784242
  entropy:             0.5132228
  heat_capacity:       1.7542928
  energy:            149.3297465

- temperature:       102.0000000
  free_energy:       149.2773620
  entropy:             0.5492227
  heat_capacity:       1.8831046
  energy:            149.3333828

- temperature:       104.0000000
  free_energy:       149.2762260
  entropy:             0.5870889
  heat_capacity:       2.0185403
  energy:            149.3372833

- temperature:       106.0000000
  free_energy:       149.2750124
  entropy:             0.6268775
  heat_capacity:       2.1607235
  energy:            149.3414614

- temperature:       108.0000000
  free_energy:       149.2737172
  entropy:             0.6686439
  heat_capacity:       2.3097670
  energy:            149.3459308

- temperature:       110.0000000
  free_energy:       149.2723365
  entropy:             0.7124423
  heat_capacity:       2.4657730
  energy:            149.3507051

- temperature:       112.0000000
  free_energy:       149.2708661
  entropy:             0.7583259
  heat_capacity:       2.6288332
  energy:            149.3557986

- temperature:       114.0000000
  free_energy:       149.2693017
  entropy:             0.8063463
  heat_capacity:       2.7990285
  energy:            149.3612252

- temperature:       116.0000000
  free_energy:       149.2676392
  entropy:             0.8565540
  heat_capacity:       2.9764300
  energy:            149.3669995

- temperature:       118.0000000
  free_energy:       149.2658740
  entropy:             0.9089978
  heat_capacity:       3.1610983
  energy:            149.3731358

- temperature:       120.0000000
  free_energy:       149.2640017
  entropy:             0.9637254
  heat_capacity:       3.3530846
  energy:            149.3796487

- temperature:       122.0000000
  free_energy:       149.2620176
  entropy:             1.0207823
  heat_capacity:       3.5524308
  energy:            149.3865530

- temperature:       124.0000000
  free_energy:       149.2599170
  entropy:             1.0802130
  heat_capacity:       3.7591698
  energy:            149.3938634

- temperature:       126.0000000
  free_energy:       149.2576951
  entropy:             1.1420598
  heat_capacity:       3.9733258
  energy:            149.4015947

- temperature:       128.0000000
  free_energy:       149.2553471
  entropy:             1.2063636
  heat_capacity:       4.1949153
  energy:            149.4097617

- temperature:       130.0000000
  free_energy:       149.2528680
  entropy:             1.2731636
  heat_capacity:       4.4239469
  energy:            149.4183793

- temperature:       132.0000000
  free_energy:       149.2502528
  entropy:             1.3424973
  heat_capacity:       4.6604218
  energy:            149.4274624

- temperature:       134.0000000
  free_energy:       149.2474963
  entropy:             1.4144002
  heat_capacity:       4.9043349
  energy:            149.4370259

- temperature:       136.0000000
  free_energy:       149.2445934
  entropy:             1.4889064
  heat_capacity:       5.1556743
  energy:            149.4470847

- temperature:       138.0000000
  free_energy:       149.2415389
  entropy:             1.5660481
  heat_capacity:       5.4144224
  energy:            149.4576536

- temperature:       140.0000000
  free_energy:       149.2383275
  entropy:             1.6458561
  heat_capacity:       5.6805561
  energy:            149.4687473

- temperature:       142.0000000
  free_energy:       149.2349537
  entropy:             1.7283591
  heat_capacity:       5.9540472
  energy:            149.4803807

- temperature:       144.0000000
  free_energy:       149.2314122
  entropy:             1.8135845
  heat_capacity:       6.2348628
  energy:            149.4925684

- temperature:       146.0000000
  free_energy:       149.2276975
  entropy:             1.9015580
  heat_capacity:       6.5229654
  energy:            149.5053250

- temperature:       148.0000000
  free_energy:       149.2238041
  entropy:             1.9923037
  heat_capacity:       6.8183137
  energy:            149.5186651

- temperature:       150.0000000
  free_energy:       149.2197264
  entropy:             2.0858440
  heat_capacity:       7.1208627
  energy:            149.5326031

- temperature:       152.0000000
  free_energy:       149.2154589
  entropy:             2.1822001
  heat_capacity:       7.4305639
  energy:            149.5471533

- temperature:       154.0000000
  free_energy:       149.2109958
  entropy:             2.2813915
  heat_capacity:       7.7473656
  energy:            149.5623300

- temperature:       156.0000000
  free_energy:       149.2063314
  entropy:             2.3834362
  heat_capacity:       8.0712134
  energy:            149.5781474

- temperature:       158.0000000
  free_energy:       149.2014601
  entropy:             2.4883510
  heat_capacity:       8.4020500
  energy:            149.5946196

- temperature:       160.0000000
  free_energy:       149.1963761
  entropy:             2.5961512
  heat_capacity:       8.7398159
  energy:            149.6117603

- temperature:       162.0000000
  free_energy:       149.1910736
  entropy:             2.7068508
  heat_capacity:       9.0844492
  energy:            149.6295834

- temperature:       164.0000000
  free_energy:       149.1855467
  entropy:             2.8204626
  heat_capacity:       9.4358860
  energy:            149.6481026

- temperature:       166.0000000
  free_energy:       149.1797898
  entropy:             2.9369980
  heat_capacity:       9.7940604
  energy:            149.6673314

- temperature:       168.0000000
  free_energy:       149.1737968
  entropy:             3.0564673
  heat_capacity:      10.1589049
  energy:            149.6872833

- temperature:       170.0000000
  free_energy:       149.1675619
  entropy:             3.1788795
  heat_capacity:      10.5303501
  energy:            149.7079715

- temperature:       172.0000000
  free_energy:       149.1610793
  entropy:             3.3042427
  heat_capacity:      10.9083252
  energy:            149.7294090

- temperature:       174.0000000
  free_energy:       149.1543430
  entropy:             3.4325636
  heat_capacity:      11.2927581
  energy:            149.7516091

- temperature:       176.0000000
  free_energy:       149.1473471
  entropy:             3.5638481
  heat_capacity:      11.6835751
  energy:            149.7745843

- temperature:       178.0000000
  free_energy:       149.1400856
  entropy:             3.6981008
  heat_capacity:      12.0807013
  energy:            149.7983476

- temperature:       180.0000000
  free_energy:       149.1325527
  entropy:             3.8353256
  heat_capacity:      12.4840607
  energy:            149.8229113

- temperature:       182.0000000
  free_energy:       149.1247423
  entropy:             3.9755252
  heat_capacity:      12.8935761
  energy:            149.8482879

- temperature:       184.0000000
  free_energy:       149.1166486
  entropy:             4.1187014
  heat_capacity:      13.3091693
  energy:            149.8744896

- temperature:       186.0000000
  free_energy:       149.1082655
  entropy:             4.2648551
  heat_capacity:      13.7307608
  energy:            149.9015286

- temperature:       188.0000000
  free_energy:       149.0995872
  entropy:             4.4139864
  heat_capacity:      14.1582703
  energy:            149.9294166

- temperature:       190.0000000
  free_energy:       149.0906076
  entropy:             4.5660945
  heat_capacity:      14.5916166
  energy:            149.9581656

- temperature:       192.0000000
  free_energy:       149.0813208
  entropy:             4.7211776
  heat_capacity:      15.0307174
  energy:            149.9877869

- temperature:       194.0000000
  free_energy:       149.0717209
  entropy:             4.8792335
  heat_capacity:      15.4754896
  energy:            150.0182922

- temperature:       196.0000000
  free_energy:       149.0618019
  entropy:             5.0402587
  heat_capacity:      15.9258493
  energy:            150.0496926

- temperature:       198.0000000
  free_energy:       149.0515579
  entropy:             5.2042493
  heat_capacity:      16.3817115
  energy:            150.0819993

- temperature:       200.0000000
  free_energy:       149.0409829
  entropy:             5.3712007
  heat_capacity:      16.8429907
  energy:            150.1152231

- temperature:       202.0000000
  free_energy:       149.0300711
  entropy:             5.5411072
  heat_capacity:      17.3096005
  energy:            150.1493748

- temperature:       204.0000000
  free_energy:       149.0188166
  entropy:             5.7139629
  heat_capacity:      17.7814535
  energy:            150.1844650

- temperature:       206.0000000
  free_energy:       149.0072133
  entropy:             5.8897608
  heat_capacity:      18.2584620
  energy:            150.2205040

- temperature:       208.0000000
  free_energy:       148.9952556
  entropy:             6.0684935
  heat_capacity:      18.7405373
  energy:            150.2575022

- temperature:       210.0000000
  free_energy:       148.9829374
  entropy:             6.2501529
  heat_capacity:      19.2275899
  energy:            150.2954695

- temperature:       212.0000000
  free_energy:       148.9702530
  entropy:             6.4347303
  heat_capacity:      19.7195301
  energy:            150.3344158

- temperature:       214.0000000
  free_energy:       148.9571965
  entropy:             6.6222163
  heat_capacity:      20.2162670
  energy:            150.3743508

- temperature:       216.0000000
  free_energy:       148.9437622
  entropy:             6.8126011
  heat_capacity:      20.7177095
  energy:            150.4152840

- temperature:       218.0000000
  free_energy:       148.9299442
  entropy:             7.0058740
  heat_capacity:      21.2237658
  energy:            150.4572247

- temperature:       220.0000000
  free_energy:       148.9157368
  entropy:             7.2020242
  heat_capacity:      21.7343435
  energy:            150.5001821

- temperature:       222.0000000
  free_energy:       148.9011342
  entropy:             7.4010400
  heat_capacity:      22.2493498
  energy:            150.5441651

- temperature:       224.0000000
  free_energy:       148.8861307
  entropy:             7.6029093
  heat_capacity:      22.7686914
  energy:            150.5891824

- temperature:       226.0000000
  free_energy:       148.8707207
  entropy:             7.8076195
  heat_capacity:      23.2922744
  energy:            150.6352427

- temperature:       228.0000000
  free_energy:       148.8548984
  entropy:             8.0151574
  heat_capacity:      23.8200047
  energy:            150.6823543

- temperature:       230.0000000
  free_energy:       148.8386582
  entropy:             8.2255097
  heat_capacity:      24.3517878
  energy:            150.7305254

- temperature:       232.0000000
  free_energy:       148.8219945
  entropy:             8.4386620
  heat_capacity:      24.8875288
  energy:            150.7797640

- temperature:       234.0000000
  free_energy:       148.8049017
  entropy:             8.6546001
  heat_capacity:      25.4271326
  energy:            150.8300781

- temperature:       236.0000000
  free_energy:       148.7873742
  entropy:             8.8733088
  heat_capacity:      25.9705036
  energy:            150.8814751

- temperature:       238.0000000
  free_energy:       148.7694066
  entropy:             9.0947729
  heat_capacity:      26.5175464
  energy:            150.9339625

- temperature:       240.0000000
  free_energy:       148.7509933
  entropy:             9.3189765
  heat_capacity:      27.0681651
  energy:            150.9875477

- temperature:       242.0000000
  free_energy:       148.7321289
  entropy:             9.5459035
  heat_capacity:      27.6222638
  energy:            151.0422375

- temperature:       244.0000000
  free_energy:       148.7128079
  entropy:             9.7755373
  heat_capacity:      28.1797467
  energy:            151.0980390

- temperature:       246.0000000
  free_energy:       148.6930249
  entropy:            10.0078609
  heat_capacity:      28.7405176
  energy:            151.1549587

- temperature:       248.0000000
  free_energy:       148.6727746
  entropy:            10.2428570
  heat_capacity:      29.3044806
  energy:            151.2130032

- temperature:       250.0000000
  free_energy:       148.6520517
  entropy:            10.4805078
  heat_capacity:      29.8715397
  energy:            151.2721787

- temperature:       252.0000000
  free_energy:       148.6308509
  entropy:            10.7207955
  heat_capacity:      30.4415991
  energy:            151.3324913

- temperature:       254.0000000
  free_energy:       148.6091668
  entropy:            10.9637017
  heat_capacity:      31.0145630
  energy:            151.3939470

- temperature:       256.0000000
  free_energy:       148.5869943
  entropy:            11.2092076
  heat_capacity:      31.5903361
  energy:            151.4565515

- temperature:       258.0000000
  free_energy:       148.5643282
  entropy:            11.4572943
  heat_capacity:      32.1688229
  energy:            151.5203102

- temperature:       260.0000000
  free_energy:       148.5411634
  entropy:            11.7079425
  heat_capacity:      32.7499286
  energy:            151.5852285

- temperature:       262.0000000
  free_energy:       148.5174948
  entropy:            11.9611328
  heat_capacity:      33.3335583
  energy:            151.6513116

- temperature:       264.0000000
  free_energy:       148.4933172
  entropy:            12.2168452
  heat_capacity:      33.9196179
  energy:            151.7185643

- temperature:       266.0000000
  free_energy:       148.4686257
  entropy:            12.4750596
  heat_capacity:      34.5080133
  energy:            151.7869916

- temperature:       268.0000000
  free_energy:       148.4434153
  entropy:            12.7357558
  heat_capacity:      35.0986510
  energy:            151.8565979

- temperature:       270.0000000
  free_energy:       148.4176811
  entropy:            12.9989132
  heat_capacity:      35.6914381
  energy:            151.9273876

- temperature:       272.0000000
  free_energy:       148.3914180
  entropy:            13.2645109
  heat_capacity:      36.2862821
  energy:            151.9993650

- temperature:       274.0000000
  free_energy:       148.3646214
  entropy:            13.5325280
  heat_capacity:      36.8830911
  energy:            152.0725341

- temperature:       276.0000000
  free_energy:       148.3372863
  entropy:            13.8029431
  heat_capacity:      37.4817738
  energy:            152.1468986

- temperature:       278.0000000
  free_energy:       148.3094081
  entropy:            14.0757349
  heat_capacity:      38.0822395
  energy:            152.2224624

- temperature:       280.0000000
  free_energy:       148.2809818
  entropy:            14.3508818
  heat_capacity:      38.6843981
  energy:            152.2992287

- temperature:       282.0000000
  free_energy:       148.2520030
  entropy:            14.6283619
  heat_capacity:      39.2881605
  energy:            152.3772010

- temperature:       284.0000000
  free_energy:       148.2224668
  entropy:            14.9081533
  heat_capacity:      39.8934380
  energy:            152.4563824

- temperature:       286.0000000
  free_energy:       148.1923688
  entropy:            15.1902339
  heat_capacity:      40.5001428
  energy:            152.5367757

- temperature:       288.0000000
  free_energy:       148.1617044
  entropy:            15.4745814
  heat_capacity:      41.1081880
  energy:            152.6183838

- temperature:       290.0000000
  free_energy:       148.1304690
  entropy:            15.7611734
  heat_capacity:      41.7174874
  energy:            152.7012093

- temperature:       292.0000000
  free_energy:       148.0986582
  entropy:            16.0499875
  heat_capacity:      42.3279557
  energy:            152.7852546

- temperature:       294.0000000
  free_energy:       148.0662676
  entropy:            16.3410009
  heat_capacity:      42.9395085
  energy:            152.8705219

- temperature:       296.0000000
  free_energy:       148.0332928
  entropy:            16.6341909
  heat_capacity:      43.5520623
  energy:            152.9570133

- temperature:       298.0000000
  free_energy:       147.9997294
  entropy:            16.9295346
  heat_capacity:      44.1655346
  energy:            153.0447307

- temperature:       300.0000000
  free_energy:       147.9655732
  entropy:            17.2270092
  heat_capacity:      44.7798437
  energy:            153.1336760

- temperature:       302.0000000
  free_energy:       147.9308199
  entropy:            17.5265915
  heat_capacity:      45.3949090
  energy:            153.2238506

- temperature:       304.0000000
  free_energy:       147.8954654
  entropy:            17.8282586
  heat_capacity:      46.0106510
  energy:            153.3152560

- temperature:       306.0000000
  free_energy:       147.8595055
  entropy:            18.1319871
  heat_capacity:      46.6269911
  energy:            153.4078936

- temperature:       308.0000000
  free_energy:       147.8229361
  entropy:            18.4377540
  heat_capacity:      47.2438516
  energy:            153.5017644

- temperature:       310.0000000
  free_energy:       147.7857532
  entropy:            18.7455359
  heat_capacity:      47.8611561
  energy:            153.5968693

- temperature:       312.0000000
  free_energy:       147.7479527
  entropy:            19.0553095
  heat_capacity:      48.4788292
  energy:            153.6932092

- temperature:       314.0000000
  free_energy:       147.7095306
  entropy:            19.3670515
  heat_capacity:      49.0967966
  energy:            153.7907848

- temperature:       316.0000000
  free_energy:       147.6704832
  entropy:            19.6807386
  heat_capacity:      49.7149849
  energy:            153.8895966

- temperature:       318.0000000
  free_energy:       147.6308064
  entropy:            19.9963473
  heat_capacity:      50.3333222
  energy:            153.9896448

- temperature:       320.0000000
  free_energy:       147.5904965
  entropy:            20.3138544
  heat_capacity:      50.9517373
  energy:            154.0909299

- temperature:       322.0000000
  free_energy:       147.5495497
  entropy:            20.6332363
  heat_capacity:      51.5701605
  energy:            154.1934518

- temperature:       324.0000000
  free_energy:       147.5079623
  entropy:            20.9544697
  heat_capacity:      52.1885229
  energy:            154.2972105

- temperature:       326.0000000
  free_energy:       147.4657306
  entropy:            21.2775312
  heat_capacity:      52.8067571
  energy:            154.4022058

- temperature:       328.0000000
  free_energy:       147.4228510
  entropy:            21.6023976
  heat_capacity:      53.4247965
  energy:            154.5084374

- temperature:       330.0000000
  free_energy:       147.3793199
  entropy:            21.9290454
  heat_capacity:      54.0425760
  energy:            154.6159048

- temperature:       332.0000000
  free_energy:       147.3351336
  entropy:            22.2574513
  heat_capacity:      54.6600313
  energy:            154.7246075

- temperature:       334.0000000
  free_energy:       147.2902889
  entropy:            22.5875922
  heat_capacity:      55.2770996
  energy:            154.8345447

- temperature:       336.0000000
  free_energy:       147.2447821
  entropy:            22.9194448
  heat_capacity:      55.8937191
  energy:            154.9457156

- temperature:       338.0000000
  free_energy:       147.1986100
  entropy:            23.2529859
  heat_capacity:      56.5098291
  energy:            155.0581192

- temperature:       340.0000000
  free_energy:       147.1517691
  entropy:            23.5881925
  heat_capacity:      57.1253703
  energy:            155.1717545

- temperature:       342.0000000
  free_energy:       147.1042561
  entropy:            23.9250414
  heat_capacity:      57.7402843
  energy:            155.2866203

- temperature:       344.0000000
  free_energy:       147.0560678
  entropy:            24.2635098
  heat_capacity:      58.3545141
  energy:            155.4027152

- temperature:       346.0000000
  free_energy:       147.0072010
  entropy:            24.6035747
  heat_capacity:      58.9680038
  energy:            155.5200379

- temperature:       348.0000000
  free_energy:       146.9576525
  entropy:            24.9452132
  heat_capacity:      59.5806985
  energy:            155.6385867

- temperature:       350.0000000
  free_energy:       146.9074191
  entropy:            25.2884027
  heat_capacity:      60.1925446
  energy:            155.7583601

- temperature:       352.0000000
  free_energy:       146.8564979
  entropy:            25.6331205
  heat_capacity:      60.8034898
  energy:            155.8793563

- temperature:       354.0000000
  free_energy:       146.8048856
  entropy:            25.9793440
  heat_capacity:      61.4134826
  energy:            156.0015734

- temperature:       356.0000000
  free_energy:       146.7525795
  entropy:            26.3270507