<?xml version="1.0" encoding="ISO-8859-1"?>
<modeling>
 <generator>
  <i name="program" type="string">vasp </i>
  <i name="version" type="string">5.4.4.18Apr17-6-g9f103f2a35  </i>
  <i name="subversion" type="string">(build Mar 12 2022 03:36:41) complex            parallel </i>
  <i name="platform" type="string">IFC19.0.3.199_CrayMPICH7.7.19 </i>
  <i name="date" type="string">2022 12 02 </i>
  <i name="time" type="string">01:12:08 </i>
 </generator>
 <incar>
  <i type="string" name="PREC">accurate</i>
  <i type="int" name="IALGO">    38</i>
  <i type="logical" name="ADDGRID"> T  </i>
  <i type="int" name="IBRION">     8</i>
  <i name="EDIFF">      0.00000001</i>
  <i type="logical" name="LREAL"> F  </i>
  <i type="int" name="ISMEAR">     0</i>
  <i name="SIGMA">      0.06000000</i>
  <i type="logical" name="LWAVE"> F  </i>
  <i type="logical" name="LCHARG"> F  </i>
  <v type="int" name="KPOINT_BSE">    -1     0     0     0</v>
 </incar>
 <structure name="primitive_cell" >
  <crystal>
   <varray name="basis" >
    <v>       1.74031656       1.74031656       0.00000000 </v>
    <v>       1.74031656       0.00000000      -1.74031656 </v>
    <v>       0.00000000       1.74031656      -1.74031656 </v>
   </varray>
   <i name="volume">     10.54179953 </i>
   <varray name="rec_basis" >
    <v>       0.28730405       0.28730405       0.28730405 </v>
    <v>       0.28730405      -0.28730405      -0.28730405 </v>
    <v>      -0.28730405       0.28730405      -0.28730405 </v>
   </varray>
  </crystal>
  <varray name="positions" >
   <v>       0.25000000       0.25000000       0.25000000 </v>
   <v>      -0.50000000      -0.50000000      -0.50000000 </v>
  </varray>
 </structure>
 <varray name="primitive_index" >
  <v type="int" >        1 </v>
  <v type="int" >       11 </v>
 </varray>
 <kpoints>
  <generation param="Gamma">
   <v type="int" name="divisions">       6        6        6 </v>
   <v name="usershift">      0.00000000       0.00000000       0.00000000 </v>
   <v name="genvec1">      0.16666667       0.00000000       0.00000000 </v>
   <v name="genvec2">      0.00000000       0.16666667       0.00000000 </v>
   <v name="genvec3">      0.00000000       0.00000000       0.16666667 </v>
   <v name="shift">      0.00000000       0.00000000       0.00000000 </v>
  </generation>
  <varray name="kpointlist" >
   <v>       0.00000000       0.00000000       0.00000000 </v>
   <v>       0.16666667       0.00000000       0.00000000 </v>
   <v>       0.33333333       0.00000000       0.00000000 </v>
   <v>       0.50000000       0.00000000       0.00000000 </v>
   <v>       0.16666667       0.16666667       0.00000000 </v>
   <v>       0.33333333       0.16666667       0.00000000 </v>
   <v>       0.50000000       0.16666667       0.00000000 </v>
   <v>       0.33333333       0.33333333       0.00000000 </v>
   <v>       0.50000000       0.33333333       0.00000000 </v>
   <v>       0.50000000       0.50000000       0.00000000 </v>
   <v>       0.16666667       0.16666667       0.16666667 </v>
   <v>       0.33333333       0.16666667       0.16666667 </v>
   <v>       0.50000000       0.16666667       0.16666667 </v>
   <v>       0.33333333       0.33333333       0.16666667 </v>
   <v>       0.50000000       0.33333333       0.16666667 </v>
   <v>       0.50000000       0.50000000       0.16666667 </v>
   <v>       0.33333333       0.33333333       0.33333333 </v>
   <v>       0.50000000       0.33333333       0.33333333 </v>
   <v>       0.50000000       0.50000000       0.33333333 </v>
   <v>       0.50000000       0.50000000       0.50000000 </v>
  </varray>
  <varray name="weights" >
   <v>       0.00462963 </v>
   <v>       0.02777778 </v>
   <v>       0.02777778 </v>
   <v>       0.01388889 </v>
   <v>       0.05555556 </v>
   <v>       0.11111111 </v>
   <v>       0.05555556 </v>
   <v>       0.05555556 </v>
   <v>       0.05555556 </v>
   <v>       0.01388889 </v>
   <v>       0.03703704 </v>
   <v>       0.11111111 </v>
   <v>       0.05555556 </v>
   <v>       0.11111111 </v>
   <v>       0.11111111 </v>
   <v>       0.02777778 </v>
   <v>       0.03703704 </v>
   <v>       0.05555556 </v>
   <v>       0.02777778 </v>
   <v>       0.00462963 </v>
  </varray>
 </kpoints>
 <parameters>
  <separator name="general" >
   <i type="string" name="SYSTEM">unknown system</i>
   <i type="logical" name="LCOMPAT"> F  </i>
  </separator>
  <separator name="electronic" >
   <i type="string" name="PREC">accura</i>
   <i name="ENMAX">    400.00000000</i>
   <i name="ENAUG">    644.87300000</i>
   <i name="EDIFF">      0.00000001</i>
   <i type="int" name="IALGO">    38</i>
   <i type="int" name="IWAVPR">    11</i>
   <i type="int" name="NBANDS">   192</i>
   <i name="NELECT">    256.00000000</i>
   <i type="int" name="TURBO">     0</i>
   <i type="int" name="IRESTART">     0</i>
   <i type="int" name="NREBOOT">     0</i>
   <i type="int" name="NMIN">     0</i>
   <i name="EREF">      0.00000000</i>
   <separator name="electronic smearing" >
    <i type="int" name="ISMEAR">     0</i>
    <i name="SIGMA">      0.06000000</i>
    <i name="KSPACING">      0.50000000</i>
    <i type="logical" name="KGAMMA"> T  </i>
   </separator>
   <separator name="electronic projectors" >
    <i type="logical" name="LREAL"> F  </i>
    <v name="ROPT">      0.00000000</v>
    <i type="int" name="LMAXPAW">  -100</i>
    <i type="int" name="LMAXMIX">     2</i>
    <i type="logical" name="NLSPLINE"> F  </i>
   </separator>
   <separator name="electronic startup" >
    <i type="int" name="ISTART">     0</i>
    <i type="int" name="ICHARG">     2</i>
    <i type="int" name="INIWAV">     1</i>
   </separator>
   <separator name="electronic spin" >
    <i type="int" name="ISPIN">     1</i>
    <i type="logical" name="LNONCOLLINEAR"> F  </i>
    <v name="MAGMOM">      1.00000000      1.00000000      1.00000000      1.00000000      1.00000000      1.00000000      1.00000000      1.00000000      1.00000000      1.00000000      1.00000000      1.00000000      1.00000000      1.00000000      1.00000000      1.00000000      1.00000000      1.00000000      1.00000000      1.00000000
      1.00000000      1.00000000      1.00000000      1.00000000      1.00000000      1.00000000      1.00000000      1.00000000      1.00000000      1.00000000      1.00000000      1.00000000      1.00000000      1.00000000      1.00000000      1.00000000      1.00000000      1.00000000      1.00000000      1.00000000
      1.00000000      1.00000000      1.00000000      1.00000000      1.00000000      1.00000000      1.00000000      1.00000000      1.00000000      1.00000000      1.00000000      1.00000000      1.00000000      1.00000000      1.00000000      1.00000000      1.00000000      1.00000000      1.00000000      1.00000000
      1.00000000      1.00000000      1.00000000      1.00000000</v>
    <i name="NUPDOWN">     -1.00000000</i>
    <i type="logical" name="LSORBIT"> F  </i>
    <v name="SAXIS">      0.00000000      0.00000000      1.00000000</v>
    <i type="logical" name="LSPIRAL"> F  </i>
    <v name="QSPIRAL">      0.00000000      0.00000000      0.00000000</v>
    <i type="logical" name="LZEROZ"> F  </i>
   </separator>
   <separator name="electronic exchange-correlation" >
    <i type="logical" name="LASPH"> F  </i>
    <i type="logical" name="LMETAGGA"> F  </i>
   </separator>
   <separator name="electronic convergence" >
    <i type="int" name="NELM">    60</i>
    <i type="int" name="NELMDL">    -5</i>
    <i type="int" name="NELMIN">     2</i>
    <i name="ENINI">    400.00000000</i>
    <separator name="electronic convergence detail" >
     <i type="logical" name="LDIAG"> T  </i>
     <i type="logical" name="LSUBROT"> F  </i>
     <i name="WEIMIN">      0.00100000</i>
     <i name="EBREAK">      0.00000000</i>
     <i name="DEPER">      0.30000000</i>
     <i type="int" name="NRMM">     4</i>
     <i name="TIME">      0.40000000</i>
    </separator>
   </separator>
   <separator name="electronic mixer" >
    <i name="AMIX">      0.40000000</i>
    <i name="BMIX">      1.00000000</i>
    <i name="AMIN">      0.10000000</i>
    <i name="AMIX_MAG">      1.60000000</i>
    <i name="BMIX_MAG">      1.00000000</i>
    <separator name="electronic mixer details" >
     <i type="int" name="IMIX">     4</i>
     <i type="logical" name="MIXFIRST"> F  </i>
     <i type="int" name="MAXMIX">   -45</i>
     <i name="WC">    100.00000000</i>
     <i type="int" name="INIMIX">     1</i>
     <i type="int" name="MIXPRE">     1</i>
     <i type="int" name="MREMOVE">     5</i>
    </separator>
   </separator>
   <separator name="electronic dipolcorrection" >
    <i type="logical" name="LDIPOL"> F  </i>
    <i type="logical" name="LMONO"> F  </i>
    <i type="int" name="IDIPOL">     0</i>
    <i name="EPSILON">      1.00000000</i>
    <v name="DIPOL">   -100.00000000   -100.00000000   -100.00000000</v>
    <i name="EFIELD">      0.00000000</i>
   </separator>
  </separator>
  <separator name="grids" >
   <i type="int" name="NGX">    48</i>
   <i type="int" name="NGY">    48</i>
   <i type="int" name="NGZ">    48</i>
   <i type="int" name="NGXF">    96</i>
   <i type="int" name="NGYF">    96</i>
   <i type="int" name="NGZF">    96</i>
   <i type="logical" name="ADDGRID"> T  </i>
  </separator>
  <separator name="ionic" >
   <i type="int" name="NSW">     1</i>
   <i type="int" name="IBRION">     8</i>
   <i type="int" name="MDALGO">     0</i>
   <i type="int" name="ISIF">     2</i>
   <i name="PSTRESS">      0.00000000</i>
   <i name="EDIFFG">      0.00000010</i>
   <i type="int" name="NFREE">     0</i>
   <i name="POTIM">      0.50000000</i>
   <i name="SMASS">     -3.00000000</i>
   <i name="SCALEE">      1.00000000</i>
  </separator>
  <separator name="ionic md" >
   <i name="TEBEG">      0.00010000</i>
   <i name="TEEND">      0.00010000</i>
   <i type="int" name="NBLOCK">     1</i>
   <i type="int" name="KBLOCK">     1</i>
   <i type="int" name="NPACO">   256</i>
   <i name="APACO">     16.00000000</i>
  </separator>
  <separator name="symmetry" >
   <i type="int" name="ISYM">     2</i>
   <i name="SYMPREC">      0.00001000</i>
  </separator>
  <separator name="dos" >
   <i type="int" name="LORBIT">     0</i>
   <v name="RWIGS">     -1.00000000</v>
   <i type="int" name="NEDOS">   301</i>
   <i name="EMIN">     10.00000000</i>
   <i name="EMAX">    -10.00000000</i>
   <i name="EFERMI">      0.00000000</i>
  </separator>
  <separator name="writing" >
   <i type="int" name="NWRITE">     2</i>
   <i type="logical" name="LWAVE"> F  </i>
   <i type="logical" name="LDOWNSAMPLE"> F  </i>
   <i type="logical" name="LCHARG"> F  </i>
   <i type="logical" name="LPARD"> F  </i>
   <i type="logical" name="LVTOT"> F  </i>
   <i type="logical" name="LVHAR"> F  </i>
   <i type="logical" name="LELF"> F  </i>
   <i type="logical" name="LOPTICS"> F  </i>
   <v name="STM">      0.00000000      0.00000000      0.00000000      0.00000000      0.00000000      0.00000000      0.00000000</v>
  </separator>
  <separator name="performance" >
   <i type="int" name="NPAR">    32</i>
   <i type="int" name="NSIM">     4</i>
   <i type="int" name="NBLK">    -1</i>
   <i type="logical" name="LPLANE"> T  </i>
   <i type="logical" name="LSCALAPACK"> T  </i>
   <i type="logical" name="LSCAAWARE"> F  </i>
   <i type="logical" name="LSCALU"> F  </i>
   <i type="logical" name="LASYNC"> F  </i>
   <i type="logical" name="LORBITALREAL"> F  </i>
  </separator>
  <separator name="miscellaneous" >
   <i type="int" name="IDIOT">     3</i>
   <i type="int" name="ISPECIAL">     0</i>
   <i type="logical" name="LMUSIC"> F  </i>
   <v name="POMASS">     12.01100000</v>
   <v name="DARWINR">      0.00000000</v>
   <v name="DARWINV">      1.00000000</v>
   <i type="logical" name="LCORR"> T  </i>
  </separator>
  <i type="logical" name="GGA_COMPAT"> T  </i>
  <i type="logical" name="LBERRY"> F  </i>
  <i type="int" name="ICORELEVEL">     0</i>
  <i type="logical" name="LDAU"> F  </i>
  <i type="int" name="I_CONSTRAINED_M">     0</i>
  <separator name="electronic exchange-correlation" >
   <i type="string" name="GGA">--</i>
   <i type="int" name="VOSKOWN">     0</i>
   <i type="logical" name="LHFCALC"> F  </i>
   <i type="string" name="PRECFOCK"></i>
   <i type="logical" name="LSYMGRAD"> F  </i>
   <i type="logical" name="LHFONE"> F  </i>
   <i type="logical" name="LRHFCALC"> F  </i>
   <i type="logical" name="LTHOMAS"> F  </i>
   <i type="logical" name="LMODELHF"> F  </i>
   <i name="ENCUT4O">     -1.00000000</i>
   <i type="int" name="EXXOEP">     0</i>
   <i type="int" name="FOURORBIT">     0</i>
   <i name="AEXX">      0.00000000</i>
   <i name="HFALPHA">      0.00000000</i>
   <i name="MCALPHA">      0.00000000</i>
   <i name="ALDAX">      1.00000000</i>
   <i name="AGGAX">      1.00000000</i>
   <i name="ALDAC">      1.00000000</i>
   <i name="AGGAC">      1.00000000</i>
   <i type="int" name="NKREDX">     1</i>
   <i type="int" name="NKREDY">     1</i>
   <i type="int" name="NKREDZ">     1</i>
   <i type="logical" name="SHIFTRED"> F  </i>
   <i type="logical" name="ODDONLY"> F  </i>
   <i type="logical" name="EVENONLY"> F  </i>
   <i type="int" name="LMAXFOCK">     0</i>
   <i type="int" name="NMAXFOCKAE">     0</i>
   <i type="logical" name="LFOCKAEDFT"> F  </i>
   <i name="HFSCREEN">      0.00000000</i>
   <i name="HFSCREENC">      0.00000000</i>
   <i type="int" name="NBANDSGWLOW">     0</i>
  </separator>
  <separator name="vdW DFT" >
   <i type="logical" name="LUSE_VDW"> F  </i>
   <i name="Zab_VDW">     -0.84910000</i>
   <i name="PARAM1">      0.12340000</i>
   <i name="PARAM2">      1.00000000</i>
   <i name="PARAM3">      0.00000000</i>
  </separator>
  <separator name="model GW" >
   <i type="int" name="MODEL_GW">     0</i>
   <i name="MODEL_EPS0">      3.16253986</i>
   <i name="MODEL_ALPHA">      1.00000000</i>
  </separator>
  <separator name="linear response parameters" >
   <i type="logical" name="LEPSILON"> F  </i>
   <i type="logical" name="LRPA"> F  </i>
   <i type="logical" name="LNABLA"> F  </i>
   <i type="logical" name="LVEL"> F  </i>
   <i type="int" name="KINTER">     0</i>
   <i name="CSHIFT">      0.10000000</i>
   <i name="OMEGAMAX">     -1.00000000</i>
   <i name="DEG_THRESHOLD">      0.00200000</i>
   <i name="RTIME">     -0.10000000</i>
   <i name="WPLASMAI">      0.00000000</i>
   <v name="DFIELD">      0.00000000      0.00000000      0.00000000</v>
   <v name="WPLASMA">      0.00000000      0.00000000      0.00000000      0.00000000      0.00000000      0.00000000      0.00000000      0.00000000      0.00000000</v>
  </separator>
  <separator name="orbital magnetization" >
   <i type="logical" name="NUCIND"> F  </i>
   <v name="MAGPOS">      0.00000000      0.00000000      0.00000000</v>
   <i type="logical" name="LNICSALL"> T  </i>
   <i type="logical" name="ORBITALMAG"> F  </i>
   <i type="logical" name="LMAGBLOCH"> F  </i>
   <i type="logical" name="LCHIMAG"> F  </i>
   <i type="logical" name="LGAUGE"> T  </i>
   <i type="int" name="MAGATOM">     0</i>
   <v name="MAGDIPOL">      0.00000000      0.00000000      0.00000000</v>
   <v name="AVECCONST">      0.00000000      0.00000000      0.00000000</v>
  </separator>
  <separator name="response functions" >
   <i type="logical" name="LADDER"> F  </i>
   <i type="logical" name="LRPAFORCE"> F  </i>
   <i type="logical" name="LFXC"> F  </i>
   <i type="logical" name="LHARTREE"> T  </i>
   <i type="int" name="IBSE">     0</i>
   <v type="int" name="KPOINT">    -1     0     0     0</v>
   <i type="logical" name="LTCTE"> F  </i>
   <i type="logical" name="LTETE"> F  </i>
   <i type="logical" name="LTRIPLET"> F  </i>
   <i type="logical" name="LFXCEPS"> F  </i>
   <i type="logical" name="LFXHEG"> F  </i>
   <i type="int" name="NATURALO">     2</i>
   <i type="logical" name="L2ORDER"> F  </i>
   <i type="logical" name="LMP2LT"> F  </i>
   <i type="logical" name="LUSEW"> F  </i>
   <i name="ENCUTGW">     -2.00000000</i>
   <i name="ENCUTGWSOFT">     -2.00000000</i>
   <i name="ENCUTLF">     -1.00000000</i>
   <i type="int" name="LMAXMP2">    -1</i>
   <i name="SCISSOR">      0.00000000</i>
   <i type="int" name="NOMEGA">     0</i>
   <i type="int" name="NOMEGAR">     0</i>
   <i type="int" name="NBANDSGW">    -1</i>
   <i type="int" name="NBANDSO">    -1</i>
   <i type="int" name="NBANDSV">    -1</i>
   <i type="int" name="NELM">     1</i>
   <i type="int" name="NELMHF">     1</i>
   <i type="int" name="DIM">     3</i>
   <i type="int" name="ANTIRES">     0</i>
   <i name="OMEGAMAX">    -30.00000000</i>
   <i name="OMEGAMIN">    -30.00000000</i>
   <i name="OMEGATL">   -200.00000000</i>
   <i type="int" name="OMEGAGRID">   140</i>
   <i name="CSHIFT">     -0.10000000</i>
   <i type="logical" name="SELFENERGY"> F  </i>
   <i type="logical" name="LSPECTRAL"> F  </i>
   <i type="logical" name="LSPECTRALGW"> F  </i>
   <i type="logical" name="LSINGLES"> F  </i>
   <i type="logical" name="LFERMIGW"> F  </i>
   <i type="logical" name="ODDONLYGW"> F  </i>
   <i type="logical" name="EVENONLYGW"> F  </i>
   <i type="int" name="NKREDLFX">     1</i>
   <i type="int" name="NKREDLFY">     1</i>
   <i type="int" name="NKREDLFZ">     1</i>
   <i type="int" name="MAXMEM">  2800</i>
   <i type="int" name="TELESCOPE">     0</i>
   <i type="int" name="TAUPAR">     1</i>
   <i type="int" name="OMEGAPAR">    -1</i>
   <i name="LAMBDA">      1.00000000</i>
  </separator>
  <separator name="External order field" >
   <i name="OFIELD_KAPPA">      0.00000000</i>
   <v name="OFIELD_K">      0.00000000      0.00000000      0.00000000</v>
   <i name="OFIELD_Q6_NEAR">      0.00000000</i>
   <i name="OFIELD_Q6_FAR">      0.00000000</i>
   <i name="OFIELD_A">      0.00000000</i>
  </separator>
 </parameters>
 <atominfo>
  <atoms>      64 </atoms>
  <types>       1 </types>
  <array name="atoms" >
   <dimension dim="1">ion</dimension>
   <field type="string">element</field>
   <field type="int">atomtype</field>
   <set>
    <rc><c>C </c><c>   1</c></rc>
    <rc><c>C </c><c>   1</c></rc>
    <rc><c>C </c><c>   1</c></rc>
    <rc><c>C </c><c>   1</c></rc>
    <rc><c>C </c><c>   1</c></rc>
    <rc><c>C </c><c>   1</c></rc>
    <rc><c>C </c><c>   1</c></rc>
    <rc><c>C </c><c>   1</c></rc>
    <rc><c>C </c><c>   1</c></rc>
    <rc><c>C </c><c>   1</c></rc>
    <rc><c>C </c><c>   1</c></rc>
    <rc><c>C </c><c>   1</c></rc>
    <rc><c>C </c><c>   1</c></rc>
    <rc><c>C </c><c>   1</c></rc>
    <rc><c>C </c><c>   1</c></rc>
    <rc><c>C </c><c>   1</c></rc>
    <rc><c>C </c><c>   1</c></rc>
    <rc><c>C </c><c>   1</c></rc>
    <rc><c>C </c><c>   1</c></rc>
    <rc><c>C </c><c>   1</c></rc>
    <rc><c>C </c><c>   1</c></rc>
    <rc><c>C </c><c>   1</c></rc>
    <rc><c>C </c><c>   1</c></rc>
    <rc><c>C </c><c>   1</c></rc>
    <rc><c>C </c><c>   1</c></rc>
    <rc><c>C </c><c>   1</c></rc>
    <rc><c>C </c><c>   1</c></rc>
    <rc><c>C </c><c>   1</c></rc>
    <rc><c>C </c><c>   1</c></rc>
    <rc><c>C </c><c>   1</c></rc>
    <rc><c>C </c><c>   1</c></rc>
    <rc><c>C </c><c>   1</c></rc>
    <rc><c>C </c><c>   1</c></rc>
    <rc><c>C </c><c>   1</c></rc>
    <rc><c>C </c><c>   1</c></rc>
    <rc><c>C </c><c>   1</c></rc>
    <rc><c>C </c><c>   1</c></rc>
    <rc><c>C </c><c>   1</c></rc>
    <rc><c>C </c><c>   1</c></rc>
    <rc><c>C </c><c>   1</c></rc>
    <rc><c>C </c><c>   1</c></rc>
    <rc><c>C </c><c>   1</c></rc>
    <rc><c>C </c><c>   1</c></rc>
    <rc><c>C </c><c>   1</c></rc>
    <rc><c>C </c><c>   1</c></rc>
    <rc><c>C </c><c>   1</c></rc>
    <rc><c>C </c><c>   1</c></rc>
    <rc><c>C </c><c>   1</c></rc>
    <rc><c>C </c><c>   1</c></rc>
    <rc><c>C </c><c>   1</c></rc>
    <rc><c>C </c><c>   1</c></rc>
    <rc><c>C </c><c>   1</c></rc>
    <rc><c>C </c><c>   1</c></rc>
    <rc><c>C </c><c>   1</c></rc>
    <rc><c>C </c><c>   1</c></rc>
    <rc><c>C </c><c>   1</c></rc>
    <rc><c>C </c><c>   1</c></rc>
    <rc><c>C </c><c>   1</c></rc>
    <rc><c>C </c><c>   1</c></rc>
    <rc><c>C </c><c>   1</c></rc>
    <rc><c>C </c><c>   1</c></rc>
    <rc><c>C </c><c>   1</c></rc>
    <rc><c>C </c><c>   1</c></rc>
    <rc><c>C </c><c>   1</c></rc>
   </set>
  </array>
  <array name="atomtypes" >
   <dimension dim="1">type</dimension>
   <field type="int">atomspertype</field>
   <field type="string">element</field>
   <field>mass</field>
   <field>valence</field>
   <field type="string">pseudopotential</field>
   <set>
    <rc><c>  64</c><c>C </c><c>     12.01100000</c><c>      4.00000000</c><c> PAW_PBE C 08Apr2002                    </c></rc>
   </set>
  </array>
 </atominfo>
 <structure name="initialpos" >
  <crystal>
   <varray name="basis" >
    <v>       6.96126624       0.00000000       0.00000000 </v>
    <v>       0.00000000       6.96126624       0.00000000 </v>
    <v>       0.00000000       0.00000000       6.96126624 </v>
   </varray>
   <i name="volume">    337.33758488 </i>
   <varray name="rec_basis" >
    <v>       0.14365203       0.00000000       0.00000000 </v>
    <v>       0.00000000       0.14365203       0.00000000 </v>
    <v>       0.00000000       0.00000000       0.14365203 </v>
   </varray>
  </crystal>
  <varray name="positions" >
   <v>       0.12500000       0.37500000       0.12500000 </v>
   <v>       0.62500000       0.37500000       0.12500000 </v>
   <v>       0.12500000       0.87500000       0.12500000 </v>
   <v>       0.62500000       0.87500000       0.12500000 </v>
   <v>       0.12500000       0.37500000       0.62500000 </v>
   <v>       0.62500000       0.37500000       0.62500000 </v>
   <v>       0.12500000       0.87500000       0.62500000 </v>
   <v>       0.62500000       0.87500000       0.62500000 </v>
   <v>       0.00000000       0.00000000       0.25000000 </v>
   <v>       0.50000000       0.00000000       0.25000000 </v>
   <v>       0.00000000       0.50000000       0.25000000 </v>
   <v>       0.50000000       0.50000000       0.25000000 </v>
   <v>       0.00000000       0.00000000       0.75000000 </v>
   <v>       0.50000000       0.00000000       0.75000000 </v>
   <v>       0.00000000       0.50000000       0.75000000 </v>
   <v>       0.50000000       0.50000000       0.75000000 </v>
   <v>       0.12500000       0.12500000       0.37500000 </v>
   <v>       0.62500000       0.12500000       0.37500000 </v>
   <v>       0.12500000       0.62500000       0.37500000 </v>
   <v>       0.62500000       0.62500000       0.37500000 </v>
   <v>       0.12500000       0.12500000       0.87500000 </v>
   <v>       0.62500000       0.12500000       0.87500000 </v>
   <v>       0.12500000       0.62500000       0.87500000 </v>
   <v>       0.62500000       0.62500000       0.87500000 </v>
   <v>       0.00000000       0.25000000       0.00000000 </v>
   <v>       0.50000000       0.25000000       0.00000000 </v>
   <v>       0.00000000       0.75000000       0.00000000 </v>
   <v>       0.50000000       0.75000000       0.00000000 </v>
   <v>       0.00000000       0.25000000       0.50000000 </v>
   <v>       0.50000000       0.25000000       0.50000000 </v>
   <v>       0.00000000       0.75000000       0.50000000 </v>
   <v>       0.50000000       0.75000000       0.50000000 </v>
   <v>       0.37500000       0.37500000       0.37500000 </v>
   <v>       0.87500000       0.37500000       0.37500000 </v>
   <v>       0.37500000       0.87500000       0.37500000 </v>
   <v>       0.87500000       0.87500000       0.37500000 </v>
   <v>       0.37500000       0.37500000       0.87500000 </v>
   <v>       0.87500000       0.37500000       0.87500000 </v>
   <v>       0.37500000       0.87500000       0.87500000 </v>
   <v>       0.87500000       0.87500000       0.87500000 </v>
   <v>       0.25000000       0.00000000       0.00000000 </v>
   <v>       0.75000000       0.00000000       0.00000000 </v>
   <v>       0.25000000       0.50000000       0.00000000 </v>
   <v>       0.75000000       0.50000000       0.00000000 </v>
   <v>       0.25000000       0.00000000       0.50000000 </v>
   <v>       0.75000000       0.00000000       0.50000000 </v>
   <v>       0.25000000       0.50000000       0.50000000 </v>
   <v>       0.75000000       0.50000000       0.50000000 </v>
   <v>       0.37500000       0.12500000       0.12500000 </v>
   <v>       0.87500000       0.12500000       0.12500000 </v>
   <v>       0.37500000       0.62500000       0.12500000 </v>
   <v>       0.87500000       0.62500000       0.12500000 </v>
   <v>       0.37500000       0.12500000       0.62500000 </v>
   <v>       0.87500000       0.12500000       0.62500000 </v>
   <v>       0.37500000       0.62500000       0.62500000 </v>
   <v>       0.87500000       0.62500000       0.62500000 </v>
   <v>       0.25000000       0.25000000       0.25000000 </v>
   <v>       0.75000000       0.25000000       0.25000000 </v>
   <v>       0.25000000       0.75000000       0.25000000 </v>
   <v>       0.75000000       0.75000000       0.25000000 </v>
   <v>       0.25000000       0.25000000       0.75000000 </v>
   <v>       0.75000000       0.25000000       0.75000000 </v>
   <v>       0.25000000       0.75000000       0.75000000 </v>
   <v>       0.75000000       0.75000000       0.75000000 </v>
  </varray>
 </structure>
 <calculation>
  <scstep>
   <time name="dav">   12.99   13.00</time>
   <time name="total">   13.11   13.14</time>
   <energy>
    <i name="alphaZ">    989.34351435 </i>
    <i name="ewald"> -11410.33925039 </i>
    <i name="hartreedc">   -513.42266140 </i>
    <i name="XCdc">    930.37448523 </i>
    <i name="pawpsdc">   2421.21235816 </i>
    <i name="pawaedc">  -2494.84305711 </i>
    <i name="eentropy">     -0.01338085 </i>
    <i name="bandstr">   1182.67896075 </i>
    <i name="atom">   9416.14232778 </i>
    <i name="e_fr_energy">    521.13329652 </i>
    <i name="e_wo_entrp">    521.14667737 </i>
    <i name="e_0_energy">    521.13998695 </i>
   </energy>
  </scstep>
  <scstep>
   <time name="dav">   16.20   16.20</time>
   <time name="total">   16.20   16.20</time>
   <energy>
    <i name="e_fr_energy">   -564.14848848 </i>
    <i name="e_wo_entrp">   -564.14848848 </i>
    <i name="e_0_energy">   -564.14848848 </i>
   </energy>
  </scstep>
  <scstep>
   <time name="dav">   16.40   16.40</time>
   <time name="total">   16.40   16.40</time>
   <energy>
    <i name="e_fr_energy">   -603.59528160 </i>
    <i name="e_wo_entrp">   -603.59528160 </i>
    <i name="e_0_energy">   -603.59528160 </i>
   </energy>
  </scstep>
  <scstep>
   <time name="dav">   16.01   16.01</time>
   <time name="total">   16.01   16.01</time>
   <energy>
    <i name="e_fr_energy">   -603.96930380 </i>
    <i name="e_wo_entrp">   -603.96930380 </i>
    <i name="e_0_energy">   -603.96930380 </i>
   </energy>
  </scstep>
  <scstep>
   <time name="dav">   15.80   15.80</time>
   <time name="total">   16.33   16.33</time>
   <energy>
    <i name="e_fr_energy">   -603.97682623 </i>
    <i name="e_wo_entrp">   -603.97682623 </i>
    <i name="e_0_energy">   -603.97682623 </i>
   </energy>
  </scstep>
  <scstep>
   <time name="dav">   15.43   15.43</time>
   <time name="total">   16.07   16.07</time>
   <energy>
    <i name="e_fr_energy">   -585.12171010 </i>
    <i name="e_wo_entrp">   -585.12171010 </i>
    <i name="e_0_energy">   -585.12171010 </i>
   </energy>
  </scstep>
  <scstep>
   <time name="dav">   15.61   15.61</time>
   <time name="total">   16.24   16.24</time>
   <energy>
    <i name="e_fr_energy">   -578.77196180 </i>
    <i name="e_wo_entrp">   -578.77196180 </i>
    <i name="e_0_energy">   -578.77196180 </i>
   </energy>
  </scstep>
  <scstep>
   <time name="dav">   15.37   15.37</time>
   <time name="total">   16.01   16.01</time>
   <energy>
    <i name="e_fr_energy">   -578.84070638 </i>
    <i name="e_wo_entrp">   -578.84070638 </i>
    <i name="e_0_energy">   -578.84070638 </i>
   </energy>
  </scstep>
  <scstep>
   <time name="dav">   16.15   16.15</time>
   <time name="total">   16.77   16.77</time>
   <energy>
    <i name="e_fr_energy">   -578.84274645 </i>
    <i name="e_wo_entrp">   -578.84274645 </i>
    <i name="e_0_energy">   -578.84274645 </i>
   </energy>
  </scstep>
  <scstep>
   <time name="dav">   15.27   15.27</time>
   <time name="total">   15.91   15.92</time>
   <energy>
    <i name="e_fr_energy">   -578.84316463 </i>
    <i name="e_wo_entrp">   -578.84316463 </i>
    <i name="e_0_energy">   -578.84316463 </i>
   </energy>
  </scstep>
  <scstep>
   <time name="dav">   16.23   16.23</time>
   <time name="total">   16.85   16.85</time>
   <energy>
    <i name="e_fr_energy">   -578.84317118 </i>
    <i name="e_wo_entrp">   -578.84317118 </i>
    <i name="e_0_energy">   -578.84317118 </i>
   </energy>
  </scstep>
  <scstep>
   <time name="dav">   15.92   15.92</time>
   <time name="total">   16.55   16.55</time>
   <energy>
    <i name="e_fr_energy">   -578.84317086 </i>
    <i name="e_wo_entrp">   -578.84317086 </i>
    <i name="e_0_energy">   -578.84317086 </i>
   </energy>
  </scstep>
  <scstep>
   <time name="dav">   13.13   13.13</time>
   <time name="total">   13.77   13.77</time>
   <energy>
    <i name="e_fr_energy">   -578.84317088 </i>
    <i name="e_wo_entrp">   -578.84317088 </i>
    <i name="e_0_energy">   -578.84317088 </i>
   </energy>
  </scstep>
  <scstep>
   <time name="dav">   11.97   11.97</time>
   <time name="total">   12.59   12.59</time>
   <energy>
    <i name="e_fr_energy">   -578.84317091 </i>
    <i name="e_wo_entrp">   -578.84317091 </i>
    <i name="e_0_energy">   -578.84317091 </i>
   </energy>
  </scstep>
  <scstep>
   <time name="dav">   11.89   11.89</time>
   <time name="total">   12.00   12.01</time>
   <energy>
    <i name="alphaZ">    989.34351435 </i>
    <i name="ewald"> -11410.33925039 </i>
    <i name="hartreedc">   -811.47681713 </i>
    <i name="XCdc">    958.66153780 </i>
    <i name="pawpsdc">   4539.05256612 </i>
    <i name="pawaedc">  -4621.62314477 </i>
    <i name="eentropy">     -0.00000000 </i>
    <i name="bandstr">    361.39609533 </i>
    <i name="atom">   9416.14232778 </i>
    <i name="e_fr_energy">   -578.84317091 </i>
    <i name="e_wo_entrp">   -578.84317091 </i>
    <i name="e_0_energy">   -578.84317091 </i>
   </energy>
  </scstep>
  <structure>
   <crystal>
    <varray name="basis" >
     <v>       6.96126624       0.00000000       0.00000000 </v>
     <v>       0.00000000       6.96126624       0.00000000 </v>
     <v>       0.00000000       0.00000000       6.96126624 </v>
    </varray>
    <i name="volume">    337.33758488 </i>
    <varray name="rec_basis" >
     <v>       0.14365203       0.00000000       0.00000000 </v>
     <v>       0.00000000       0.14365203       0.00000000 </v>
     <v>       0.00000000       0.00000000       0.14365203 </v>
    </varray>
   </crystal>
   <varray name="positions" >
    <v>       0.12500000       0.37500000       0.12500000 </v>
    <v>       0.62500000       0.37500000       0.12500000 </v>
    <v>       0.12500000       0.87500000       0.12500000 </v>
    <v>       0.62500000       0.87500000       0.12500000 </v>
    <v>       0.12500000       0.37500000       0.62500000 </v>
    <v>       0.62500000       0.37500000       0.62500000 </v>
    <v>       0.12500000       0.87500000       0.62500000 </v>
    <v>       0.62500000       0.87500000       0.62500000 </v>
    <v>       0.00000000       0.00000000       0.25000000 </v>
    <v>       0.50000000       0.00000000       0.25000000 </v>
    <v>       0.00000000       0.50000000       0.25000000 </v>
    <v>       0.50000000       0.50000000       0.25000000 </v>
    <v>       0.00000000       0.00000000       0.75000000 </v>
    <v>       0.50000000       0.00000000       0.75000000 </v>
    <v>       0.00000000       0.50000000       0.75000000 </v>
    <v>       0.50000000       0.50000000       0.75000000 </v>
    <v>       0.12500000       0.12500000       0.37500000 </v>
    <v>       0.62500000       0.12500000       0.37500000 </v>
    <v>       0.12500000       0.62500000       0.37500000 </v>
    <v>       0.62500000       0.62500000       0.37500000 </v>
    <v>       0.12500000       0.12500000       0.87500000 </v>
    <v>       0.62500000       0.12500000       0.87500000 </v>
    <v>       0.12500000       0.62500000       0.87500000 </v>
    <v>       0.62500000       0.62500000       0.87500000 </v>
    <v>       0.00000000       0.25000000       0.00000000 </v>
    <v>       0.50000000       0.25000000       0.00000000 </v>
    <v>       0.00000000       0.75000000       0.00000000 </v>
    <v>       0.50000000       0.75000000       0.00000000 </v>
    <v>       0.00000000       0.25000000       0.50000000 </v>
    <v>       0.50000000       0.25000000       0.50000000 </v>
    <v>       0.00000000       0.75000000       0.50000000 </v>
    <v>       0.50000000       0.75000000       0.50000000 </v>
    <v>       0.37500000       0.37500000       0.37500000 </v>
    <v>       0.87500000       0.37500000       0.37500000 </v>
    <v>       0.37500000       0.87500000       0.37500000 </v>
    <v>       0.87500000       0.87500000       0.37500000 </v>
    <v>       0.37500000       0.37500000       0.87500000 </v>
    <v>       0.87500000       0.37500000       0.87500000 </v>
    <v>       0.37500000       0.87500000       0.87500000 </v>
    <v>       0.87500000       0.87500000       0.87500000 </v>
    <v>       0.25000000       0.00000000       0.00000000 </v>
    <v>       0.75000000       0.00000000       0.00000000 </v>
    <v>       0.25000000       0.50000000       0.00000000 </v>
    <v>       0.75000000       0.50000000       0.00000000 </v>
    <v>       0.25000000       0.00000000       0.50000000 </v>
    <v>       0.75000000       0.00000000       0.50000000 </v>
    <v>       0.25000000       0.50000000       0.50000000 </v>
    <v>       0.75000000       0.50000000       0.50000000 </v>
    <v>       0.37500000       0.12500000       0.12500000 </v>
    <v>       0.87500000       0.12500000       0.12500000 </v>
    <v>       0.37500000       0.62500000       0.12500000 </v>
    <v>       0.87500000       0.62500000       0.12500000 </v>
    <v>       0.37500000       0.12500000       0.62500000 </v>
    <v>       0.87500000       0.12500000       0.62500000 </v>
    <v>       0.37500000       0.62500000       0.62500000 </v>
    <v>       0.87500000       0.62500000       0.62500000 </v>
    <v>       0.25000000       0.25000000       0.25000000 </v>
    <v>       0.75000000       0.25000000       0.25000000 </v>
    <v>       0.25000000       0.75000000       0.25000000 </v>
    <v>       0.75000000       0.75000000       0.25000000 </v>
    <v>       0.25000000       0.25000000       0.75000000 </v>
    <v>       0.75000000       0.25000000       0.75000000 </v>
    <v>       0.25000000       0.75000000       0.75000000 </v>
    <v>       0.75000000       0.75000000       0.75000000 </v>
   </varray>
  </structure>
  <varray name="forces" >
   <v>      -0.00000000       0.00000000      -0.00000000 </v>
   <v>      -0.00000000       0.00000000      -0.00000000 </v>
   <v>      -0.00000000      -0.00000000      -0.00000000 </v>
   <v>      -0.00000000       0.00000000       0.00000000 </v>
   <v>       0.00000000      -0.00000000      -0.00000000 </v>
   <v>      -0.00000000       0.00000000      -0.00000000 </v>
   <v>       0.00000000       0.00000000       0.00000000 </v>
   <v>       0.00000000      -0.00000000      -0.00000000 </v>
   <v>      -0.00000000       0.00000000       0.00000000 </v>
   <v>       0.00000000      -0.00000000      -0.00000000 </v>
   <v>       0.00000000      -0.00000000       0.00000000 </v>
   <v>      -0.00000000       0.00000000       0.00000000 </v>
   <v>       0.00000000      -0.00000000      -0.00000000 </v>
   <v>      -0.00000000       0.00000000      -0.00000000 </v>
   <v>      -0.00000000       0.00000000      -0.00000000 </v>
   <v>      -0.00000000      -0.00000000       0.00000000 </v>
   <v>       0.00000000      -0.00000000       0.00000000 </v>
   <v>      -0.00000000       0.00000000      -0.00000000 </v>
   <v>      -0.00000000       0.00000000       0.00000000 </v>
   <v>       0.00000000      -0.00000000      -0.00000000 </v>
   <v>       0.00000000       0.00000000       0.00000000 </v>
   <v>       0.00000000      -0.00000000       0.00000000 </v>
   <v>       0.00000000      -0.00000000      -0.00000000 </v>
   <v>       0.00000000       0.00000000       0.00000000 </v>
   <v>      -0.00000000       0.00000000       0.00000000 </v>
   <v>      -0.00000000       0.00000000       0.00000000 </v>
   <v>      -0.00000000       0.00000000      -0.00000000 </v>
   <v>       0.00000000       0.00000000      -0.00000000 </v>
   <v>      -0.00000000      -0.00000000       0.00000000 </v>
   <v>       0.00000000      -0.00000000       0.00000000 </v>
   <v>       0.00000000      -0.00000000      -0.00000000 </v>
   <v>       0.00000000       0.00000000       0.00000000 </v>
   <v>       0.00000000      -0.00000000       0.00000000 </v>
   <v>      -0.00000000       0.00000000       0.00000000 </v>
   <v>       0.00000000       0.00000000      -0.00000000 </v>
   <v>       0.00000000      -0.00000000      -0.00000000 </v>
   <v>      -0.00000000       0.00000000       0.00000000 </v>
   <v>       0.00000000      -0.00000000       0.00000000 </v>
   <v>       0.00000000      -0.00000000      -0.00000000 </v>
   <v>       0.00000000      -0.00000000      -0.00000000 </v>
   <v>      -0.00000000       0.00000000       0.00000000 </v>
   <v>       0.00000000      -0.00000000       0.00000000 </v>
   <v>       0.00000000       0.00000000      -0.00000000 </v>
   <v>      -0.00000000       0.00000000       0.00000000 </v>
   <v>      -0.00000000      -0.00000000      -0.00000000 </v>
   <v>      -0.00000000      -0.00000000       0.00000000 </v>
   <v>      -0.00000000      -0.00000000       0.00000000 </v>
   <v>       0.00000000      -0.00000000       0.00000000 </v>
   <v>       0.00000000      -0.00000000      -0.00000000 </v>
   <v>      -0.00000000       0.00000000      -0.00000000 </v>
   <v>      -0.00000000      -0.00000000       0.00000000 </v>
   <v>      -0.00000000       0.00000000       0.00000000 </v>
   <v>       0.00000000       0.00000000       0.00000000 </v>
   <v>       0.00000000      -0.00000000       0.00000000 </v>
   <v>       0.00000000      -0.00000000      -0.00000000 </v>
   <v>      -0.00000000       0.00000000      -0.00000000 </v>
   <v>      -0.00000000       0.00000000       0.00000000 </v>
   <v>       0.00000000      -0.00000000      -0.00000000 </v>
   <v>       0.00000000      -0.00000000      -0.00000000 </v>
   <v>      -0.00000000       0.00000000      -0.00000000 </v>
   <v>       0.00000000       0.00000000       0.00000000 </v>
   <v>      -0.00000000       0.00000000       0.00000000 </v>
   <v>      -0.00000000       0.00000000       0.00000000 </v>
   <v>       0.00000000      -0.00000000       0.00000000 </v>
  </varray>
  <varray name="stress" >
   <v>     354.70072400       0.00000000       0.00000000 </v>
   <v>       0.00000000     354.70072400       0.00000000 </v>
   <v>      -0.00000000      -0.00000000     354.70072400 </v>
  </varray>
  <energy>
   <i name="e_fr_energy">   -578.84317091 </i>
   <i name="e_wo_entrp">   -578.84317091 </i>
   <i name="e_0_energy">     -0.00000000 </i>
  </energy>
  <kpoints>
   <generation param="Gamma">
    <v type="int" name="divisions">       6        6        6 </v>
    <v name="usershift">      0.00000000       0.00000000       0.00000000 </v>
    <v name="genvec1">      0.16666667       0.00000000       0.00000000 </v>
    <v name="genvec2">      0.00000000       0.16666667       0.00000000 </v>
    <v name="genvec3">      0.00000000       0.00000000       0.16666667 </v>
    <v name="shift">      0.00000000       0.00000000       0.00000000 </v>
   </generation>
   <varray name="kpointlist" >
    <v>       0.00000000       0.00000000       0.00000000 </v>
    <v>       0.16666667       0.00000000       0.00000000 </v>
    <v>       0.33333333       0.00000000       0.00000000 </v>
    <v>       0.50000000       0.00000000       0.00000000 </v>
    <v>       0.00000000       0.16666667       0.00000000 </v>
    <v>       0.16666667       0.16666667       0.00000000 </v>
    <v>       0.33333333       0.16666667       0.00000000 </v>
    <v>       0.50000000       0.16666667       0.00000000 </v>
    <v>       0.00000000       0.33333333       0.00000000 </v>
    <v>       0.16666667       0.33333333       0.00000000 </v>
    <v>       0.33333333       0.33333333       0.00000000 </v>
    <v>       0.50000000       0.33333333       0.00000000 </v>
    <v>       0.00000000       0.50000000       0.00000000 </v>
    <v>       0.16666667       0.50000000       0.00000000 </v>
    <v>       0.33333333       0.50000000       0.00000000 </v>
    <v>       0.50000000       0.50000000       0.00000000 </v>
    <v>       0.00000000       0.16666667       0.16666667 </v>
    <v>       0.16666667       0.16666667       0.16666667 </v>
    <v>       0.33333333       0.16666667       0.16666667 </v>
    <v>       0.50000000       0.16666667       0.16666667 </v>
    <v>       0.00000000       0.33333333       0.16666667 </v>
    <v>       0.16666667       0.33333333       0.16666667 </v>
    <v>       0.33333333       0.33333333       0.16666667 </v>
    <v>       0.50000000       0.33333333       0.16666667 </v>
    <v>       0.00000000       0.50000000       0.16666667 </v>
    <v>       0.16666667       0.50000000       0.16666667 </v>
    <v>       0.33333333       0.50000000       0.16666667 </v>
    <v>       0.50000000       0.50000000       0.16666667 </v>
    <v>       0.00000000      -0.33333333       0.16666667 </v>
    <v>       0.16666667      -0.33333333       0.16666667 </v>
    <v>       0.33333333      -0.33333333       0.16666667 </v>
    <v>       0.50000000      -0.33333333       0.16666667 </v>
    <v>       0.00000000      -0.16666667       0.16666667 </v>
    <v>       0.16666667      -0.16666667       0.16666667 </v>
    <v>       0.33333333      -0.16666667       0.16666667 </v>
    <v>       0.50000000      -0.16666667       0.16666667 </v>
    <v>       0.00000000       0.33333333       0.33333333 </v>
    <v>       0.16666667       0.33333333       0.33333333 </v>
    <v>       0.33333333       0.33333333       0.33333333 </v>
    <v>       0.50000000       0.33333333       0.33333333 </v>
    <v>       0.00000000       0.50000000       0.33333333 </v>
    <v>       0.16666667       0.50000000       0.33333333 </v>
    <v>       0.33333333       0.50000000       0.33333333 </v>
    <v>       0.50000000       0.50000000       0.33333333 </v>
    <v>       0.00000000      -0.33333333       0.33333333 </v>
    <v>       0.16666667      -0.33333333       0.33333333 </v>
    <v>       0.33333333      -0.33333333       0.33333333 </v>
    <v>       0.50000000      -0.33333333       0.33333333 </v>
    <v>       0.00000000       0.50000000       0.50000000 </v>
    <v>       0.16666667       0.50000000       0.50000000 </v>
    <v>       0.33333333       0.50000000       0.50000000 </v>
    <v>       0.50000000       0.50000000       0.50000000 </v>
   </varray>
   <varray name="weights" >
    <v>       0.00462963 </v>
    <v>       0.00925926 </v>
    <v>       0.00925926 </v>
    <v>       0.00462963 </v>
    <v>       0.01851852 </v>
    <v>       0.03703704 </v>
    <v>       0.03703704 </v>
    <v>       0.01851852 </v>
    <v>       0.01851852 </v>
    <v>       0.03703704 </v>
    <v>       0.03703704 </v>
    <v>       0.01851852 </v>
    <v>       0.00925926 </v>
    <v>       0.01851852 </v>
    <v>       0.01851852 </v>
    <v>       0.00925926 </v>
    <v>       0.00925926 </v>
    <v>       0.01851852 </v>
    <v>       0.01851852 </v>
    <v>       0.00925926 </v>
    <v>       0.01851852 </v>
    <v>       0.03703704 </v>
    <v>       0.03703704 </v>
    <v>       0.01851852 </v>
    <v>       0.01851852 </v>
    <v>       0.03703704 </v>
    <v>       0.03703704 </v>
    <v>       0.01851852 </v>
    <v>       0.01851852 </v>
    <v>       0.03703704 </v>
    <v>       0.03703704 </v>
    <v>       0.01851852 </v>
    <v>       0.00925926 </v>
    <v>       0.01851852 </v>
    <v>       0.01851852 </v>
    <v>       0.00925926 </v>
    <v>       0.00925926 </v>
    <v>       0.01851852 </v>
    <v>       0.01851852 </v>
    <v>       0.00925926 </v>
    <v>       0.01851852 </v>
    <v>       0.03703704 </v>
    <v>       0.03703704 </v>
    <v>       0.01851852 </v>
    <v>       0.00925926 </v>
    <v>       0.01851852 </v>
    <v>       0.01851852 </v>
    <v>       0.00925926 </v>
    <v>       0.00462963 </v>
    <v>       0.00925926 </v>
    <v>       0.00925926 </v>
    <v>       0.00462963 </v>
   </varray>
  </kpoints>
  <scstep>
   <time name="total">   40.82   40.82</time>
   <energy>
    <i name="e_fr_energy">   -378.63001435 </i>
    <i name="e_wo_entrp">   -378.63001435 </i>
    <i name="e_0_energy">   -378.63001435 </i>
   </energy>
  </scstep>
  <scstep>
   <time name="total">   30.78   30.78</time>
   <energy>
    <i name="e_fr_energy">   -318.27020419 </i>
    <i name="e_wo_entrp">   -318.27020419 </i>
    <i name="e_0_energy">   -318.27020419 </i>
   </energy>
  </scstep>
  <scstep>
   <time name="total">   30.92   30.92</time>
   <energy>
    <i name="e_fr_energy">   -317.57926075 </i>
    <i name="e_wo_entrp">   -317.57926075 </i>
    <i name="e_0_energy">   -317.57926075 </i>
   </energy>
  </scstep>
  <scstep>
   <time name="total">   31.95   31.95</time>
   <energy>
    <i name="e_fr_energy">   -318.42084812 </i>
    <i name="e_wo_entrp">   -318.42084812 </i>
    <i name="e_0_energy">   -318.42084812 </i>
   </energy>
  </scstep>
  <scstep>
   <time name="total">   31.02   31.02</time>
   <energy>
    <i name="e_fr_energy">   -318.69440234 </i>
    <i name="e_wo_entrp">   -318.69440234 </i>
    <i name="e_0_energy">   -318.69440234 </i>
   </energy>
  </scstep>
  <scstep>
   <time name="total">   31.12   31.12</time>
   <energy>
    <i name="e_fr_energy">   -318.65743319 </i>
    <i name="e_wo_entrp">   -318.65743319 </i>
    <i name="e_0_energy">   -318.65743319 </i>
   </energy>
  </scstep>
  <scstep>
   <time name="total">   31.68   31.68</time>
   <energy>
    <i name="e_fr_energy">   -318.63619592 </i>
    <i name="e_wo_entrp">   -318.63619592 </i>
    <i name="e_0_energy">   -318.63619592 </i>
   </energy>
  </scstep>
  <scstep>
   <time name="total">   32.42   32.42</time>
   <energy>
    <i name="e_fr_energy">   -318.63489181 </i>
    <i name="e_wo_entrp">   -318.63489181 </i>
    <i name="e_0_energy">   -318.63489181 </i>
   </energy>
  </scstep>
  <scstep>
   <time name="total">   32.28   32.28</time>
   <energy>
    <i name="e_fr_energy">   -318.63424814 </i>
    <i name="e_wo_entrp">   -318.63424814 </i>
    <i name="e_0_energy">   -318.63424814 </i>
   </energy>
  </scstep>
  <scstep>
   <time name="total">   33.10   33.10</time>
   <energy>
    <i name="e_fr_energy">   -318.63436869 </i>
    <i name="e_wo_entrp">   -318.63436869 </i>
    <i name="e_0_energy">   -318.63436869 </i>
   </energy>
  </scstep>
  <scstep>
   <time name="total">   33.32   33.32</time>
   <energy>
    <i name="e_fr_energy">   -318.63436822 </i>
    <i name="e_wo_entrp">   -318.63436822 </i>
    <i name="e_0_energy">   -318.63436822 </i>
   </energy>
  </scstep>
  <scstep>
   <time name="total">   34.29   34.29</time>
   <energy>
    <i name="e_fr_energy">   -318.63440967 </i>
    <i name="e_wo_entrp">   -318.63440967 </i>
    <i name="e_0_energy">   -318.63440967 </i>
   </energy>
  </scstep>
  <kpoints>
   <generation param="Gamma">
    <v type="int" name="divisions">       6        6        6 </v>
    <v name="usershift">      0.00000000       0.00000000       0.00000000 </v>
    <v name="genvec1">      0.16666667       0.00000000       0.00000000 </v>
    <v name="genvec2">      0.00000000       0.16666667       0.00000000 </v>
    <v name="genvec3">      0.00000000       0.00000000       0.16666667 </v>
    <v name="shift">      0.00000000       0.00000000       0.00000000 </v>
   </generation>
   <varray name="kpointlist" >
    <v>       0.00000000       0.00000000       0.00000000 </v>
    <v>       0.16666667       0.00000000       0.00000000 </v>
    <v>       0.33333333       0.00000000       0.00000000 </v>
    <v>       0.50000000       0.00000000       0.00000000 </v>
    <v>       0.16666667       0.16666667       0.00000000 </v>
    <v>       0.33333333       0.16666667       0.00000000 </v>
    <v>       0.50000000       0.16666667       0.00000000 </v>
    <v>       0.33333333       0.33333333       0.00000000 </v>
    <v>       0.50000000       0.33333333       0.00000000 </v>
    <v>       0.50000000       0.50000000       0.00000000 </v>
    <v>       0.16666667       0.16666667       0.16666667 </v>
    <v>       0.33333333       0.16666667       0.16666667 </v>
    <v>       0.50000000       0.16666667       0.16666667 </v>
    <v>       0.33333333       0.33333333       0.16666667 </v>
    <v>       0.50000000       0.33333333       0.16666667 </v>
    <v>       0.50000000       0.50000000       0.16666667 </v>
    <v>       0.33333333       0.33333333       0.33333333 </v>
    <v>       0.50000000       0.33333333       0.33333333 </v>
    <v>       0.50000000       0.50000000       0.33333333 </v>
    <v>       0.50000000       0.50000000       0.50000000 </v>
   </varray>
   <varray name="weights" >
    <v>       0.00462963 </v>
    <v>       0.02777778 </v>
    <v>       0.02777778 </v>
    <v>       0.01388889 </v>
    <v>       0.05555556 </v>
    <v>       0.11111111 </v>
    <v>       0.05555556 </v>
    <v>       0.05555556 </v>
    <v>       0.05555556 </v>
    <v>       0.01388889 </v>
    <v>       0.03703704 </v>
    <v>       0.11111111 </v>
    <v>       0.05555556 </v>
    <v>       0.11111111 </v>
    <v>       0.11111111 </v>
    <v>       0.02777778 </v>
    <v>       0.03703704 </v>
    <v>       0.05555556 </v>
    <v>       0.02777778 </v>
    <v>       0.00462963 </v>
   </varray>
  </kpoints>
  <dynmat>
   <varray name="hessian" >
    <v>      -4.30309271       0.00000000       0.00000000       0.01570713      -0.00000000      -0.00000000       0.00822094      -0.00000000      -0.00000000       0.01213315      -0.00000000      -0.00000000       0.00822094      -0.00000000      -0.00000000       0.01213315       0.00000000       0.00000000      -0.04930578       0.00000000      -0.00000000       0.00490138      -0.00000000       0.00000000      -0.01384543      -0.00813505       0.00370506       0.00827559      -0.01089175      -0.02020560       0.89016645      -0.29679672      -0.29679672      -0.00569250      -0.00813505      -0.00813505       0.02986915      -0.02020560      -0.02020560      -0.00283947      -0.00252956      -0.00252956      -0.01384543       0.00370506      -0.00813505       0.00827559      -0.02020560      -0.01089175      -0.12493432       0.06761707      -0.06761707      -0.00597431       0.00368360      -0.00368360      -0.12493432       0.06761707       0.06761707      -0.00597431       0.00368360       0.00368360      -0.12493432      -0.06761707      -0.06761707      -0.00597431      -0.00368360      -0.00368360      -0.12493432      -0.06761707       0.06761707      -0.00597431      -0.00368360       0.00368360       0.89016645       0.29679672       0.29679672      -0.00569250       0.00813505       0.00813505      -0.01384543       0.00813505      -0.00370506       0.00827559       0.01089175       0.02020560      -0.01384543      -0.00370506       0.00813505       0.00827559       0.02020560       0.01089175       0.02986915       0.02020560       0.02020560      -0.00283947       0.00252956       0.00252956       0.14411665      -0.06761707       0.15054857       0.14411665      -0.06761707      -0.15054857       0.00754091      -0.00368360      -0.00596524       0.00754091      -0.00368360       0.00596524       0.14411665       0.06761707      -0.15054857       0.14411665       0.06761707       0.15054857       0.00754091       0.00368360       0.00596524       0.00754091       0.00368360      -0.00596524      -0.01384543       0.00813505       0.00370506       0.00827559       0.01089175      -0.02020560       0.89016645       0.29679672      -0.29679672      -0.00569250       0.00813505      -0.00813505       0.02986915       0.02020560      -0.02020560      -0.00283947       0.00252956      -0.00252956      -0.01384543      -0.00370506      -0.00813505       0.00827559       0.02020560      -0.01089175       0.14411665      -0.15054857       0.06761707       0.14411665       0.15054857       0.06761707       0.14411665       0.15054857      -0.06761707       0.14411665      -0.15054857      -0.06761707       0.00754091       0.00596524       0.00368360       0.00754091      -0.00596524       0.00368360       0.00754091      -0.00596524      -0.00368360       0.00754091       0.00596524      -0.00368360       0.89016645      -0.29679672       0.29679672      -0.00569250      -0.00813505       0.00813505      -0.01384543      -0.00813505      -0.00370506       0.00827559      -0.01089175       0.02020560      -0.01384543       0.00370506       0.00813505       0.00827559      -0.02020560       0.01089175       0.02986915      -0.02020560       0.02020560      -0.00283947      -0.00252956       0.00252956 </v>
    <v>       0.00000000      -4.30309271       0.00000000      -0.00000000       0.00822094      -0.00000000      -0.00000000       0.01570713      -0.00000000      -0.00000000       0.01213315      -0.00000000      -0.00000000       0.00822094      -0.00000000       0.00000000      -0.04930578      -0.00000000       0.00000000       0.01213315       0.00000000      -0.00000000       0.00490138       0.00000000      -0.00813505      -0.00569250       0.00813505      -0.01089175       0.00827559       0.02020560      -0.29679672       0.89016645       0.29679672      -0.00813505      -0.01384543      -0.00370506      -0.02020560       0.00827559       0.01089175      -0.00252956      -0.00283947       0.00252956       0.00370506      -0.01384543       0.00813505      -0.02020560       0.02986915       0.02020560      -0.06761707       0.14411665      -0.15054857      -0.00368360       0.00754091       0.00596524      -0.06761707       0.14411665       0.15054857      -0.00368360       0.00754091      -0.00596524       0.06761707       0.14411665       0.15054857       0.00368360       0.00754091      -0.00596524       0.06761707       0.14411665      -0.15054857       0.00368360       0.00754091       0.00596524       0.29679672       0.89016645       0.29679672       0.00813505      -0.01384543      -0.00370506       0.00813505      -0.00569250       0.00813505       0.01089175       0.00827559       0.02020560      -0.00370506      -0.01384543       0.00813505       0.02020560       0.02986915       0.02020560       0.02020560       0.00827559       0.01089175       0.00252956      -0.00283947       0.00252956       0.06761707      -0.12493432       0.06761707       0.06761707      -0.12493432      -0.06761707       0.00368360      -0.00597431       0.00368360       0.00368360      -0.00597431      -0.00368360      -0.06761707      -0.12493432       0.06761707      -0.06761707      -0.12493432      -0.06761707      -0.00368360      -0.00597431       0.00368360      -0.00368360      -0.00597431      -0.00368360       0.00813505      -0.00569250      -0.00813505       0.01089175       0.00827559      -0.02020560       0.29679672       0.89016645      -0.29679672       0.00813505      -0.01384543       0.00370506       0.02020560       0.00827559      -0.01089175       0.00252956      -0.00283947      -0.00252956      -0.00370506      -0.01384543      -0.00813505       0.02020560       0.02986915      -0.02020560      -0.15054857       0.14411665      -0.06761707       0.15054857       0.14411665       0.06761707       0.15054857       0.14411665      -0.06761707      -0.15054857       0.14411665       0.06761707       0.00596524       0.00754091      -0.00368360      -0.00596524       0.00754091       0.00368360      -0.00596524       0.00754091      -0.00368360       0.00596524       0.00754091       0.00368360      -0.29679672       0.89016645      -0.29679672      -0.00813505      -0.01384543       0.00370506      -0.00813505      -0.00569250      -0.00813505      -0.01089175       0.00827559      -0.02020560       0.00370506      -0.01384543      -0.00813505      -0.02020560       0.02986915      -0.02020560      -0.02020560       0.00827559      -0.01089175      -0.00252956      -0.00283947      -0.00252956 </v>
    <v>       0.00000000       0.00000000      -4.30309271      -0.00000000      -0.00000000       0.00822094      -0.00000000      -0.00000000       0.00822094      -0.00000000      -0.00000000      -0.04930578      -0.00000000      -0.00000000       0.01570713       0.00000000      -0.00000000       0.01213315      -0.00000000       0.00000000       0.01213315       0.00000000       0.00000000       0.00490138       0.00370506       0.00813505      -0.01384543      -0.02020560       0.02020560       0.02986915      -0.29679672       0.29679672       0.89016645      -0.00813505      -0.00370506      -0.01384543      -0.02020560       0.01089175       0.00827559      -0.00252956       0.00252956      -0.00283947      -0.00813505       0.00813505      -0.00569250      -0.01089175       0.02020560       0.00827559       0.06761707      -0.15054857       0.14411665       0.00368360       0.00596524       0.00754091      -0.06761707       0.15054857       0.14411665      -0.00368360      -0.00596524       0.00754091       0.06761707       0.15054857       0.14411665       0.00368360      -0.00596524       0.00754091      -0.06761707      -0.15054857       0.14411665      -0.00368360       0.00596524       0.00754091       0.29679672       0.29679672       0.89016645       0.00813505      -0.00370506      -0.01384543      -0.00370506       0.00813505      -0.01384543       0.02020560       0.02020560       0.02986915       0.00813505       0.00813505      -0.00569250       0.01089175       0.02020560       0.00827559       0.02020560       0.01089175       0.00827559       0.00252956       0.00252956      -0.00283947       0.15054857      -0.06761707       0.14411665      -0.15054857       0.06761707       0.14411665      -0.00596524      -0.00368360       0.00754091       0.00596524       0.00368360       0.00754091      -0.15054857      -0.06761707       0.14411665       0.15054857       0.06761707       0.14411665       0.00596524      -0.00368360       0.00754091      -0.00596524       0.00368360       0.00754091       0.00370506      -0.00813505      -0.01384543      -0.02020560      -0.02020560       0.02986915      -0.29679672      -0.29679672       0.89016645      -0.00813505       0.00370506      -0.01384543      -0.02020560      -0.01089175       0.00827559      -0.00252956      -0.00252956      -0.00283947      -0.00813505      -0.00813505      -0.00569250      -0.01089175      -0.02020560       0.00827559      -0.06761707       0.06761707      -0.12493432      -0.06761707      -0.06761707      -0.12493432       0.06761707       0.06761707      -0.12493432       0.06761707      -0.06761707      -0.12493432      -0.00368360       0.00368360      -0.00597431      -0.00368360      -0.00368360      -0.00597431       0.00368360       0.00368360      -0.00597431       0.00368360      -0.00368360      -0.00597431       0.29679672      -0.29679672       0.89016645       0.00813505       0.00370506      -0.01384543      -0.00370506      -0.00813505      -0.01384543       0.02020560      -0.02020560       0.02986915       0.00813505      -0.00813505      -0.00569250       0.01089175      -0.02020560       0.00827559       0.02020560      -0.01089175       0.00827559       0.00252956      -0.00252956      -0.00283947 </v>
    <v>       0.01570713      -0.00000000      -0.00000000      -4.30309271       0.00000000       0.00000000       0.01213315      -0.00000000      -0.00000000       0.00822094      -0.00000000      -0.00000000       0.01213315       0.00000000       0.00000000       0.00822094      -0.00000000      -0.00000000       0.00490138      -0.00000000       0.00000000      -0.04930578       0.00000000      -0.00000000       0.00827559      -0.01089175      -0.02020560      -0.01384543      -0.00813505       0.00370506      -0.00569250      -0.00813505      -0.00813505       0.89016645      -0.29679672      -0.29679672      -0.00283947      -0.00252956      -0.00252956       0.02986915      -0.02020560      -0.02020560       0.00827559      -0.02020560      -0.01089175      -0.01384543       0.00370506      -0.00813505      -0.00597431       0.00368360      -0.00368360      -0.12493432       0.06761707      -0.06761707      -0.00597431       0.00368360       0.00368360      -0.12493432       0.06761707       0.06761707      -0.00597431      -0.00368360      -0.00368360      -0.12493432      -0.06761707      -0.06761707      -0.00597431      -0.00368360       0.00368360      -0.12493432      -0.06761707       0.06761707      -0.00569250       0.00813505       0.00813505       0.89016645       0.29679672       0.29679672       0.00827559       0.01089175       0.02020560      -0.01384543       0.00813505      -0.00370506       0.00827559       0.02020560       0.01089175      -0.01384543      -0.00370506       0.00813505      -0.00283947       0.00252956       0.00252956       0.02986915       0.02020560       0.02020560       0.14411665      -0.06761707      -0.15054857       0.14411665      -0.06761707       0.15054857       0.00754091      -0.00368360       0.00596524       0.00754091      -0.00368360      -0.00596524       0.14411665       0.06761707       0.15054857       0.14411665       0.06761707      -0.15054857       0.00754091       0.00368360      -0.00596524       0.00754091       0.00368360       0.00596524       0.00827559       0.01089175      -0.02020560      -0.01384543       0.00813505       0.00370506      -0.00569250       0.00813505      -0.00813505       0.89016645       0.29679672      -0.29679672      -0.00283947       0.00252956      -0.00252956       0.02986915       0.02020560      -0.02020560       0.00827559       0.02020560      -0.01089175      -0.01384543      -0.00370506      -0.00813505       0.14411665       0.15054857       0.06761707       0.14411665      -0.15054857       0.06761707       0.14411665      -0.15054857      -0.06761707       0.14411665       0.15054857      -0.06761707       0.00754091      -0.00596524       0.00368360       0.00754091       0.00596524       0.00368360       0.00754091       0.00596524      -0.00368360       0.00754091      -0.00596524      -0.00368360      -0.00569250      -0.00813505       0.00813505       0.89016645      -0.29679672       0.29679672       0.00827559      -0.01089175       0.02020560      -0.01384543      -0.00813505      -0.00370506       0.00827559      -0.02020560       0.01089175      -0.01384543       0.00370506       0.00813505      -0.00283947      -0.00252956       0.00252956       0.02986915      -0.02020560       0.02020560 </v>
    <v>      -0.00000000       0.00822094      -0.00000000       0.00000000      -4.30309271       0.00000000      -0.00000000       0.01213315      -0.00000000      -0.00000000       0.01570713      -0.00000000       0.00000000      -0.04930578      -0.00000000      -0.00000000       0.00822094      -0.00000000      -0.00000000       0.00490138       0.00000000       0.00000000       0.01213315       0.00000000      -0.01089175       0.00827559       0.02020560      -0.00813505      -0.00569250       0.00813505      -0.00813505      -0.01384543      -0.00370506      -0.29679672       0.89016645       0.29679672      -0.00252956      -0.00283947       0.00252956      -0.02020560       0.00827559       0.01089175      -0.02020560       0.02986915       0.02020560       0.00370506      -0.01384543       0.00813505      -0.00368360       0.00754091       0.00596524      -0.06761707       0.14411665      -0.15054857      -0.00368360       0.00754091      -0.00596524      -0.06761707       0.14411665       0.15054857       0.00368360       0.00754091      -0.00596524       0.06761707       0.14411665       0.15054857       0.00368360       0.00754091       0.00596524       0.06761707       0.14411665      -0.15054857       0.00813505      -0.01384543      -0.00370506       0.29679672       0.89016645       0.29679672       0.01089175       0.00827559       0.02020560       0.00813505      -0.00569250       0.00813505       0.02020560       0.02986915       0.02020560      -0.00370506      -0.01384543       0.00813505       0.00252956      -0.00283947       0.00252956       0.02020560       0.00827559       0.01089175       0.06761707      -0.12493432      -0.06761707       0.06761707      -0.12493432       0.06761707       0.00368360      -0.00597431      -0.00368360       0.00368360      -0.00597431       0.00368360      -0.06761707      -0.12493432      -0.06761707      -0.06761707      -0.12493432       0.06761707      -0.00368360      -0.00597431      -0.00368360      -0.00368360      -0.00597431       0.00368360       0.01089175       0.00827559      -0.02020560       0.00813505      -0.00569250      -0.00813505       0.00813505      -0.01384543       0.00370506       0.29679672       0.89016645      -0.29679672       0.00252956      -0.00283947      -0.00252956       0.02020560       0.00827559      -0.01089175       0.02020560       0.02986915      -0.02020560      -0.00370506      -0.01384543      -0.00813505       0.15054857       0.14411665       0.06761707      -0.15054857       0.14411665      -0.06761707      -0.15054857       0.14411665       0.06761707       0.15054857       0.14411665      -0.06761707      -0.00596524       0.00754091       0.00368360       0.00596524       0.00754091      -0.00368360       0.00596524       0.00754091       0.00368360      -0.00596524       0.00754091      -0.00368360      -0.00813505      -0.01384543       0.00370506      -0.29679672       0.89016645      -0.29679672      -0.01089175       0.00827559      -0.02020560      -0.00813505      -0.00569250      -0.00813505      -0.02020560       0.02986915      -0.02020560       0.00370506      -0.01384543      -0.00813505      -0.00252956      -0.00283947      -0.00252956      -0.02020560       0.00827559      -0.01089175 </v>
    <v>      -0.00000000      -0.00000000       0.00822094       0.00000000       0.00000000      -4.30309271      -0.00000000      -0.00000000      -0.04930578      -0.00000000      -0.00000000       0.00822094       0.00000000      -0.00000000       0.01213315      -0.00000000      -0.00000000       0.01570713       0.00000000       0.00000000       0.00490138      -0.00000000       0.00000000       0.01213315      -0.02020560       0.02020560       0.02986915       0.00370506       0.00813505      -0.01384543      -0.00813505      -0.00370506      -0.01384543      -0.29679672       0.29679672       0.89016645      -0.00252956       0.00252956      -0.00283947      -0.02020560       0.01089175       0.00827559      -0.01089175       0.02020560       0.00827559      -0.00813505       0.00813505      -0.00569250       0.00368360       0.00596524       0.00754091       0.06761707      -0.15054857       0.14411665      -0.00368360      -0.00596524       0.00754091      -0.06761707       0.15054857       0.14411665       0.00368360      -0.00596524       0.00754091       0.06761707       0.15054857       0.14411665      -0.00368360       0.00596524       0.00754091      -0.06761707      -0.15054857       0.14411665       0.00813505      -0.00370506      -0.01384543       0.29679672       0.29679672       0.89016645       0.02020560       0.02020560       0.02986915      -0.00370506       0.00813505      -0.01384543       0.01089175       0.02020560       0.00827559       0.00813505       0.00813505      -0.00569250       0.00252956       0.00252956      -0.00283947       0.02020560       0.01089175       0.00827559      -0.15054857       0.06761707       0.14411665       0.15054857      -0.06761707       0.14411665       0.00596524       0.00368360       0.00754091      -0.00596524      -0.00368360       0.00754091       0.15054857       0.06761707       0.14411665      -0.15054857      -0.06761707       0.14411665      -0.00596524       0.00368360       0.00754091       0.00596524      -0.00368360       0.00754091      -0.02020560      -0.02020560       0.02986915       0.00370506      -0.00813505      -0.01384543      -0.00813505       0.00370506      -0.01384543      -0.29679672      -0.29679672       0.89016645      -0.00252956      -0.00252956      -0.00283947      -0.02020560      -0.01089175       0.00827559      -0.01089175      -0.02020560       0.00827559      -0.00813505      -0.00813505      -0.00569250      -0.06761707      -0.06761707      -0.12493432      -0.06761707       0.06761707      -0.12493432       0.06761707      -0.06761707      -0.12493432       0.06761707       0.06761707      -0.12493432      -0.00368360      -0.00368360      -0.00597431      -0.00368360       0.00368360      -0.00597431       0.00368360      -0.00368360      -0.00597431       0.00368360       0.00368360      -0.00597431       0.00813505       0.00370506      -0.01384543       0.29679672      -0.29679672       0.89016645       0.02020560      -0.02020560       0.02986915      -0.00370506      -0.00813505      -0.01384543       0.01089175      -0.02020560       0.00827559       0.00813505      -0.00813505      -0.00569250       0.00252956      -0.00252956      -0.00283947       0.02020560      -0.01089175       0.00827559 </v>
    <v>       0.00822094      -0.00000000      -0.00000000       0.01213315      -0.00000000      -0.00000000      -4.30309271       0.00000000       0.00000000       0.01570713      -0.00000000      -0.00000000      -0.04930578       0.00000000      -0.00000000       0.00490138      -0.00000000       0.00000000       0.00822094      -0.00000000      -0.00000000       0.01213315       0.00000000       0.00000000       0.89016645      -0.29679672      -0.29679672      -0.00569250      -0.00813505      -0.00813505      -0.01384543      -0.00813505       0.00370506       0.00827559      -0.01089175      -0.02020560      -0.01384543       0.00370506      -0.00813505       0.00827559      -0.02020560      -0.01089175       0.02986915      -0.02020560      -0.02020560      -0.00283947      -0.00252956      -0.00252956      -0.12493432       0.06761707       0.06761707      -0.00597431       0.00368360       0.00368360      -0.12493432       0.06761707      -0.06761707      -0.00597431       0.00368360      -0.00368360      -0.12493432      -0.06761707       0.06761707      -0.00597431      -0.00368360       0.00368360      -0.12493432      -0.06761707      -0.06761707      -0.00597431      -0.00368360      -0.00368360      -0.01384543       0.00813505      -0.00370506       0.00827559       0.01089175       0.02020560       0.89016645       0.29679672       0.29679672      -0.00569250       0.00813505       0.00813505       0.02986915       0.02020560       0.02020560      -0.00283947       0.00252956       0.00252956      -0.01384543      -0.00370506       0.00813505       0.00827559       0.02020560       0.01089175       0.00754091      -0.00368360      -0.00596524       0.00754091      -0.00368360       0.00596524       0.14411665      -0.06761707       0.15054857       0.14411665      -0.06761707      -0.15054857       0.00754091       0.00368360       0.00596524       0.00754091       0.00368360      -0.00596524       0.14411665       0.06761707      -0.15054857       0.14411665       0.06761707       0.15054857       0.89016645       0.29679672      -0.29679672      -0.00569250       0.00813505      -0.00813505      -0.01384543       0.00813505       0.00370506       0.00827559       0.01089175      -0.02020560      -0.01384543      -0.00370506      -0.00813505       0.00827559       0.02020560      -0.01089175       0.02986915       0.02020560      -0.02020560      -0.00283947       0.00252956      -0.00252956       0.14411665       0.15054857      -0.06761707       0.14411665      -0.15054857      -0.06761707       0.14411665      -0.15054857       0.06761707       0.14411665       0.15054857       0.06761707       0.00754091      -0.00596524      -0.00368360       0.00754091       0.00596524      -0.00368360       0.00754091       0.00596524       0.00368360       0.00754091      -0.00596524       0.00368360      -0.01384543      -0.00813505      -0.00370506       0.00827559      -0.01089175       0.02020560       0.89016645      -0.29679672       0.29679672      -0.00569250      -0.00813505       0.00813505       0.02986915      -0.02020560       0.02020560      -0.00283947      -0.00252956       0.00252956      -0.01384543       0.00370506       0.00813505       0.00827559      -0.02020560       0.01089175 </v>
    <v>      -0.00000000       0.01570713      -0.00000000      -0.00000000       0.01213315      -0.00000000       0.00000000      -4.30309271       0.00000000      -0.00000000       0.00822094      -0.00000000       0.00000000       0.01213315       0.00000000      -0.00000000       0.00490138       0.00000000      -0.00000000       0.00822094      -0.00000000       0.00000000      -0.04930578      -0.00000000      -0.29679672       0.89016645       0.29679672      -0.00813505      -0.01384543      -0.00370506      -0.00813505      -0.00569250       0.00813505      -0.01089175       0.00827559       0.02020560       0.00370506      -0.01384543       0.00813505      -0.02020560       0.02986915       0.02020560      -0.02020560       0.00827559       0.01089175      -0.00252956      -0.00283947       0.00252956      -0.06761707       0.14411665       0.15054857      -0.00368360       0.00754091      -0.00596524      -0.06761707       0.14411665      -0.15054857      -0.00368360       0.00754091       0.00596524       0.06761707       0.14411665      -0.15054857       0.00368360       0.00754091       0.00596524       0.06761707       0.14411665       0.15054857       0.00368360       0.00754091      -0.00596524       0.00813505      -0.00569250       0.00813505       0.01089175       0.00827559       0.02020560       0.29679672       0.89016645       0.29679672       0.00813505      -0.01384543      -0.00370506       0.02020560       0.00827559       0.01089175       0.00252956      -0.00283947       0.00252956      -0.00370506      -0.01384543       0.00813505       0.02020560       0.02986915       0.02020560       0.00368360      -0.00597431       0.00368360       0.00368360      -0.00597431      -0.00368360       0.06761707      -0.12493432       0.06761707       0.06761707      -0.12493432      -0.06761707      -0.00368360      -0.00597431       0.00368360      -0.00368360      -0.00597431      -0.00368360      -0.06761707      -0.12493432       0.06761707      -0.06761707      -0.12493432      -0.06761707       0.29679672       0.89016645      -0.29679672       0.00813505      -0.01384543       0.00370506       0.00813505      -0.00569250      -0.00813505       0.01089175       0.00827559      -0.02020560      -0.00370506      -0.01384543      -0.00813505       0.02020560       0.02986915      -0.02020560       0.02020560       0.00827559      -0.01089175       0.00252956      -0.00283947      -0.00252956       0.15054857       0.14411665      -0.06761707      -0.15054857       0.14411665       0.06761707      -0.15054857       0.14411665      -0.06761707       0.15054857       0.14411665       0.06761707      -0.00596524       0.00754091      -0.00368360       0.00596524       0.00754091       0.00368360       0.00596524       0.00754091      -0.00368360      -0.00596524       0.00754091       0.00368360      -0.00813505      -0.00569250      -0.00813505      -0.01089175       0.00827559      -0.02020560      -0.29679672       0.89016645      -0.29679672      -0.00813505      -0.01384543       0.00370506      -0.02020560       0.00827559      -0.01089175      -0.00252956      -0.00283947      -0.00252956       0.00370506      -0.01384543      -0.00813505      -0.02020560       0.02986915      -0.02020560 </v>
    <v>      -0.00000000      -0.00000000       0.00822094      -0.00000000      -0.00000000      -0.04930578       0.00000000       0.00000000      -4.30309271      -0.00000000      -0.00000000       0.00822094      -0.00000000       0.00000000       0.01213315       0.00000000       0.00000000       0.00490138      -0.00000000      -0.00000000       0.01570713       0.00000000      -0.00000000       0.01213315      -0.29679672       0.29679672       0.89016645      -0.00813505      -0.00370506      -0.01384543       0.00370506       0.00813505      -0.01384543      -0.02020560       0.02020560       0.02986915      -0.00813505       0.00813505      -0.00569250      -0.01089175       0.02020560       0.00827559      -0.02020560       0.01089175       0.00827559      -0.00252956       0.00252956      -0.00283947      -0.06761707       0.15054857       0.14411665      -0.00368360      -0.00596524       0.00754091       0.06761707      -0.15054857       0.14411665       0.00368360       0.00596524       0.00754091      -0.06761707      -0.15054857       0.14411665      -0.00368360       0.00596524       0.00754091       0.06761707       0.15054857       0.14411665       0.00368360      -0.00596524       0.00754091      -0.00370506       0.00813505      -0.01384543       0.02020560       0.02020560       0.02986915       0.29679672       0.29679672       0.89016645       0.00813505      -0.00370506      -0.01384543       0.02020560       0.01089175       0.00827559       0.00252956       0.00252956      -0.00283947       0.00813505       0.00813505      -0.00569250       0.01089175       0.02020560       0.00827559      -0.00596524      -0.00368360       0.00754091       0.00596524       0.00368360       0.00754091       0.15054857      -0.06761707       0.14411665      -0.15054857       0.06761707       0.14411665       0.00596524      -0.00368360       0.00754091      -0.00596524       0.00368360       0.00754091      -0.15054857      -0.06761707       0.14411665       0.15054857       0.06761707       0.14411665      -0.29679672      -0.29679672       0.89016645      -0.00813505       0.00370506      -0.01384543       0.00370506      -0.00813505      -0.01384543      -0.02020560      -0.02020560       0.02986915      -0.00813505      -0.00813505      -0.00569250      -0.01089175      -0.02020560       0.00827559      -0.02020560      -0.01089175       0.00827559      -0.00252956      -0.00252956      -0.00283947       0.06761707       0.06761707      -0.12493432       0.06761707      -0.06761707      -0.12493432      -0.06761707       0.06761707      -0.12493432      -0.06761707      -0.06761707      -0.12493432       0.00368360       0.00368360      -0.00597431       0.00368360      -0.00368360      -0.00597431      -0.00368360       0.00368360      -0.00597431      -0.00368360      -0.00368360      -0.00597431      -0.00370506      -0.00813505      -0.01384543       0.02020560      -0.02020560       0.02986915       0.29679672      -0.29679672       0.89016645       0.00813505       0.00370506      -0.01384543       0.02020560      -0.01089175       0.00827559       0.00252956      -0.00252956      -0.00283947       0.00813505      -0.00813505      -0.00569250       0.01089175      -0.02020560       0.00827559 </v>
[...]
      </set>
     </set>
    </set>
   </array>
  </eigenvalues>
  <separator name="orbital magnetization" >
   <v name="MAGDIPOLOUT">      0.00000000      0.00000000      0.00000000</v>
  </separator>
  <dos>
   <i name="efermi">     11.14738217 </i>
   <total>
    <array>
     <dimension dim="1">gridpoints</dimension>
     <dimension dim="2">spin</dimension>
     <field>energy</field>
     <field>total</field>
     <field>integrated</field>
     <set>
      <set comment="spin 1">
       <r>   -13.3810     0.0000     0.0000 </r>
       <r>   -13.2533     0.0000     0.0000 </r>
       <r>   -13.1257     0.0000     0.0000 </r>
       <r>   -12.9980     0.0000     0.0000 </r>
       <r>   -12.8703     0.0000     0.0000 </r>
       <r>   -12.7426     0.0000     0.0000 </r>
       <r>   -12.6150     0.0000     0.0000 </r>
       <r>   -12.4873     0.0000     0.0000 </r>
       <r>   -12.3596     0.0000     0.0000 </r>
       <r>   -12.2320     0.0000     0.0000 </r>
       <r>   -12.1043     0.0000     0.0000 </r>
       <r>   -11.9766     0.0000     0.0000 </r>
       <r>   -11.8490     0.0000     0.0000 </r>
       <r>   -11.7213     0.0021     0.0003 </r>
       <r>   -11.5936     0.2119     0.0273 </r>
       <r>   -11.4660     1.1607     0.1755 </r>
       <r>   -11.3383     1.2883     0.3400 </r>
       <r>   -11.2106     2.7160     0.6867 </r>
       <r>   -11.0830     1.3660     0.8611 </r>
       <r>   -10.9553     3.3540     1.2893 </r>
       <r>   -10.8276     2.6896     1.6327 </r>
       <r>   -10.6999     3.5779     2.0895 </r>
       <r>   -10.5723     2.1764     2.3674 </r>
       <r>   -10.4446     4.3118     2.9178 </r>
       <r>   -10.3169     4.0726     3.4378 </r>
       <r>   -10.1893     4.7514     4.0444 </r>
       <r>   -10.0616     2.2184     4.3276 </r>
       <r>    -9.9339     4.1202     4.8536 </r>
       <r>    -9.8063     6.2520     5.6518 </r>
       <r>    -9.6786     4.8855     6.2756 </r>
       <r>    -9.5509     4.4937     6.8493 </r>
       <r>    -9.4233     3.4375     7.2881 </r>
       <r>    -9.2956     6.5326     8.1221 </r>
       <r>    -9.1679     4.7342     8.7266 </r>
       <r>    -9.0403     5.5355     9.4333 </r>
       <r>    -8.9126     5.4719    10.1319 </r>
       <r>    -8.7849     7.5707    11.0984 </r>
       <r>    -8.6572     5.1540    11.7564 </r>
       <r>    -8.5296     6.0239    12.5255 </r>
       <r>    -8.4019     2.6254    12.8606 </r>
       <r>    -8.2742     8.9160    13.9989 </r>
       <r>    -8.1466     6.4138    14.8178 </r>
       <r>    -8.0189     9.5143    16.0325 </r>
       <r>    -7.8912     5.2193    16.6988 </r>
       <r>    -7.7636     5.8069    17.4402 </r>
       <r>    -7.6359     5.9373    18.1982 </r>
       <r>    -7.5082     9.0235    19.3502 </r>
       <r>    -7.3806     3.8522    19.8420 </r>
       <r>    -7.2529    11.1824    21.2697 </r>
       <r>    -7.1252     7.3783    22.2116 </r>
       <r>    -6.9975     8.3826    23.2818 </r>
       <r>    -6.8699     4.0689    23.8013 </r>
       <r>    -6.7422    12.1589    25.3536 </r>
       <r>    -6.6145     8.7732    26.4737 </r>
       <r>    -6.4869     6.1872    27.2636 </r>
       <r>    -6.3592     6.2431    28.0606 </r>
       <r>    -6.2315     9.4653    29.2691 </r>
       <r>    -6.1039     9.3257    30.4597 </r>
       <r>    -5.9762     9.6909    31.6969 </r>
       <r>    -5.8485    12.4161    33.2820 </r>
       <r>    -5.7209     9.0834    34.4417 </r>
       <r>    -5.5932    10.1514    35.7377 </r>
       <r>    -5.4655     7.2709    36.6660 </r>
       <r>    -5.3379    10.2548    37.9752 </r>
       <r>    -5.2102    10.9421    39.3722 </r>
       <r>    -5.0825    13.7481    41.1274 </r>
       <r>    -4.9548    10.4531    42.4619 </r>
       <r>    -4.8272    12.3426    44.0377 </r>
       <r>    -4.6995     6.9276    44.9221 </r>
       <r>    -4.5718    11.6065    46.4039 </r>
       <r>    -4.4442    12.6043    48.0131 </r>
       <r>    -4.3165     6.7689    48.8773 </r>
       <r>    -4.1888    10.9394    50.2739 </r>
       <r>    -4.0612     7.2250    51.1963 </r>
       <r>    -3.9335     6.4599    52.0210 </r>
       <r>    -3.8058     5.3199    52.7002 </r>
       <r>    -3.6782    14.0344    54.4920 </r>
       <r>    -3.5505     9.3843    55.6901 </r>
       <r>    -3.4228     3.0017    56.0733 </r>
       <r>    -3.2952     8.8185    57.1991 </r>
       <r>    -3.1675    11.2719    58.6382 </r>
       <r>    -3.0398     8.5331    59.7276 </r>
       <r>    -2.9121    11.5770    61.2056 </r>
       <r>    -2.7845     5.7646    61.9416 </r>
       <r>    -2.6568     6.3172    62.7481 </r>
       <r>    -2.5291     6.5540    63.5849 </r>
       <r>    -2.4015     9.6429    64.8160 </r>
       <r>    -2.2738    13.7812    66.5754 </r>
       <r>    -2.1461    10.4265    67.9065 </r>
       <r>    -2.0185     8.2993    68.9661 </r>
       <r>    -1.8908    10.3814    70.2915 </r>
       <r>    -1.7631    10.9425    71.6885 </r>
       <r>    -1.6355     8.4061    72.7617 </r>
       <r>    -1.5078    10.7459    74.1336 </r>
       <r>    -1.3801     8.0692    75.1638 </r>
       <r>    -1.2525    17.7973    77.4359 </r>
       <r>    -1.1248    13.2028    79.1215 </r>
       <r>    -0.9971    11.5525    80.5964 </r>
       <r>    -0.8694    27.4915    84.1062 </r>
       <r>    -0.7418    23.2249    87.0713 </r>
       <r>    -0.6141    13.3674    88.7779 </r>
       <r>    -0.4864     8.0464    89.8052 </r>
       <r>    -0.3588    10.1293    91.0984 </r>
       <r>    -0.2311     7.6111    92.0701 </r>
       <r>    -0.1034     8.5661    93.1637 </r>
       <r>     0.0242    11.5057    94.6326 </r>
       <r>     0.1519     6.6734    95.4846 </r>
       <r>     0.2796     8.9317    96.6249 </r>
       <r>     0.4072    12.1220    98.1725 </r>
       <r>     0.5349    17.6318   100.4235 </r>
       <r>     0.6626     9.7921   101.6737 </r>
       <r>     0.7902     3.9471   102.1776 </r>
       <r>     0.9179     5.9902   102.9424 </r>
       <r>     1.0456    10.7835   104.3191 </r>
       <r>     1.1733    14.2571   106.1393 </r>
       <r>     1.3009    12.0074   107.6723 </r>
       <r>     1.4286    15.2923   109.6246 </r>
       <r>     1.5563    12.7139   111.2478 </r>
       <r>     1.6839    19.7140   113.7646 </r>
       <r>     1.8116    19.1106   116.2045 </r>
       <r>     1.9393    13.1529   117.8837 </r>
       <r>     2.0669    13.3783   119.5917 </r>
       <r>     2.1946    13.8116   121.3550 </r>
       <r>     2.3223     9.7890   122.6047 </r>
       <r>     2.4499    20.0075   125.1590 </r>
       <r>     2.5776    22.9374   128.0874 </r>
       <r>     2.7053    18.2002   130.4110 </r>
       <r>     2.8330     7.9346   131.4240 </r>
       <r>     2.9606    12.3602   133.0020 </r>
       <r>     3.0883    20.8894   135.6690 </r>
       <r>     3.2160    15.9968   137.7113 </r>
       <r>     3.3436    19.8075   140.2401 </r>
       <r>     3.4713    17.0095   142.4116 </r>
       <r>     3.5990    22.4034   145.2719 </r>
       <r>     3.7266    17.8355   147.5489 </r>
       <r>     3.8543    15.9738   149.5883 </r>
       <r>     3.9820    20.7344   152.2354 </r>
       <r>     4.1096    20.5839   154.8633 </r>
       <r>     4.2373    34.9217   159.3217 </r>
       <r>     4.3650    22.5112   162.1957 </r>
       <r>     4.4926    13.7544   163.9517 </r>
       <r>     4.6203    23.6409   166.9699 </r>
       <r>     4.7480    21.8493   169.7594 </r>
       <r>     4.8757    27.1013   173.2194 </r>
       <r>     5.0033    28.3712   176.8415 </r>
       <r>     5.1310    20.9340   179.5141 </r>
       <r>     5.2587    24.7008   182.6677 </r>
       <r>     5.3863    20.1476   185.2399 </r>
       <r>     5.5140    18.7536   187.6341 </r>
       <r>     5.6417    15.4211   189.6029 </r>
       <r>     5.7693    23.6380   192.6207 </r>
       <r>     5.8970    26.2229   195.9686 </r>
       <r>     6.0247    25.4099   199.2126 </r>
       <r>     6.1523    19.2354   201.6684 </r>
       <r>     6.2800    22.9784   204.6020 </r>
       <r>     6.4077    13.7190   206.3535 </r>
       <r>     6.5353    24.8493   209.5260 </r>
       <r>     6.6630    18.5073   211.8888 </r>
       <r>     6.7907    13.8308   213.6546 </r>
       <r>     6.9184    21.6469   216.4182 </r>
       <r>     7.0460    28.1265   220.0091 </r>
       <r>     7.1737    16.4579   222.1102 </r>
       <r>     7.3014    24.0245   225.1774 </r>
       <r>     7.4290    15.8866   227.2056 </r>
       <r>     7.5567    13.7543   228.9616 </r>
       <r>     7.6844    13.9246   230.7394 </r>
       <r>     7.8120    20.2148   233.3202 </r>
       <r>     7.9397    27.6243   236.8469 </r>
       <r>     8.0674    18.8943   239.2591 </r>
       <r>     8.1950     6.6937   240.1137 </r>
       <r>     8.3227     5.9613   240.8748 </r>
       <r>     8.4504    12.3697   242.4540 </r>
       <r>     8.5780    12.2086   244.0127 </r>
       <r>     8.7057    10.6208   245.3686 </r>
       <r>     8.8334    13.0254   247.0316 </r>
       <r>     8.9611     5.1517   247.6893 </r>
       <r>     9.0887     8.0448   248.7163 </r>
       <r>     9.2164     5.7343   249.4484 </r>
       <r>     9.3441     6.0123   250.2160 </r>
       <r>     9.4717     7.5603   251.1812 </r>
       <r>     9.5994     7.2053   252.1011 </r>
       <r>     9.7271     3.8022   252.5865 </r>
       <r>     9.8547     3.3102   253.0091 </r>
       <r>     9.9824     6.8677   253.8859 </r>
       <r>    10.1101     3.6398   254.3506 </r>
       <r>    10.2377     2.2747   254.6410 </r>
       <r>    10.3654     3.0833   255.0347 </r>
       <r>    10.4931     2.8054   255.3928 </r>
       <r>    10.6207     3.1157   255.7906 </r>
       <r>    10.7484     0.6985   255.8798 </r>
       <r>    10.8761     0.8534   255.9887 </r>
       <r>    11.0038     0.0881   256.0000 </r>
       <r>    11.1314     0.0001   256.0000 </r>
       <r>    11.2591     0.0000   256.0000 </r>
       <r>    11.3868     0.0000   256.0000 </r>
       <r>    11.5144     0.0000   256.0000 </r>
       <r>    11.6421     0.0000   256.0000 </r>
       <r>    11.7698     0.0000   256.0000 </r>
       <r>    11.8974     0.0000   256.0000 </r>
       <r>    12.0251     0.0000   256.0000 </r>
       <r>    12.1528     0.0000   256.0000 </r>
       <r>    12.2804     0.0000   256.0000 </r>
       <r>    12.4081     0.0000   256.0000 </r>
       <r>    12.5358     0.0000   256.0000 </r>
       <r>    12.6634     0.0000   256.0000 </r>
       <r>    12.7911     0.0000   256.0000 </r>
       <r>    12.9188     0.0000   256.0000 </r>
       <r>    13.0465     0.0000   256.0000 </r>
       <r>    13.1741     0.0000   256.0000 </r>
       <r>    13.3018     0.0000   256.0000 </r>
       <r>    13.4295     0.0000   256.0000 </r>
       <r>    13.5571     0.0000   256.0000 </r>
       <r>    13.6848     0.0000   256.0000 </r>
       <r>    13.8125     0.0000   256.0000 </r>
       <r>    13.9401     0.0000   256.0000 </r>
       <r>    14.0678     0.0000   256.0000 </r>
       <r>    14.1955     0.0000   256.0000 </r>
       <r>    14.3231     0.0000   256.0000 </r>
       <r>    14.4508     0.0000   256.0000 </r>
       <r>    14.5785     0.0000   256.0000 </r>
       <r>    14.7062     0.0000   256.0000 </r>
       <r>    14.8338     0.0000   256.0000 </r>
       <r>    14.9615     0.0000   256.0000 </r>
       <r>    15.0892     0.0481   256.0061 </r>
       <r>    15.2168     0.9296   256.1248 </r>
       <r>    15.3445     0.7471   256.2202 </r>
       <r>    15.4722     3.0850   256.6141 </r>
       <r>    15.5998     4.3509   257.1695 </r>
       <r>    15.7275     6.8284   258.0413 </r>
       <r>    15.8552     6.2821   258.8433 </r>
       <r>    15.9828     2.2371   259.1289 </r>
       <r>    16.1105     4.5415   259.7088 </r>
       <r>    16.2382     9.8226   260.9628 </r>
       <r>    16.3658    18.3277   263.3027 </r>
       <r>    16.4935     7.9389   264.3162 </r>
       <r>    16.6212    10.4890   265.6553 </r>
       <r>    16.7489    12.2835   267.2236 </r>
       <r>    16.8765    13.3511   268.9281 </r>
       <r>    17.0042    10.6222   270.2842 </r>
       <r>    17.1319    11.8503   271.7971 </r>
       <r>    17.2595    19.4733   274.2833 </r>
       <r>    17.3872    14.3270   276.1124 </r>
       <r>    17.5149    19.4986   278.6017 </r>
       <r>    17.6425    15.2787   280.5523 </r>
       <r>    17.7702    15.5400   282.5363 </r>
       <r>    17.8979    15.3921   284.5014 </r>
       <r>    18.0255    22.7879   287.4107 </r>
       <r>    18.1532    21.8194   290.1964 </r>
       <r>    18.2809    15.0505   292.1179 </r>
       <r>    18.4085    21.1495   294.8180 </r>
       <r>    18.5362    25.3661   298.0564 </r>
       <r>    18.6639    10.7023   299.4228 </r>
       <r>    18.7916    14.8168   301.3144 </r>
       <r>    18.9192    19.2447   303.7714 </r>
       <r>    19.0469    39.4762   308.8113 </r>
       <r>    19.1746    45.3322   314.5988 </r>
       <r>    19.3022    32.6636   318.7689 </r>
       <r>    19.4299    21.3131   321.4899 </r>
       <r>    19.5576    25.5114   324.7469 </r>
       <r>    19.6852    18.1450   327.0635 </r>
       <r>    19.8129    27.8725   330.6219 </r>
       <r>    19.9406    26.9515   334.0628 </r>
       <r>    20.0682    20.7274   336.7090 </r>
       <r>    20.1959    32.4589   340.8530 </r>
       <r>    20.3236    35.4632   345.3806 </r>
       <r>    20.4512    20.9697   348.0578 </r>
       <r>    20.5789    24.0298   351.1256 </r>
       <r>    20.7066    28.8719   354.8117 </r>
       <r>    20.8343    34.4867   359.2145 </r>
       <r>    20.9619    18.1541   361.5322 </r>
       <r>    21.0896    21.5827   364.2877 </r>
       <r>    21.2173    29.0334   367.9943 </r>
       <r>    21.3449    27.0720   371.4506 </r>
       <r>    21.4726    18.2834   373.7848 </r>
       <r>    21.6003    22.7873   376.6940 </r>
       <r>    21.7279    16.7350   378.8306 </r>
       <r>    21.8556    12.2896   380.3996 </r>
       <r>    21.9833     5.9708   381.1619 </r>
       <r>    22.1109     8.9752   382.3077 </r>
       <r>    22.2386     2.9311   382.6819 </r>
       <r>    22.3663     3.2538   383.0973 </r>
       <r>    22.4939     3.5676   383.5528 </r>
       <r>    22.6216     0.6017   383.6296 </r>
       <r>    22.7493     0.0143   383.6314 </r>
       <r>    22.8770     0.8866   383.7446 </r>
       <r>    23.0046     0.2595   383.7778 </r>
       <r>    23.1323     0.2567   383.8105 </r>
       <r>    23.2600     1.4405   383.9945 </r>
       <r>    23.3876     0.0435   384.0000 </r>
       <r>    23.5153     0.0000   384.0000 </r>
       <r>    23.6430     0.0000   384.0000 </r>
       <r>    23.7706     0.0000   384.0000 </r>
       <r>    23.8983     0.0000   384.0000 </r>
       <r>    24.0260     0.0000   384.0000 </r>
       <r>    24.1536     0.0000   384.0000 </r>
       <r>    24.2813     0.0000   384.0000 </r>
       <r>    24.4090     0.0000   384.0000 </r>
       <r>    24.5366     0.0000   384.0000 </r>
       <r>    24.6643     0.0000   384.0000 </r>
       <r>    24.7920     0.0000   384.0000 </r>
       <r>    24.9197     0.0000   384.0000 </r>
      </set>
     </set>
    </array>
   </total>
  </dos>
 </calculation>
 <structure name="finalpos" >
  <crystal>
   <varray name="basis" >
    <v>       6.96126624       0.00000000       0.00000000 </v>
    <v>       0.00000000       6.96126624       0.00000000 </v>
    <v>       0.00000000       0.00000000       6.96126624 </v>
   </varray>
   <i name="volume">    337.33758488 </i>
   <varray name="rec_basis" >
    <v>       0.14365203       0.00000000       0.00000000 </v>
    <v>       0.00000000       0.14365203       0.00000000 </v>
    <v>       0.00000000       0.00000000       0.14365203 </v>
   </varray>
  </crystal>
  <varray name="positions" >
   <v>       0.12500000       0.37500000       0.12500000 </v>
   <v>       0.62500000       0.37500000       0.12500000 </v>
   <v>       0.12500000       0.87500000       0.12500000 </v>
   <v>       0.62500000       0.87500000       0.12500000 </v>
   <v>       0.12500000       0.37500000       0.62500000 </v>
   <v>       0.62500000       0.37500000       0.62500000 </v>
   <v>       0.12500000       0.87500000       0.62500000 </v>
   <v>       0.62500000       0.87500000       0.62500000 </v>
   <v>       0.00000000       0.00000000       0.25000000 </v>
   <v>       0.50000000       0.00000000       0.25000000 </v>
   <v>       0.00000000       0.50000000       0.25000000 </v>
   <v>       0.50000000       0.50000000       0.25000000 </v>
   <v>       0.00000000       0.00000000       0.75000000 </v>
   <v>       0.50000000       0.00000000       0.75000000 </v>
   <v>       0.00000000       0.50000000       0.75000000 </v>
   <v>       0.50000000       0.50000000       0.75000000 </v>
   <v>       0.12500000       0.12500000       0.37500000 </v>
   <v>       0.62500000       0.12500000       0.37500000 </v>
   <v>       0.12500000       0.62500000       0.37500000 </v>
   <v>       0.62500000       0.62500000       0.37500000 </v>
   <v>       0.12500000       0.12500000       0.87500000 </v>
   <v>       0.62500000       0.12500000       0.87500000 </v>
   <v>       0.12500000       0.62500000       0.87500000 </v>
   <v>       0.62500000       0.62500000       0.87500000 </v>
   <v>       0.00000000       0.25000000       0.00000000 </v>
   <v>       0.50000000       0.25000000       0.00000000 </v>
   <v>       0.00000000       0.75000000       0.00000000 </v>
   <v>       0.50000000       0.75000000       0.00000000 </v>
   <v>       0.00000000       0.25000000       0.50000000 </v>
   <v>       0.50000000       0.25000000       0.50000000 </v>
   <v>       0.00000000       0.75000000       0.50000000 </v>
   <v>       0.50000000       0.75000000       0.50000000 </v>
   <v>       0.37500000       0.37500000       0.37500000 </v>
   <v>       0.87500000       0.37500000       0.37500000 </v>
   <v>       0.37500000       0.87500000       0.37500000 </v>
   <v>       0.87500000       0.87500000       0.37500000 </v>
   <v>       0.37500000       0.37500000       0.87500000 </v>
   <v>       0.87500000       0.37500000       0.87500000 </v>
   <v>       0.37500000       0.87500000       0.87500000 </v>
   <v>       0.87500000       0.87500000       0.87500000 </v>
   <v>       0.25000000       0.00000000       0.00000000 </v>
   <v>       0.75000000       0.00000000       0.00000000 </v>
   <v>       0.25000000       0.50000000       0.00000000 </v>
   <v>       0.75000000       0.50000000       0.00000000 </v>
   <v>       0.25000000       0.00000000       0.50000000 </v>
   <v>       0.75000000       0.00000000       0.50000000 </v>
   <v>       0.25000000       0.50000000       0.50000000 </v>
   <v>       0.75000000       0.50000000       0.50000000 </v>
   <v>       0.37500000       0.12500000       0.12500000 </v>
   <v>       0.87500000       0.12500000       0.12500000 </v>
   <v>       0.37500000       0.62500000       0.12500000 </v>
   <v>       0.87500000       0.62500000       0.12500000 </v>
   <v>       0.37500000       0.12500000       0.62500000 </v>
   <v>       0.87500000       0.12500000       0.62500000 </v>
   <v>       0.37500000       0.62500000       0.62500000 </v>
   <v>       0.87500000       0.62500000       0.62500000 </v>
   <v>       0.25000000       0.25000000       0.25000000 </v>
   <v>       0.75000000       0.25000000       0.25000000 </v>
   <v>       0.25000000       0.75000000       0.25000000 </v>
   <v>       0.75000000       0.75000000       0.25000000 </v>
   <v>       0.25000000       0.25000000       0.75000000 </v>
   <v>       0.75000000       0.25000000       0.75000000 </v>
   <v>       0.25000000       0.75000000       0.75000000 </v>
   <v>       0.75000000       0.75000000       0.75000000 </v>
  </varray>
 </structure>
</modeling>
