   8   8   0   0
  0.5782669E+01  0.3589999E-09  0.3589999E-09  0.3589999E-09  0.2000000E-16
  1.000000000000000E-004
  CAR 
 unknown system                          
     22.88377768    -13.39190816  301      9.59780774      1.00000000
    -13.392  0.0000E+00  0.0000E+00
    -13.271  0.0000E+00  0.0000E+00
    -13.150  0.0000E+00  0.0000E+00
    -13.029  0.0000E+00  0.0000E+00
    -12.908  0.0000E+00  0.0000E+00
    -12.787  0.0000E+00  0.0000E+00
    -12.666  0.0000E+00  0.0000E+00
    -12.545  0.0000E+00  0.0000E+00
    -12.425  0.0000E+00  0.0000E+00
    -12.304  0.0000E+00  0.0000E+00
    -12.183  0.0000E+00  0.0000E+00
    -12.062  0.0000E+00  0.0000E+00
    -11.941  0.0000E+00  0.0000E+00
    -11.820  0.0000E+00  0.0000E+00
    -11.699  0.3590E-01  0.5262E-03
    -11.578  0.1561E+00  0.1504E-01
    -11.457  0.2437E+00  0.3924E-01
    -11.336  0.2760E+00  0.7033E-01
    -11.215  0.3241E+00  0.1066E+00
    -11.094  0.3641E+00  0.1487E+00
    -10.974  0.3940E+00  0.1945E+00
    -10.853  0.4256E+00  0.2439E+00
    -10.732  0.4643E+00  0.2977E+00
    -10.611  0.4873E+00  0.3554E+00
    -10.490  0.5110E+00  0.4158E+00
    -10.369  0.5375E+00  0.4791E+00
    -10.248  0.5661E+00  0.5458E+00
    -10.127  0.5933E+00  0.6160E+00
    -10.006  0.6129E+00  0.6889E+00
     -9.885  0.6341E+00  0.7642E+00
     -9.764  0.6580E+00  0.8424E+00
     -9.643  0.6832E+00  0.9234E+00
     -9.523  0.7108E+00  0.1008E+01
     -9.402  0.7257E+00  0.1095E+01
     -9.281  0.7420E+00  0.1184E+01
     -9.160  0.7600E+00  0.1274E+01
     -9.039  0.7796E+00  0.1367E+01
     -8.918  0.8001E+00  0.1463E+01
     -8.797  0.8232E+00  0.1561E+01
     -8.676  0.8448E+00  0.1662E+01
     -8.555  0.8614E+00  0.1765E+01
     -8.434  0.8822E+00  0.1871E+01
     -8.313  0.9020E+00  0.1978E+01
     -8.192  0.9214E+00  0.2089E+01
     -8.071  0.9412E+00  0.2201E+01
     -7.951  0.9609E+00  0.2316E+01
     -7.830  0.1033E+01  0.2438E+01
     -7.709  0.1101E+01  0.2566E+01
     -7.588  0.1112E+01  0.2700E+01
     -7.467  0.1095E+01  0.2834E+01
     -7.346  0.1054E+01  0.2964E+01
     -7.225  0.1051E+01  0.3089E+01
     -7.104  0.1077E+01  0.3218E+01
     -6.983  0.1091E+01  0.3349E+01
     -6.862  0.1103E+01  0.3481E+01
     -6.741  0.1162E+01  0.3618E+01
     -6.620  0.1204E+01  0.3762E+01
     -6.500  0.1301E+01  0.3912E+01
     -6.379  0.1314E+01  0.4071E+01
     -6.258  0.1391E+01  0.4234E+01
     -6.137  0.1505E+01  0.4410E+01
     -6.016  0.1606E+01  0.4598E+01
     -5.895  0.1605E+01  0.4795E+01
     -5.774  0.1521E+01  0.4985E+01
     -5.653  0.1427E+01  0.5161E+01
     -5.532  0.1466E+01  0.5334E+01
     -5.411  0.1423E+01  0.5512E+01
     -5.290  0.1402E+01  0.5681E+01
     -5.169  0.1360E+01  0.5851E+01
     -5.049  0.1244E+01  0.6008E+01
     -4.928  0.1242E+01  0.6158E+01
     -4.807  0.1216E+01  0.6307E+01
     -4.686  0.1174E+01  0.6452E+01
     -4.565  0.1120E+01  0.6590E+01
     -4.444  0.1065E+01  0.6722E+01
     -4.323  0.1152E+01  0.6858E+01
     -4.202  0.1035E+01  0.6991E+01
     -4.081  0.1013E+01  0.7115E+01
     -3.960  0.9838E+00  0.7235E+01
     -3.839  0.9504E+00  0.7352E+01
     -3.718  0.9069E+00  0.7465E+01
     -3.597  0.8494E+00  0.7569E+01
     -3.477  0.1003E+01  0.7681E+01
     -3.356  0.9286E+00  0.7798E+01
     -3.235  0.9892E+00  0.7917E+01
     -3.114  0.9368E+00  0.8037E+01
     -2.993  0.9408E+00  0.8153E+01
     -2.872  0.9662E+00  0.8269E+01
     -2.751  0.9471E+00  0.8385E+01
     -2.630  0.9624E+00  0.8499E+01
     -2.509  0.1073E+01  0.8621E+01
     -2.388  0.1290E+01  0.8763E+01
     -2.267  0.1510E+01  0.8930E+01
     -2.146  0.1786E+01  0.9129E+01
     -2.026  0.2159E+01  0.9365E+01
     -1.905  0.2678E+01  0.9660E+01
     -1.784  0.2853E+01  0.1000E+02
     -1.663  0.2598E+01  0.1035E+02
     -1.542  0.2033E+01  0.1062E+02
     -1.421  0.1779E+01  0.1085E+02
     -1.300  0.1659E+01  0.1106E+02
     -1.179  0.1554E+01  0.1125E+02
     -1.058  0.1469E+01  0.1143E+02
     -0.937  0.1402E+01  0.1161E+02
     -0.816  0.1376E+01  0.1177E+02
     -0.695  0.1343E+01  0.1194E+02
     -0.574  0.1303E+01  0.1210E+02
     -0.454  0.1290E+01  0.1225E+02
     -0.333  0.1130E+01  0.1241E+02
     -0.212  0.1104E+01  0.1254E+02
     -0.091  0.1088E+01  0.1267E+02
      0.030  0.1075E+01  0.1280E+02
      0.151  0.1063E+01  0.1293E+02
      0.272  0.1020E+01  0.1306E+02
      0.393  0.1123E+01  0.1318E+02
      0.514  0.1416E+01  0.1334E+02
      0.635  0.1703E+01  0.1353E+02
      0.756  0.1965E+01  0.1375E+02
      0.877  0.2278E+01  0.1401E+02
      0.997  0.2199E+01  0.1428E+02
      1.118  0.2151E+01  0.1455E+02
      1.239  0.2226E+01  0.1481E+02
      1.360  0.2298E+01  0.1508E+02
      1.481  0.2028E+01  0.1535E+02
      1.602  0.1559E+01  0.1557E+02
      1.723  0.1506E+01  0.1575E+02
      1.844  0.1727E+01  0.1595E+02
      1.965  0.2038E+01  0.1617E+02
      2.086  0.2252E+01  0.1643E+02
      2.207  0.2378E+01  0.1672E+02
      2.328  0.2426E+01  0.1701E+02
      2.448  0.2316E+01  0.1729E+02
      2.569  0.2346E+01  0.1757E+02
      2.690  0.2516E+01  0.1786E+02
      2.811  0.2748E+01  0.1818E+02
      2.932  0.3049E+01  0.1853E+02
      3.053  0.2926E+01  0.1891E+02
      3.174  0.2388E+01  0.1923E+02
      3.295  0.2750E+01  0.1952E+02
      3.416  0.2739E+01  0.1987E+02
      3.537  0.2774E+01  0.2020E+02
      3.658  0.3185E+01  0.2056E+02
      3.779  0.3923E+01  0.2099E+02
      3.900  0.3695E+01  0.2148E+02
      4.020  0.3324E+01  0.2189E+02
      4.141  0.2804E+01  0.2227E+02
      4.262  0.2593E+01  0.2259E+02
      4.383  0.2824E+01  0.2291E+02
      4.504  0.2924E+01  0.2328E+02
      4.625  0.2822E+01  0.2361E+02
      4.746  0.3008E+01  0.2397E+02
      4.867  0.2945E+01  0.2433E+02
      4.988  0.3041E+01  0.2469E+02
      5.109  0.3069E+01  0.2506E+02
      5.230  0.3091E+01  0.2543E+02
      5.351  0.2879E+01  0.2580E+02
      5.471  0.2555E+01  0.2612E+02
      5.592  0.2375E+01  0.2641E+02
      5.713  0.2466E+01  0.2671E+02
      5.834  0.2649E+01  0.2701E+02
      5.955  0.2743E+01  0.2734E+02
      6.076  0.2852E+01  0.2769E+02
      6.197  0.2786E+01  0.2803E+02
      6.318  0.2597E+01  0.2836E+02
      6.439  0.2605E+01  0.2867E+02
      6.560  0.2438E+01  0.2898E+02
      6.681  0.2774E+01  0.2929E+02
      6.802  0.2168E+01  0.2959E+02
      6.922  0.1950E+01  0.2984E+02
      7.043  0.1747E+01  0.3006E+02
      7.164  0.1549E+01  0.3026E+02
      7.285  0.1419E+01  0.3044E+02
      7.406  0.1337E+01  0.3061E+02
      7.527  0.1247E+01  0.3076E+02
      7.648  0.1163E+01  0.3091E+02
      7.769  0.1039E+01  0.3104E+02
      7.890  0.9401E+00  0.3116E+02
      8.011  0.8917E+00  0.3127E+02
      8.132  0.8422E+00  0.3138E+02
      8.253  0.7814E+00  0.3148E+02
      8.374  0.7024E+00  0.3157E+02
      8.494  0.6242E+00  0.3165E+02
      8.615  0.5591E+00  0.3172E+02
      8.736  0.5340E+00  0.3178E+02
      8.857  0.4146E+00  0.3184E+02
      8.978  0.3523E+00  0.3189E+02
      9.099  0.3865E+00  0.3193E+02
      9.220  0.2059E+00  0.3197E+02
      9.341  0.1163E+00  0.3199E+02
      9.462  0.1148E-01  0.3200E+02
      9.583  0.0000E+00  0.3200E+02
      9.704  0.0000E+00  0.3200E+02
      9.825  0.0000E+00  0.3200E+02
      9.945  0.0000E+00  0.3200E+02
     10.066  0.0000E+00  0.3200E+02
     10.187  0.0000E+00  0.3200E+02
     10.308  0.0000E+00  0.3200E+02
     10.429  0.0000E+00  0.3200E+02
     10.550  0.0000E+00  0.3200E+02
     10.671  0.0000E+00  0.3200E+02
     10.792  0.0000E+00  0.3200E+02
     10.913  0.0000E+00  0.3200E+02
     11.034  0.0000E+00  0.3200E+02
     11.155  0.0000E+00  0.3200E+02
     11.276  0.0000E+00  0.3200E+02
     11.396  0.0000E+00  0.3200E+02
     11.517  0.0000E+00  0.3200E+02
     11.638  0.0000E+00  0.3200E+02
     11.759  0.0000E+00  0.3200E+02
     11.880  0.0000E+00  0.3200E+02
     12.001  0.0000E+00  0.3200E+02
     12.122  0.0000E+00  0.3200E+02
     12.243  0.0000E+00  0.3200E+02
     12.364  0.0000E+00  0.3200E+02
     12.485  0.0000E+00  0.3200E+02
     12.606  0.0000E+00  0.3200E+02
     12.727  0.0000E+00  0.3200E+02
     12.848  0.0000E+00  0.3200E+02
     12.968  0.0000E+00  0.3200E+02
     13.089  0.0000E+00  0.3200E+02
     13.210  0.0000E+00  0.3200E+02
     13.331  0.0000E+00  0.3200E+02
     13.452  0.0000E+00  0.3200E+02
     13.573  0.1305E-02  0.3200E+02
     13.694  0.1086E+00  0.3201E+02
     13.815  0.2991E+00  0.3203E+02
     13.936  0.5784E+00  0.3208E+02
     14.057  0.6351E+00  0.3216E+02
     14.178  0.6569E+00  0.3224E+02
     14.299  0.7708E+00  0.3232E+02
     14.419  0.8639E+00  0.3242E+02
     14.540  0.1137E+01  0.3255E+02
     14.661  0.1308E+01  0.3270E+02
     14.782  0.1572E+01  0.3287E+02
     14.903  0.1528E+01  0.3306E+02
     15.024  0.1532E+01  0.3324E+02
     15.145  0.1562E+01  0.3343E+02
     15.266  0.1630E+01  0.3362E+02
     15.387  0.1740E+01  0.3382E+02
     15.508  0.1988E+01  0.3405E+02
     15.629  0.2256E+01  0.3431E+02
     15.750  0.2239E+01  0.3458E+02
     15.870  0.2109E+01  0.3484E+02
     15.991  0.2137E+01  0.3510E+02
     16.112  0.2123E+01  0.3536E+02
     16.233  0.2201E+01  0.3562E+02
     16.354  0.2369E+01  0.3589E+02
     16.475  0.2547E+01  0.3619E+02
     16.596  0.2722E+01  0.3651E+02
     16.717  0.2826E+01  0.3685E+02
     16.838  0.2944E+01  0.3720E+02
     16.959  0.3108E+01  0.3756E+02
     17.080  0.3232E+01  0.3795E+02
     17.201  0.3462E+01  0.3835E+02
     17.322  0.3942E+01  0.3880E+02
     17.442  0.4184E+01  0.3929E+02
     17.563  0.4816E+01  0.3984E+02
     17.684  0.3787E+01  0.4035E+02
     17.805  0.3345E+01  0.4079E+02
     17.926  0.3682E+01  0.4118E+02
     18.047  0.4085E+01  0.4165E+02
     18.168  0.3884E+01  0.4215E+02
     18.289  0.3803E+01  0.4261E+02
     18.410  0.3708E+01  0.4307E+02
     18.531  0.4014E+01  0.4352E+02
     18.652  0.3363E+01  0.4396E+02
     18.773  0.2894E+01  0.4433E+02
     18.893  0.2723E+01  0.4467E+02
     19.014  0.2609E+01  0.4499E+02
     19.135  0.2670E+01  0.4530E+02
     19.256  0.2692E+01  0.4563E+02
     19.377  0.2844E+01  0.4596E+02
     19.498  0.2889E+01  0.4632E+02
     19.619  0.2753E+01  0.4666E+02
     19.740  0.2567E+01  0.4698E+02
     19.861  0.2255E+01  0.4727E+02
     19.982  0.1780E+01  0.4751E+02
     20.103  0.1244E+01  0.4770E+02
     20.224  0.7667E+00  0.4782E+02
     20.344  0.4089E+00  0.4789E+02
     20.465  0.2763E+00  0.4793E+02
     20.586  0.1797E+00  0.4796E+02
     20.707  0.1224E+00  0.4797E+02
     20.828  0.8060E-01  0.4799E+02
     20.949  0.4999E-01  0.4799E+02
     21.070  0.2597E-01  0.4800E+02
     21.191  0.2301E-02  0.4800E+02
     21.312  0.0000E+00  0.4800E+02
     21.433  0.0000E+00  0.4800E+02
     21.554  0.0000E+00  0.4800E+02
     21.675  0.0000E+00  0.4800E+02
     21.796  0.0000E+00  0.4800E+02
     21.916  0.0000E+00  0.4800E+02
     22.037  0.0000E+00  0.4800E+02
     22.158  0.0000E+00  0.4800E+02
     22.279  0.0000E+00  0.4800E+02
     22.400  0.0000E+00  0.4800E+02
     22.521  0.0000E+00  0.4800E+02
     22.642  0.0000E+00  0.4800E+02
     22.763  0.0000E+00  0.4800E+02
     22.884  0.0000E+00  0.4800E+02
