    8    8    1    1
  0.5782669E+01  0.3589999E-09  0.3589999E-09  0.3589999E-09  0.2000000E-16
  1.000000000000000E-004
  CAR 
 unknown system                          
     32    189     24
 
  0.0000000E+00  0.0000000E+00  0.0000000E+00  0.5787037E-03
    1      -11.743013   1.000000
    2       -3.209626   1.000000
    3       -3.209625   1.000000
    4       -3.209625   1.000000
    5       -3.097966   1.000000
    6       -3.097964   1.000000
    7       -3.097964   1.000000
    8        3.202924   1.000000
    9        3.202924   1.000000
   10        3.202926   1.000000
   11        3.393608   1.000000
   12        3.393608   1.000000
   13        3.393609   1.000000
   14        9.500790   1.000000
   15        9.508255   1.000000
   16        9.508256   1.000000
   17       14.008551   0.000000
   18       14.008552   0.000000
   19       14.008555   0.000000
   20       14.391155   0.000000
   21       14.391155   0.000000
   22       14.391156   0.000000
   23       14.728417   0.000000
   24       15.188012   0.000000
 
  0.8333333E-01  0.1639536E-18 -0.2061755E-18  0.3472222E-02
    1      -11.679721   1.000000
    2       -4.436409   1.000000
    3       -3.174083   1.000000
    4       -3.174082   1.000000
    5       -3.054190   1.000000
    6       -3.054189   1.000000
    7       -1.811831   1.000000
    8        3.067226   1.000000
    9        3.067227   1.000000
   10        3.252545   1.000000
   11        3.252546   1.000000
   12        3.264123   1.000000
   13        3.455868   1.000000
   14        9.233208   1.000000
   15        9.258423   1.000000
   16        9.341944   1.000000
   17       13.820858   0.000000
   18       14.266422   0.000000
   19       14.266423   0.000000
   20       14.652779   0.000000
   21       14.652780   0.000000
   22       14.727238   0.000000
   23       14.852927   0.000000
   24       15.327723   0.000000
 
  0.1666667E+00  0.1884088E-18 -0.8407220E-19  0.3472222E-02
    1      -11.490047   1.000000
    2       -5.641632   1.000000
    3       -3.071143   1.000000
    4       -3.071142   1.000000
    5       -2.928691   1.000000
    6       -2.928690   1.000000
    7       -0.431355   1.000000
    8        2.710323   1.000000
    9        2.710323   1.000000
   10        2.875130   1.000000
   11        2.875130   1.000000
   12        3.449838   1.000000
   13        3.638677   1.000000
   14        8.570672   1.000000
   15        8.637355   1.000000
   16        8.871965   1.000000
   17       13.638557   0.000000
   18       14.800901   0.000000
   19       14.992618   0.000000
   20       14.992619   0.000000
   21       15.356507   0.000000
   22       15.391161   0.000000
   23       15.391171   0.000000
   24       16.040906   0.000000
 
  0.2500000E+00  0.5692028E-18 -0.2791250E-18  0.3472222E-02
    1      -11.174678   1.000000
    2       -6.758708   1.000000
    3       -2.914575   1.000000
    4       -2.914575   1.000000
    5       -2.740142   1.000000
    6       -2.740142   1.000000
    7        0.965032   1.000000
    8        2.239822   1.000000
    9        2.239823   1.000000
   10        2.371126   1.000000
   11        2.371127   1.000000
   12        3.756224   1.000000
   13        3.941004   1.000000
   14        7.750612   1.000000
   15        7.850975   1.000000
   16        8.156686   1.000000
   17       13.562325   0.000000
   18       14.608387   0.000000
   19       16.080668   0.000000
   20       16.080669   0.000000
   21       16.169929   0.000000
   22       16.492450   0.000000
   23       16.492454   0.000000
   24       17.112587   0.000000
 
  0.3333333E+00  0.8263514E-19 -0.2795828E-18  0.3472222E-02
    1      -10.734794   1.000000
    2       -7.777323   1.000000
    3       -2.734519   1.000000
    4       -2.734519   1.000000
    5       -2.523928   1.000000
    6       -2.523928   1.000000
    7        1.775965   1.000000
    8        1.775965   1.000000
    9        1.867957   1.000000
   10        1.867958   1.000000
   11        2.349895   1.000000
   12        4.180561   1.000000
   13        4.359440   1.000000
   14        6.900240   1.000000
   15        7.028898   1.000000
   16        7.240449   1.000000
   17       13.584443   0.000000
   18       14.366003   0.000000
   19       17.163059   0.000000
   20       17.408956   0.000000
   21       17.408957   0.000000
   22       17.830978   0.000000
   23       17.831030   0.000000
   24       18.312369   0.000000
 
  0.4166667E+00  0.7576116E-18 -0.5577921E-18  0.3472222E-02
    1      -10.172145   1.000000
    2       -8.689468   1.000000
    3       -2.582668   1.000000
    4       -2.582667   1.000000
    5       -2.340056   1.000000
    6       -2.340056   1.000000
    7        1.437141   1.000000
    8        1.437141   1.000000
    9        1.483589   1.000000
   10        1.483590   1.000000
   11        3.696836   1.000000
   12        4.717762   1.000000
   13        4.890560   1.000000
   14        6.088220   1.000000
   15        6.176252   1.000000
   16        6.241326   1.000000
   17       13.694778   0.000000
   18       14.111055   0.000000
   19       18.321681   0.000000
   20       18.846636   0.000000
   21       18.846642   0.000000
   22       19.254565   0.000000
   23       19.262625   0.000000
   24       19.574013   0.000000
 
  0.5000000E+00  0.1138406E-17 -0.5582499E-18  0.1736111E-02
    1       -9.489236   1.000000
    2       -9.489236   1.000000
    3       -2.521634   1.000000
    4       -2.521634   1.000000
    5       -2.265264   1.000000
    6       -2.265264   1.000000
    7        1.322193   1.000000
    8        1.322193   1.000000
    9        1.325893   1.000000
   10        1.325893   1.000000
   11        4.978259   1.000000
   12        4.978259   1.000000
   13        5.360469   1.000000
   14        5.360469   1.000000
   15        5.521539   1.000000
   16        5.521539   1.000000
   17       13.877921   0.000000
   18       13.877921   0.000000
   19       19.586941   0.000000
   20       19.586943   0.000000
   21       19.897936   0.000000
   22       19.898037   0.000000
   23       20.140063   0.000000
   24       20.140670   0.000000
 
  0.8333333E-01  0.8333333E-01 -0.4125353E-18  0.3472222E-02
    1      -11.617830   1.000000
    2       -4.371772   1.000000
    3       -4.371771   1.000000
    4       -3.181636   1.000000
    5       -2.977109   1.000000
    6       -1.807451   1.000000
    7       -1.807449   1.000000
    8        2.600949   1.000000
    9        3.142020   1.000000
   10        3.142022   1.000000
   11        3.316374   1.000000
   12        3.316374   1.000000
   13        3.497131   1.000000
   14        8.782307   1.000000
   15        8.986899   1.000000
   16        9.426840   1.000000
   17       14.080424   0.000000
   18       14.080427   0.000000
   19       14.491961   0.000000
   20       14.891832   0.000000
   21       14.974667   0.000000
   22       14.974668   0.000000
   23       15.213342   0.000000
   24       15.311442   0.000000
 
  0.1666667E+00  0.8333333E-01 -0.8853397E-18  0.6944444E-02
    1      -11.429673   1.000000
    2       -5.573854   1.000000
    3       -4.214362   1.000000
    4       -3.130804   1.000000
    5       -2.819573   1.000000
    6       -1.758285   1.000000
    7       -0.453054   1.000000
    8        2.018689   1.000000
    9        2.777688   1.000000
   10        2.970728   1.000000
   11        3.341669   1.000000
   12        3.459577   1.000000
   13        3.513315   1.000000
   14        8.045868   1.000000
   15        8.358968   1.000000
   16        9.152038   1.000000
   17       13.898247   0.000000
   18       14.819480   0.000000
   19       14.851551   0.000000
   20       15.137202   0.000000
   21       15.588777   0.000000
   22       15.685952   0.000000
   23       15.894068   0.000000
   24       16.068324   0.000000
 
  0.2500000E+00  0.8333333E-01 -0.4966075E-18  0.6944444E-02
    1      -11.115924   1.000000
    2       -6.689374   1.000000
    3       -3.973632   1.000000
    4       -3.053454   1.000000
    5       -2.588794   1.000000
    6       -1.691348   1.000000
    7        0.897771   1.000000
    8        1.442199   1.000000
    9        2.252869   1.000000
   10        2.558410   1.000000
   11        3.187137   1.000000
   12        3.662547   1.000000
   13        3.848810   1.000000
   14        7.203225   1.000000
   15        7.571603   1.000000
   16        8.560549   1.000000
   17       13.820062   0.000000
   18       14.928416   0.000000
   19       15.673344   0.000000
   20       15.924877   0.000000
   21       16.383912   0.000000
   22       16.753657   0.000000
   23       17.142878   0.000000
   24       17.183299   0.000000
 
  0.3333333E+00  0.8333333E-01 -0.8862553E-18  0.6944444E-02
    1      -10.677806   1.000000
    2       -7.707361   1.000000
    3       -3.669117   1.000000
    4       -3.004314   1.000000
    5       -2.302098   1.000000
    6       -1.654842   1.000000
    7        0.994159   1.000000
    8        1.683968   1.000000
    9        2.201841   1.000000
   10        2.208762   1.000000
   11        2.790360   1.000000
   12        4.097327   1.000000
   13        4.339731   1.000000
   14        6.327579   1.000000
   15        6.748417   1.000000
   16        7.741697   1.000000
   17       13.839598   0.000000
   18       14.680422   0.000000
   19       16.835317   0.000000
   20       17.273552   0.000000
   21       17.358814   0.000000
   22       18.044399   0.000000
   23       18.327103   0.000000
   24       18.424715   0.000000
 
  0.4166667E+00  0.8333333E-01 -0.7752747E-18  0.6944444E-02
    1      -10.117123   1.000000
    2       -8.619543   1.000000
    3       -3.337005   1.000000
    4       -3.051833   1.000000
    5       -1.992025   1.000000
    6       -1.707136   1.000000
    7        0.783442   1.000000
    8        1.185318   1.000000
    9        2.029960   1.000000
   10        2.391336   1.000000
   11        3.404154   1.000000
   12        4.637540   1.000000
   13        5.009034   1.000000
   14        5.443779   1.000000
   15        5.953660   1.000000
   16        6.791341   1.000000
   17       13.944264   0.000000
   18       14.421712   0.000000
   19       18.192276   0.000000
   20       18.497588   0.000000
   21       18.753566   0.000000
   22       19.314483   0.000000
   23       19.537162   0.000000
   24       19.648208   0.000000
 
  0.5000000E+00  0.8333333E-01 -0.1554112E-17  0.6944444E-02
    1       -9.436439   1.000000
    2       -9.419706   1.000000
    3       -3.230903   1.000000
    4       -3.039530   1.000000
    5       -1.878621   1.000000
    6       -1.713492   1.000000
    7        0.858124   1.000000
    8        0.860356   1.000000
    9        2.076055   1.000000
   10        2.099264   1.000000
   11        4.466297   1.000000
   12        4.521068   1.000000
   13        5.223371   1.000000
   14        5.275526   1.000000
   15        5.825604   1.000000
   16        5.858390   1.000000
   17       14.121833   0.000000
   18       14.185363   0.000000
   19       19.146748   0.000000
   20       19.449170   0.000000
   21       19.731305   0.000000
   22       19.792073   0.000000
   23       20.253718   0.000000
   24       20.271433   0.000000
 
 -0.4166667E+00  0.8333333E-01  0.3403096E-18  0.6944444E-02
    1      -10.103292   1.000000
    2       -8.639258   1.000000
    3       -3.505091   1.000000
    4       -2.855310   1.000000
    5       -2.141038   1.000000
    6       -1.534978   1.000000
    7        0.799848   1.000000
    8        1.188450   1.000000
    9        2.014641   1.000000
   10        2.320067   1.000000
   11        3.475203   1.000000
   12        4.577845   1.000000
   13        4.978135   1.000000
   14        5.418166   1.000000
   15        5.999065   1.000000
   16        6.810597   1.000000
   17       13.997535   0.000000
   18       14.346745   0.000000
   19       17.808482   0.000000
   20       18.543102   0.000000
   21       18.776661   0.000000
   22       19.378084   0.000000
   23       19.403721   0.000000
   24       19.671092   0.000000
 
 -0.3333333E+00  0.8333333E-01  0.7290417E-18  0.6944444E-02
    1      -10.666813   1.000000
    2       -7.730226   1.000000
    3       -3.805304   1.000000
    4       -2.822066   1.000000
    5       -2.435463   1.000000
    6       -1.495480   1.000000
    7        1.049593   1.000000
    8        1.680400   1.000000
    9        2.178280   1.000000
   10        2.270008   1.000000
   11        2.675822   1.000000
   12        4.034418   1.000000
   13        4.324868   1.000000
   14        6.326558   1.000000
   15        6.789845   1.000000
   16        7.743795   1.000000
   17       13.881445   0.000000
   18       14.587843   0.000000
   19       16.447713   0.000000
   20       17.300395   0.000000
   21       17.398251   0.000000
   22       18.079470   0.000000
   23       18.213727   0.000000
   24       18.444564   0.000000
 
 -0.2500000E+00  0.8333333E-01  0.2562374E-18  0.6944444E-02
    1      -11.107707   1.000000
    2       -6.715542   1.000000
    3       -4.075803   1.000000
    4       -2.893596   1.000000
    5       -2.711241   1.000000
    6       -1.563405   1.000000
    7        0.957336   1.000000
    8        1.540662   1.000000
    9        2.235282   1.000000
   10        2.534402   1.000000
   11        3.034650   1.000000
   12        3.605665   1.000000
   13        3.846904   1.000000
   14        7.217505   1.000000
   15        7.612178   1.000000
   16        8.555160   1.000000
   17       13.851773   0.000000
   18       14.814268   0.000000
   19       15.290570   0.000000
   20       15.947391   0.000000
   21       16.415696   0.000000
   22       16.782254   0.000000
   23       17.081227   0.000000
   24       17.307305   0.000000
 
 -0.1666667E+00  0.8333333E-01 -0.4723561E-19  0.6944444E-02
    1      -11.424200   1.000000
    2       -5.603651   1.000000
    3       -4.282216   1.000000
    4       -2.991680   1.000000
    5       -2.935207   1.000000
    6       -1.670580   1.000000
    7       -0.402433   1.000000
    8        2.155505   1.000000
    9        2.749871   1.000000
   10        2.965074   1.000000
   11        3.282226   1.000000
   12        3.299683   1.000000
   13        3.515992   1.000000
   14        8.070381   1.000000
   15        8.399684   1.000000
   16        9.148681   1.000000
   17       13.918882   0.000000
   18       14.473918   0.000000
   19       14.837539   0.000000
   20       14.969027   0.000000
   21       15.609568   0.000000
   22       15.708206   0.000000
   23       16.116242   0.000000
   24       16.329166   0.000000
 
 -0.8333333E-01  0.8333333E-01 -0.1961426E-18  0.3472222E-02
    1      -11.615100   1.000000
    2       -4.405604   1.000000
    3       -4.405603   1.000000
    4       -3.094935   1.000000
    5       -3.052321   1.000000
    6       -1.762926   1.000000
    7       -1.762924   1.000000
    8        2.768614   1.000000
    9        3.120057   1.000000
   10        3.120059   1.000000
   11        3.310152   1.000000
   12        3.318812   1.000000
   13        3.318813   1.000000
   14        8.800183   1.000000
   15        9.010835   1.000000
   16        9.420633   1.000000
   17       14.090227   0.000000
   18       14.090229   0.000000
   19       14.114390   0.000000
   20       14.926711   0.000000
   21       14.988000   0.000000
   22       14.988001   0.000000
   23       15.295805   0.000000
   24       15.539523   0.000000
 
  0.1666667E+00  0.1666667E+00 -0.9468930E-18  0.3472222E-02
    1      -11.243312   1.000000
    2       -5.401899   1.000000
    3       -5.401898   1.000000
    4       -3.164101   1.000000
    5       -2.632936   1.000000
    6       -0.481034   1.000000
    7       -0.481032   1.000000
    8        1.328852   1.000000
    9        2.952960   1.000000
   10        2.952961   1.000000
   11        3.255967   1.000000
   12        3.255968   1.000000
   13        3.802594   1.000000
   14        7.249765   1.000000
   15        7.759346   1.000000
   16        9.176351   1.000000
   17       14.645021   0.000000
   18       14.645024   0.000000
   19       14.791787   0.000000
   20       15.686275   0.000000
   21       16.224233   0.000000
   22       16.265008   0.000000
   23       16.265010   0.000000
   24       16.701478   0.000000
 
  0.2500000E+00  0.1666667E+00 -0.9918417E-18  0.6944444E-02
    1      -10.931714   1.000000
    2       -6.508547   1.000000
    3       -5.131359   1.000000
    4       -3.225198   1.000000
    5       -2.368016   1.000000
    6       -0.553410   1.000000
    7        0.744290   1.000000
    8        0.766256   1.000000
    9        2.377548   1.000000
   10        2.999452   1.000000
   11        3.243845   1.000000
   12        3.739317   1.000000
   13        3.863352   1.000000
   14        6.386364   1.000000
   15        6.995921   1.000000
   16        8.824273   1.000000
   17       14.569404   0.000000
   18       15.240348   0.000000
   19       15.639267   0.000000
   20       15.760266   0.000000
   21       17.023220   0.000000
   22       17.148631   0.000000
   23       17.283568   0.000000
   24       17.351394   0.000000
 
  0.3333333E+00  0.1666667E+00 -0.9922995E-18  0.6944444E-02
    1      -10.496168   1.000000
    2       -7.521083   1.000000
    3       -4.773687   1.000000
    4       -3.385511   1.000000
    5       -2.032052   1.000000
    6       -0.719349   1.000000
    7        0.446563   1.000000
    8        1.748071   1.000000
    9        1.861933   1.000000
   10        2.845731   1.000000
   11        3.650350   1.000000
   12        3.692079   1.000000
   13        4.435276   1.000000
   14        5.514096   1.000000
   15        6.197803   1.000000
   16        8.162126   1.000000
   17       14.586228   0.000000
   18       15.426411   0.000000
   19       16.130453   0.000000
   20       17.119640   0.000000
   21       17.954533   0.000000
   22       18.200365   0.000000
   23       18.350499   0.000000
   24       18.487908   0.000000
 
  0.4166667E+00  0.1666667E+00 -0.1659699E-17  0.6944444E-02
    1       -9.938590   1.000000
    2       -8.429970   1.000000
    3       -4.349725   1.000000
    4       -3.682084   1.000000
    5       -1.642662   1.000000
    6       -1.001057   1.000000
    7        0.431325   1.000000
    8        1.161908   1.000000
    9        2.852682   1.000000
   10        2.862015   1.000000
   11        3.395136   1.000000
   12        4.167771   1.000000
   13        4.655725   1.000000
   14        5.321542   1.000000
   15        5.427575   1.000000
   16        7.283706   1.000000
   17       14.683730   0.000000
   18       15.190041   0.000000
   19       17.328144   0.000000
   20       18.620472   0.000000
   21       19.044509   0.000000
   22       19.185864   0.000000
   23       19.276292   0.000000
   24       19.622774   0.000000
 
  0.5000000E+00  0.1666667E+00 -0.1660157E-17  0.6944444E-02
    1       -9.261774   1.000000
    2       -9.228240   1.000000
    3       -4.077959   1.000000
    4       -3.897359   1.000000
    5       -1.369238   1.000000
    6       -1.231900   1.000000
    7        0.691295   1.000000
    8        0.697395   1.000000
    9        3.036690   1.000000
   10        3.085552   1.000000
   11        3.757053   1.000000
   12        3.807709   1.000000
   13        4.722451   1.000000
   14        4.786880   1.000000
   15        6.284741   1.000000
   16        6.309440   1.000000
   17       14.848240   0.000000
   18       14.962434   0.000000
   19       18.315645   0.000000
   20       18.639626   0.000000
   21       20.039142   0.000000
   22       20.168584   0.000000
   23       20.198620   0.000000
   24       20.334182   0.000000
 
 -0.4166667E+00  0.1666667E+00  0.6679463E-18  0.6944444E-02
    1       -9.910881   1.000000
    2       -8.469491   1.000000
    3       -4.501517   1.000000
    4       -3.480460   1.000000
    5       -1.768801   1.000000
    6       -0.851380   1.000000
    7        0.438747   1.000000
    8        1.149138   1.000000
    9        2.862922   1.000000
   10        2.933313   1.000000
   11        3.301470   1.000000
   12        4.105893   1.000000
   13        4.632915   1.000000
   14        5.277864   1.000000
   15        5.494585   1.000000
   16        7.289963   1.000000
   17       14.779800   0.000000
   18       15.049712   0.000000
   19       16.974662   0.000000
   20       18.675782   0.000000
   21       19.019486   0.000000
   22       19.120333   0.000000
   23       19.439896   0.000000
   24       19.612283   0.000000
 
 -0.3333333E+00  0.1666667E+00  0.8370353E-19  0.6944444E-02
    1      -10.474128   1.000000
    2       -7.566933   1.000000
    3       -4.894676   1.000000
    4       -3.180222   1.000000
    5       -2.151456   1.000000
    6       -0.566352   1.000000
    7        0.472316   1.000000
    8        1.726310   1.000000
    9        1.964134   1.000000
   10        2.812406   1.000000
   11        3.558843   1.000000
   12        3.591848   1.000000
   13        4.383980   1.000000
   14        5.512888   1.000000
   15        6.268265   1.000000
   16        8.162226   1.000000
   17       14.661531   0.000000
   18       15.260010   0.000000
   19       15.773166   0.000000
   20       17.176735   0.000000
   21       18.024741   0.000000
   22       18.041701   0.000000
   23       18.381215   0.000000
   24       18.550535   0.000000
 
 -0.2500000E+00  0.1666667E+00  0.4004018E-18  0.6944444E-02
    1      -10.915255   1.000000
    2       -6.561062   1.000000
    3       -5.221549   1.000000
    4       -3.035190   1.000000
    5       -2.485127   1.000000
    6       -0.417714   1.000000
    7        0.827993   1.000000
    8        0.850897   1.000000
    9        2.344899   1.000000
   10        2.956830   1.000000
   11        3.190600   1.000000
   12        3.697661   1.000000
   13        3.701361   1.000000
   14        6.398221   1.000000
   15        7.065651   1.000000
   16        8.821402   1.000000
   17       14.626430   0.000000
   18       14.882739   0.000000
   19       15.410667   0.000000
   20       15.809131   0.000000
   21       17.080850   0.000000
   22       17.133382   0.000000
   23       17.324962   0.000000
   24       17.336479   0.000000
 
 -0.1666667E+00  0.1666667E+00 -0.4005937E-18  0.3472222E-02
    1      -11.232369   1.000000
    2       -5.461691   1.000000
    3       -5.461690   1.000000
    4       -2.996673   1.000000
    5       -2.751305   1.000000
    6       -0.382805   1.000000
    7       -0.382803   1.000000
    8        1.431060   1.000000
    9        2.908419   1.000000
   10        2.908420   1.000000
   11        3.233893   1.000000
   12        3.233894   1.000000
   13        3.627301   1.000000
   14        7.267854   1.000000
   15        7.821174   1.000000
   16        9.169638   1.000000
   17       14.428582   0.000000
   18       14.682803   0.000000
   19       14.682805   0.000000
   20       15.342449   0.000000
   21       16.303896   0.000000
   22       16.303897   0.000000
   23       16.394340   0.000000
   24       16.648089   0.000000
 
  0.2500000E+00  0.2500000E+00 -0.1987704E-17  0.3472222E-02
    1      -10.622865   1.000000
    2       -6.219802   1.000000
    3       -6.219801   1.000000
    4       -3.497099   1.000000
    5       -2.071425   1.000000
    6        0.331932   1.000000
    7        0.476750   1.000000
    8        0.476751   1.000000
    9        2.635093   1.000000
   10        2.635094   1.000000
   11        3.683501   1.000000
   12        3.683501   1.000000
   13        4.295324   1.000000
   14        5.527939   1.000000
   15        6.262636   1.000000
   16        8.751808   1.000000
   17       15.278173   0.000000
   18       15.683712   0.000000
   19       15.683714   0.000000
   20       16.310117   0.000000
   21       17.403269   0.000000
   22       17.602990   0.000000
   23       17.984843   0.000000
   24       17.984844   0.000000
 
  0.3333333E+00  0.2500000E+00 -0.4314021E-18  0.6944444E-02
    1      -10.190794   1.000000
    2       -7.220883   1.000000
    3       -5.830127   1.000000
    4       -3.908577   1.000000
    5       -1.698922   1.000000
    6        0.090972   1.000000
    7        0.210246   1.000000
    8        1.381720   1.000000
    9        1.968870   1.000000
   10        3.017972   1.000000
   11        3.729712   1.000000
   12        4.444402   1.000000
   13        4.584651   1.000000
   14        4.673438   1.000000
   15        5.486242   1.000000
   16        8.317486   1.000000
   17       15.691284   0.000000
   18       15.802852   0.000000
   19       16.386730   0.000000
   20       17.038025   0.000000
   21       18.062785   0.000000
   22       18.359535   0.000000
   23       18.838186   0.000000
   24       19.028770   0.000000
 
  0.4166667E+00  0.2500000E+00 -0.1098801E-17  0.6944444E-02
    1       -9.637686   1.000000
    2       -8.122489   1.000000
    3       -5.352087   1.000000
    4       -4.423681   1.000000
    5       -1.258654   1.000000
    6       -0.378782   1.000000
    7        0.377588   1.000000
    8        1.329738   1.000000
    9        2.205552   1.000000
   10        3.516579   1.000000
   11        3.846123   1.000000
   12        3.876679   1.000000
   13        4.362337   1.000000
   14        4.734754   1.000000
   15        5.610864   1.000000
   16        7.583089   1.000000
   17       15.770368   0.000000
   18       16.233590   0.000000
   19       16.737768   0.000000
   20       18.526646   0.000000
   21       18.707478   0.000000
   22       18.862763   0.000000
   23       19.605552   0.000000
   24       19.765674   0.000000
 
  0.5000000E+00  0.2500000E+00 -0.3208793E-18  0.6944444E-02
    1       -8.966632   1.000000
    2       -8.916143   1.000000
    3       -4.969512   1.000000
    4       -4.807519   1.000000
    5       -0.878333   1.000000
    6       -0.768212   1.000000
    7        0.764624   1.000000
    8        0.784071   1.000000
    9        3.007342   1.000000
   10        3.052902   1.000000
   11        4.049547   1.000000
   12        4.077973   1.000000
   13        4.119564   1.000000
   14        4.146458   1.000000
   15        6.641676   1.000000
   16        6.645889   1.000000
   17       15.900495   0.000000
   18       16.054520   0.000000
   19       17.624204   0.000000
   20       17.928592   0.000000
   21       19.304968   0.000000
   22       19.472270   0.000000
   23       20.053209   0.000000
   24       20.156765   0.000000
 
 -0.4166667E+00  0.2500000E+00  0.3902829E-19  0.6944444E-02
    1       -9.595958   1.000000
    2       -8.182037   1.000000
    3       -5.486179   1.000000
    4       -4.235749   1.000000
    5       -1.364175   1.000000
    6       -0.259280   1.000000
    7        0.389649   1.000000
    8        1.302003   1.000000
    9        2.280527   1.000000
   10        3.453719   1.000000
   11        3.824146   1.000000
   12        3.901111   1.000000
   13        4.253846   1.000000
   14        4.810765   1.000000
   15        5.590306   1.000000
   16        7.579208   1.000000
   17       15.896527   0.000000
   18       16.048066   0.000000
   19       16.415702   0.000000
   20       18.543335   0.000000
   21       18.615339   0.000000
   22       19.114967   0.000000
   23       19.589268   0.000000
   24       19.803098   0.000000
 
 -0.3333333E+00  0.2500000E+00 -0.1184613E-17  0.6944444E-02
    1      -10.157626   1.000000
    2       -7.289946   1.000000
    3       -5.936534   1.000000
    4       -3.702132   1.000000
    5       -1.804639   1.000000
    6        0.219918   1.000000
    7        0.222196   1.000000
    8        1.487998   1.000000
    9        1.931682   1.000000
   10        2.963455   1.000000
   11        3.708442   1.000000
   12        4.304709   1.000000
   13        4.547069   1.000000
   14        4.668788   1.000000
   15        5.565936   1.000000
   16        8.308316   1.000000
   17       15.473562   0.000000
   18       15.791793   0.000000
   19       16.140029   0.000000
   20       17.123831   0.000000
   21       17.920200   0.000000
   22       18.382526   0.000000
   23       18.919574   0.000000
   24       19.110803   0.000000
 
 -0.2500000E+00  0.2500000E+00 -0.9077515E-19  0.3472222E-02
    1      -10.598103   1.000000
    2       -6.299008   1.000000
    3       -6.299008   1.000000
    4       -3.289070   1.000000
    5       -2.181336   1.000000
    6        0.362158   1.000000
    7        0.605877   1.000000
    8        0.605877   1.000000
    9        2.589961   1.000000
   10        2.589961   1.000000
   11        3.635226   1.000000
   12        3.635226   1.000000
   13        4.137740   1.000000
   14        5.534741   1.000000
   15        6.343301   1.000000
   16        8.742499   1.000000
   17       14.938288   0.000000
   18       15.758476   0.000000
   19       15.758479   0.000000
   20       15.985704   0.000000
   21       17.482374   0.000000
   22       17.508199   0.000000
   23       18.055689   0.000000
   24       18.055691   0.000000
 
  0.3333333E+00  0.3333333E+00 -0.2205645E-17  0.3472222E-02
    1       -9.763351   1.000000
    2       -6.811402   1.000000
    3       -6.811401   1.000000
    4       -4.539256   1.000000
    5       -1.292931   1.000000
    6        0.271091   1.000000
    7        0.818151   1.000000
    8        0.818151   1.000000
    9        2.325332   1.000000
   10        2.325332   1.000000
   11        3.843357   1.000000
   12        4.727425   1.000000
   13        4.767527   1.000000
   14        4.767527   1.000000
   15        4.951404   1.000000
   16        8.144076   1.000000
   17       15.925827   0.000000
   18       17.024659   0.000000
   19       17.024662   0.000000
   20       17.157379   0.000000