       N       E                     dE             d eps       ncg     rms          rms(c)
DAV:   1     0.569583326353E+02    0.56958E+02   -0.14383E+04  9072   0.105E+03
DAV:   2    -0.709146834816E+02   -0.12787E+03   -0.12144E+03 12512   0.221E+02
DAV:   3    -0.750598297699E+02   -0.41451E+01   -0.41245E+01 11760   0.371E+01
DAV:   4    -0.751026100875E+02   -0.42780E-01   -0.42743E-01 11560   0.412E+00
DAV:   5    -0.751034557125E+02   -0.84563E-03   -0.84532E-03 11752   0.522E-01    0.929E+00
DAV:   6    -0.733116826381E+02    0.17918E+01   -0.11914E+00 10408   0.618E+00    0.511E+00
DAV:   7    -0.727062658160E+02    0.60542E+00   -0.13526E+00 10648   0.677E+00    0.692E-01
DAV:   8    -0.727135296671E+02   -0.72639E-02   -0.27254E-02 11584   0.957E-01    0.788E-02
DAV:   9    -0.727137473180E+02   -0.21765E-03   -0.43451E-04 10912   0.140E-01    0.283E-02
DAV:  10    -0.727138032799E+02   -0.55962E-04   -0.48397E-05 11440   0.524E-02    0.264E-03
DAV:  11    -0.727138039469E+02   -0.66701E-06   -0.10504E-06  8384   0.721E-03
   1 F= -.72713804E+02 E0= -.72713804E+02  d E =0.000000E+00
