 vasp.5.4.4.18Apr17-6-g9f103f2a35 (build Mar 12 2022 03:36:41) complex          
  
 executed on IFC19.0.3.199_CrayMP date 2022.12.01  10:57:24
 running on   16 total cores
 distrk:  each k-point on   16 cores,    1 groups
 distr:  one band on NCORES_PER_BAND=   4 cores,    4 groups


--------------------------------------------------------------------------------------------------------


 INCAR:
 POTCAR:   PAW_PBE C 08Apr2002                    
 POTCAR:   PAW_PBE C 08Apr2002                    
   VRHFIN =C: s2p2                                                              
   LEXCH  = PE                                                                  
   EATOM  =   147.1560 eV,   10.8157 Ry                                         
                                                                                
   TITEL  = PAW_PBE C 08Apr2002                                                 
   LULTRA =        F    use ultrasoft PP ?                                      
   IUNSCR =        0    unscreen: 0-lin 1-nonlin 2-no                           
   RPACOR =     .000    partial core radius                                     
   POMASS =   12.011; ZVAL   =    4.000    mass and valenz                      
   RCORE  =    1.500    outmost cutoff radius                                   
   RWIGS  =    1.630; RWIGS  =     .863    wigner-seitz radius (au A)           
   ENMAX  =  400.000; ENMIN  =  300.000 eV                                      
   ICORE  =        2    local potential                                         
   LCOR   =        T    correct aug charges                                     
   LPAW   =        T    paw PP                                                  
   EAUG   =  644.873                                                            
   DEXC   =     .000                                                            
   RMAX   =    2.266    core radius for proj-oper                               
   RAUG   =    1.300    factor for augmentation sphere                          
   RDEP   =    1.501    radius for radial grids                                 
   RDEPT  =    1.300    core radius for aug-charge                              
   QCUT   =   -5.516; QGAM   =   11.032    optimization parameters              
                                                                                
   Description                                                                  
     l     E      TYP  RCUT    TYP  RCUT                                        
     0   .000     23  1.200                                                     
     0   .000     23  1.200                                                     
     1   .000     23  1.500                                                     
     1  2.500     23  1.500                                                     
     2   .000      7  1.500                                                     
  local pseudopotential read in
  atomic valenz-charges read in
  non local Contribution for L=           0  read in
    real space projection operators read in
  non local Contribution for L=           0  read in
    real space projection operators read in
  non local Contribution for L=           1  read in
    real space projection operators read in
  non local Contribution for L=           1  read in
    real space projection operators read in
    PAW grid and wavefunctions read in
 
   number of l-projection  operators is LMAX  =           4
   number of lm-projection operators is LMMAX =           8
 
 PAW_PBE C 08Apr2002                    :
 energy of atom  1       EATOM= -147.1560
 kinetic energy error for atom=    0.0288 (will be added to EATOM!!)
 
 
 POSCAR: C8                                      
  positions in direct lattice
  No initial velocities read in
 exchange correlation table for  LEXCH =        8
   RHO(1)=    0.500       N(1)  =     2000
   RHO(2)=  100.500       N(2)  =     4000
 


--------------------------------------------------------------------------------------------------------


 ion  position               nearest neighbor table
   1  0.250  0.750  0.250-   2 1.55   6 1.55   8 1.55   4 1.57
   2  0.000  0.000  0.500-   1 1.55   5 1.55   7 1.55   3 1.57
   3  0.250  0.250  0.750-   4 1.55   6 1.55   8 1.55   2 1.57
   4  0.000  0.500  0.000-   3 1.55   5 1.55   7 1.55   1 1.57
   5  0.750  0.750  0.750-   6 1.55   4 1.55   2 1.55   8 1.57
   6  0.500  0.000  0.000-   5 1.55   3 1.55   1 1.55   7 1.57
   7  0.750  0.250  0.250-   8 1.55   4 1.55   2 1.55   6 1.57
   8  0.500  0.500  0.500-   7 1.55   3 1.55   1 1.55   5 1.57
 
  LATTYP: Found a trigonal (rhomboedric) cell.
 ALAT       =     3.5899990465
 COS(alpha) =     0.0099999729
  
  Lattice vectors:
  
 A1 = (   3.5899993590,   0.0000000000,   0.0000000000)
 A2 = (   0.0358998931,   3.5898195431,   0.0000000000)
 A3 = (   0.0358998931,   0.0355422704,   3.5896437454)


Analysis of symmetry for initial positions (statically):
=====================================================================
 Subroutine PRICEL returns following result:
 
  LATTYP: Found a trigonal (rhomboedric) cell.
 ALAT       =     2.5511735391
 COS(alpha) =     0.5099009041
  
  Lattice vectors:
  
 A1 = (  -0.0358998931,  -1.8126809068,  -1.7948218727)
 A2 = (  -1.8129496260,  -1.7949097715,   0.0000000000)
 A3 = (  -1.8129496260,  -0.0177711352,  -1.7948218727)
 
   4 primitive cells build up your supercell.
 

 Routine SETGRP: Setting up the symmetry group for a 
 trigonal (rhombohedral) supercell.


 Subroutine GETGRP returns: Found 12 space group operations
 (whereof  6 operations were pure point group operations)
 out of a pool of 12 trial point group operations.


The static configuration has the point symmetry C_3v.
 The point group associated with its full space group is D_3d.


Analysis of symmetry for dynamics (positions and initial velocities):
=====================================================================
 Subroutine PRICEL returns following result:
 
  LATTYP: Found a trigonal (rhomboedric) cell.
 ALAT       =     2.5511735391
 COS(alpha) =     0.5099009041
  
  Lattice vectors:
  
 A1 = (  -0.0358998931,  -1.8126809068,  -1.7948218727)
 A2 = (  -1.8129496260,  -1.7949097715,   0.0000000000)
 A3 = (  -1.8129496260,  -0.0177711352,  -1.7948218727)
 
   4 primitive cells build up your supercell.
 

 Routine SETGRP: Setting up the symmetry group for a 
 trigonal (rhombohedral) supercell.


 Subroutine GETGRP returns: Found 12 space group operations
 (whereof  6 operations were pure point group operations)
 out of a pool of 12 trial point group operations.


The dynamic configuration has the point symmetry C_3v.
 The point group associated with its full space group is D_3d.


 Subroutine INISYM returns: Found 12 space group operations
 (whereof  6 operations are pure point group operations),
 and found     4 'primitive' translations

 
 
 KPOINTS: kpt_density=1000                        

Automatic generation of k-mesh.
Space group operators:
 irot       det(A)        alpha          n_x          n_y          n_z        tau_x        tau_y        tau_z
    1     1.000000     0.000001     1.000000     0.000000     0.000000     0.000000     0.000000     0.000000
    2    -1.000000   180.000000     0.000000    -0.703598     0.710599     0.000000     0.000000     0.000000
    3     1.000000   120.000000    -0.583095    -0.577293    -0.571605     0.000000     0.000000     0.000000
    4    -1.000000   179.999999    -0.703562     0.710634     0.000000     0.000000     0.000000     0.000000
    5     1.000000   120.000000     0.583095     0.577293     0.571605     0.000000     0.000000     0.000000
    6    -1.000000   179.999999    -0.703562     0.007036     0.710599     0.000000     0.000000     0.000000
    7    -1.000000     0.000001     1.000000     0.000000     0.000000    -0.750000    -0.750000    -0.750000
    8     1.000000   180.000000     0.000000    -0.703598     0.710599    -0.750000    -0.750000    -0.750000
    9    -1.000000   120.000000    -0.583095    -0.577293    -0.571605    -0.750000    -0.750000    -0.750000
   10     1.000000   179.999999    -0.703562     0.710634     0.000000    -0.750000    -0.750000    -0.750000
   11    -1.000000   120.000000     0.583095     0.577293     0.571605    -0.750000    -0.750000    -0.750000
   12     1.000000   179.999999    -0.703562     0.007036     0.710599    -0.750000    -0.750000    -0.750000
 
 Subroutine IBZKPT returns following result:
 ===========================================
 
 Found    189 irreducible k-points:
 
 Following reciprocal coordinates:
            Coordinates               Weight
  0.000000  0.000000  0.000000      1.000000
  0.083333  0.000000 -0.000000      6.000000
  0.166667  0.000000 -0.000000      6.000000
  0.250000  0.000000 -0.000000      6.000000
  0.333333  0.000000 -0.000000      6.000000
  0.416667  0.000000 -0.000000      6.000000
  0.500000  0.000000 -0.000000      3.000000
  0.083333  0.083333 -0.000000      6.000000
  0.166667  0.083333 -0.000000     12.000000
  0.250000  0.083333 -0.000000     12.000000
  0.333333  0.083333 -0.000000     12.000000
  0.416667  0.083333 -0.000000     12.000000
  0.500000  0.083333 -0.000000     12.000000
 -0.416667  0.083333  0.000000     12.000000
 -0.333333  0.083333  0.000000     12.000000
 -0.250000  0.083333  0.000000     12.000000
 -0.166667  0.083333 -0.000000     12.000000
 -0.083333  0.083333 -0.000000      6.000000
  0.166667  0.166667 -0.000000      6.000000
  0.250000  0.166667 -0.000000     12.000000
  0.333333  0.166667 -0.000000     12.000000
  0.416667  0.166667 -0.000000     12.000000
  0.500000  0.166667 -0.000000     12.000000
 -0.416667  0.166667  0.000000     12.000000
 -0.333333  0.166667  0.000000     12.000000
 -0.250000  0.166667  0.000000     12.000000
 -0.166667  0.166667 -0.000000      6.000000
  0.250000  0.250000 -0.000000      6.000000
  0.333333  0.250000 -0.000000     12.000000
  0.416667  0.250000 -0.000000     12.000000
  0.500000  0.250000 -0.000000     12.000000
 -0.416667  0.250000  0.000000     12.000000
 -0.333333  0.250000 -0.000000     12.000000
 -0.250000  0.250000 -0.000000      6.000000
  0.333333  0.333333 -0.000000      6.000000
  0.416667  0.333333 -0.000000     12.000000
  0.500000  0.333333 -0.000000     12.000000
 -0.416667  0.333333  0.000000     12.000000
 -0.333333  0.333333 -0.000000      6.000000
  0.416667  0.416667 -0.000000      6.000000
  0.500000  0.416667 -0.000000     12.000000
 -0.416667  0.416667  0.000000      6.000000
  0.500000  0.500000 -0.000000      3.000000
  0.083333  0.083333  0.083333      2.000000
  0.166667  0.083333  0.083333      6.000000
  0.250000  0.083333  0.083333      6.000000
  0.333333  0.083333  0.083333      6.000000
  0.416667  0.083333  0.083333      6.000000
  0.500000  0.083333  0.083333      6.000000
 -0.416667  0.083333  0.083333      6.000000
 -0.333333  0.083333  0.083333      6.000000
 -0.250000  0.083333  0.083333      6.000000
 -0.166667  0.083333  0.083333      6.000000
 -0.083333  0.083333  0.083333      6.000000
  0.166667  0.166667  0.083333      6.000000
  0.250000  0.166667  0.083333     12.000000
  0.333333  0.166667  0.083333     12.000000
  0.416667  0.166667  0.083333     12.000000
  0.500000  0.166667  0.083333     12.000000
 -0.416667  0.166667  0.083333     12.000000
 -0.333333  0.166667  0.083333     12.000000
 -0.250000  0.166667  0.083333     12.000000
 -0.166667  0.166667  0.083333     12.000000
 -0.083333  0.166667  0.083333     12.000000
  0.250000  0.250000  0.083333      6.000000
  0.333333  0.250000  0.083333     12.000000
  0.416667  0.250000  0.083333     12.000000
  0.500000  0.250000  0.083333     12.000000
 -0.416667  0.250000  0.083333     12.000000
 -0.333333  0.250000  0.083333     12.000000
 -0.250000  0.250000  0.083333     12.000000
 -0.166667  0.250000  0.083333     12.000000
 -0.083333  0.250000  0.083333     12.000000
  0.333333  0.333333  0.083333      6.000000
  0.416667  0.333333  0.083333     12.000000
  0.500000  0.333333  0.083333     12.000000
 -0.416667  0.333333  0.083333     12.000000
 -0.333333  0.333333  0.083333     12.000000
 -0.250000  0.333333  0.083333     12.000000
 -0.166667  0.333333  0.083333     12.000000
 -0.083333  0.333333  0.083333     12.000000
  0.416667  0.416667  0.083333      6.000000
  0.500000  0.416667  0.083333     12.000000
 -0.416667  0.416667  0.083333     12.000000
 -0.333333  0.416667  0.083333     12.000000
 -0.250000  0.416667  0.083333     12.000000
 -0.166667  0.416667  0.083333     12.000000
 -0.083333  0.416667  0.083333     12.000000
  0.500000  0.500000  0.083333      6.000000
 -0.416667  0.500000  0.083333     12.000000
 -0.333333  0.500000  0.083333     12.000000
 -0.250000  0.500000  0.083333     12.000000
 -0.166667  0.500000  0.083333     12.000000
 -0.083333  0.500000  0.083333      6.000000
 -0.416667 -0.416667  0.083333      6.000000
 -0.333333 -0.416667  0.083333     12.000000
 -0.250000 -0.416667  0.083333     12.000000
 -0.166667 -0.416667  0.083333     12.000000
 -0.333333 -0.333333  0.083333      6.000000
 -0.250000 -0.333333  0.083333     12.000000
 -0.166667 -0.333333  0.083333     12.000000
 -0.250000 -0.250000  0.083333      6.000000
 -0.166667 -0.250000  0.083333     12.000000
 -0.166667 -0.166667  0.083333      6.000000
  0.166667  0.166667  0.166667      2.000000
  0.250000  0.166667  0.166667      6.000000
  0.333333  0.166667  0.166667      6.000000
  0.416667  0.166667  0.166667      6.000000
  0.500000  0.166667  0.166667      6.000000
 -0.416667  0.166667  0.166667      6.000000
 -0.333333  0.166667  0.166667      6.000000
 -0.250000  0.166667  0.166667      6.000000
 -0.166667  0.166667  0.166667      6.000000
  0.250000  0.250000  0.166667      6.000000
  0.333333  0.250000  0.166667     12.000000
  0.416667  0.250000  0.166667     12.000000
  0.500000  0.250000  0.166667     12.000000
 -0.416667  0.250000  0.166667     12.000000
 -0.333333  0.250000  0.166667     12.000000
 -0.250000  0.250000  0.166667     12.000000
 -0.166667  0.250000  0.166667     12.000000
  0.333333  0.333333  0.166667      6.000000
  0.416667  0.333333  0.166667     12.000000
  0.500000  0.333333  0.166667     12.000000
 -0.416667  0.333333  0.166667     12.000000
 -0.333333  0.333333  0.166667     12.000000
 -0.250000  0.333333  0.166667     12.000000
 -0.166667  0.333333  0.166667     12.000000
  0.416667  0.416667  0.166667      6.000000
  0.500000  0.416667  0.166667     12.000000
 -0.416667  0.416667  0.166667     12.000000
 -0.333333  0.416667  0.166667     12.000000
 -0.250000  0.416667  0.166667     12.000000
 -0.166667  0.416667  0.166667     12.000000
  0.500000  0.500000  0.166667      6.000000
 -0.416667  0.500000  0.166667     12.000000
 -0.333333  0.500000  0.166667     12.000000
 -0.250000  0.500000  0.166667     12.000000
 -0.166667  0.500000  0.166667      6.000000
 -0.416667 -0.416667  0.166667      6.000000
 -0.333333 -0.416667  0.166667     12.000000
 -0.250000 -0.416667  0.166667     12.000000
 -0.333333 -0.333333  0.166667      6.000000
 -0.250000 -0.333333  0.166667     12.000000
 -0.250000 -0.250000  0.166667      6.000000
  0.250000  0.250000  0.250000      2.000000
  0.333333  0.250000  0.250000      6.000000
  0.416667  0.250000  0.250000      6.000000
  0.500000  0.250000  0.250000      6.000000
 -0.416667  0.250000  0.250000      6.000000
 -0.333333  0.250000  0.250000      6.000000
 -0.250000  0.250000  0.250000      6.000000
  0.333333  0.333333  0.250000      6.000000
  0.416667  0.333333  0.250000     12.000000
  0.500000  0.333333  0.250000     12.000000
 -0.416667  0.333333  0.250000     12.000000
 -0.333333  0.333333  0.250000     12.000000
 -0.250000  0.333333  0.250000     12.000000
  0.416667  0.416667  0.250000      6.000000
  0.500000  0.416667  0.250000     12.000000
 -0.416667  0.416667  0.250000     12.000000
 -0.333333  0.416667  0.250000     12.000000
 -0.250000  0.416667  0.250000     12.000000
  0.500000  0.500000  0.250000      6.000000
 -0.416667  0.500000  0.250000     12.000000
 -0.333333  0.500000  0.250000     12.000000
 -0.250000  0.500000  0.250000      6.000000
 -0.416667 -0.416667  0.250000      6.000000
 -0.333333 -0.416667  0.250000     12.000000
 -0.333333 -0.333333  0.250000      6.000000
  0.333333  0.333333  0.333333      2.000000
  0.416667  0.333333  0.333333      6.000000
  0.500000  0.333333  0.333333      6.000000
 -0.416667  0.333333  0.333333      6.000000
 -0.333333  0.333333  0.333333      6.000000
  0.416667  0.416667  0.333333      6.000000
  0.500000  0.416667  0.333333     12.000000
 -0.416667  0.416667  0.333333     12.000000
 -0.333333  0.416667  0.333333     12.000000
  0.500000  0.500000  0.333333      6.000000
 -0.416667  0.500000  0.333333     12.000000
 -0.333333  0.500000  0.333333      6.000000
 -0.416667 -0.416667  0.333333      6.000000
  0.416667  0.416667  0.416667      2.000000
  0.500000  0.416667  0.416667      6.000000
 -0.416667  0.416667  0.416667      6.000000
  0.500000  0.500000  0.416667      6.000000
 -0.416667  0.500000  0.416667      6.000000
  0.500000  0.500000  0.500000      1.000000
 
 Following cartesian coordinates:
            Coordinates               Weight
  0.000000  0.000000  0.000000      1.000000
  0.023318 -0.000233 -0.000231      6.000000
  0.046637 -0.000466 -0.000462      6.000000
  0.069955 -0.000700 -0.000693      6.000000
  0.093274 -0.000933 -0.000924      6.000000
  0.116592 -0.001166 -0.001154      6.000000
  0.139911 -0.001399 -0.001385      3.000000
  0.023318  0.023086 -0.000462      6.000000
  0.046637  0.022853 -0.000693     12.000000
  0.069955  0.022620 -0.000924     12.000000
  0.093274  0.022387 -0.001154     12.000000
  0.116592  0.022154 -0.001385     12.000000
  0.139911  0.021920 -0.001616     12.000000
 -0.116592  0.024486  0.000924     12.000000
 -0.093274  0.024252  0.000693     12.000000
 -0.069955  0.024019  0.000462     12.000000
 -0.046637  0.023786  0.000231     12.000000
 -0.023318  0.023553  0.000000      6.000000
  0.046637  0.046173 -0.000924      6.000000
  0.069955  0.045940 -0.001154     12.000000
  0.093274  0.045706 -0.001385     12.000000
  0.116592  0.045473 -0.001616     12.000000
  0.139911  0.045240 -0.001847     12.000000
 -0.116592  0.047805  0.000693     12.000000
 -0.093274  0.047572  0.000462     12.000000
 -0.069955  0.047339  0.000231     12.000000
 -0.046637  0.047106  0.000000      6.000000
  0.069955  0.069259 -0.001385      6.000000
  0.093274  0.069026 -0.001616     12.000000
  0.116592  0.068793 -0.001847     12.000000
  0.139911  0.068560 -0.002078     12.000000
 -0.116592  0.071125  0.000462     12.000000
 -0.093274  0.070892  0.000231     12.000000
 -0.069955  0.070658  0.000000      6.000000
  0.093274  0.092346 -0.001847      6.000000
  0.116592  0.092112 -0.002078     12.000000
  0.139911  0.091879 -0.002309     12.000000
 -0.116592  0.094444  0.000231     12.000000
 -0.093274  0.094211  0.000000      6.000000
  0.116592  0.115432 -0.002309      6.000000
  0.139911  0.115199 -0.002540     12.000000
 -0.116592  0.117764  0.000000      6.000000
  0.139911  0.138518 -0.002771      3.000000
  0.023318  0.023086  0.022859      2.000000
  0.046637  0.022853  0.022628      6.000000
  0.069955  0.022620  0.022397      6.000000
  0.093274  0.022387  0.022166      6.000000
  0.116592  0.022154  0.021935      6.000000
  0.139911  0.021920  0.021704      6.000000
 -0.116592  0.024486  0.024244      6.000000
 -0.093274  0.024252  0.024013      6.000000
 -0.069955  0.024019  0.023783      6.000000
 -0.046637  0.023786  0.023552      6.000000
 -0.023318  0.023553  0.023321      6.000000
  0.046637  0.046173  0.022397      6.000000
  0.069955  0.045940  0.022166     12.000000
  0.093274  0.045706  0.021935     12.000000
  0.116592  0.045473  0.021704     12.000000
  0.139911  0.045240  0.021474     12.000000
 -0.116592  0.047805  0.024013     12.000000
 -0.093274  0.047572  0.023783     12.000000
 -0.069955  0.047339  0.023552     12.000000
 -0.046637  0.047106  0.023321     12.000000
 -0.023318  0.046872  0.023090     12.000000
  0.069955  0.069259  0.021935      6.000000
  0.093274  0.069026  0.021704     12.000000
  0.116592  0.068793  0.021474     12.000000
  0.139911  0.068560  0.021243     12.000000
 -0.116592  0.071125  0.023783     12.000000
 -0.093274  0.070892  0.023552     12.000000
 -0.069955  0.070658  0.023321     12.000000
 -0.046637  0.070425  0.023090     12.000000
 -0.023318  0.070192  0.022859     12.000000
  0.093274  0.092346  0.021474      6.000000
  0.116592  0.092112  0.021243     12.000000
  0.139911  0.091879  0.021012     12.000000
 -0.116592  0.094444  0.023552     12.000000
 -0.093274  0.094211  0.023321     12.000000
 -0.069955  0.093978  0.023090     12.000000
 -0.046637  0.093745  0.022859     12.000000
 -0.023318  0.093512  0.022628     12.000000
  0.116592  0.115432  0.021012      6.000000
  0.139911  0.115199  0.020781     12.000000
 -0.116592  0.117764  0.023321     12.000000
 -0.093274  0.117531  0.023090     12.000000
 -0.069955  0.117298  0.022859     12.000000
 -0.046637  0.117064  0.022628     12.000000
 -0.023318  0.116831  0.022397     12.000000
  0.139911  0.138518  0.020550      6.000000
 -0.116592  0.141084  0.023090     12.000000
 -0.093274  0.140850  0.022859     12.000000
 -0.069955  0.140617  0.022628     12.000000
 -0.046637  0.140384  0.022397     12.000000
 -0.023318  0.140151  0.022166      6.000000
 -0.116592 -0.115432  0.025630      6.000000
 -0.093274 -0.115665  0.025399     12.000000
 -0.069955 -0.115898  0.025168     12.000000
 -0.046637 -0.116132  0.024937     12.000000
 -0.093274 -0.092346  0.025168      6.000000
 -0.069955 -0.092579  0.024937     12.000000
 -0.046637 -0.092812  0.024706     12.000000
 -0.069955 -0.069259  0.024706      6.000000
 -0.046637 -0.069492  0.024475     12.000000
 -0.046637 -0.046173  0.024244      6.000000
  0.046637  0.046173  0.045718      2.000000
  0.069955  0.045940  0.045487      6.000000
  0.093274  0.045706  0.045256      6.000000
  0.116592  0.045473  0.045025      6.000000
  0.139911  0.045240  0.044794      6.000000
 -0.116592  0.047805  0.047334      6.000000
 -0.093274  0.047572  0.047103      6.000000
 -0.069955  0.047339  0.046872      6.000000
 -0.046637  0.047106  0.046642      6.000000
  0.069955  0.069259  0.045256      6.000000
  0.093274  0.069026  0.045025     12.000000
  0.116592  0.068793  0.044794     12.000000
  0.139911  0.068560  0.044563     12.000000
 -0.116592  0.071125  0.047103     12.000000
 -0.093274  0.070892  0.046872     12.000000
 -0.069955  0.070658  0.046642     12.000000
 -0.046637  0.070425  0.046411     12.000000
  0.093274  0.092346  0.044794      6.000000
  0.116592  0.092112  0.044563     12.000000
  0.139911  0.091879  0.044333     12.000000
 -0.116592  0.094444  0.046872     12.000000
 -0.093274  0.094211  0.046642     12.000000
 -0.069955  0.093978  0.046411     12.000000
 -0.046637  0.093745  0.046180     12.000000
  0.116592  0.115432  0.044333      6.000000
  0.139911  0.115199  0.044102     12.000000
 -0.116592  0.117764  0.046642     12.000000
 -0.093274  0.117531  0.046411     12.000000
 -0.069955  0.117298  0.046180     12.000000
 -0.046637  0.117064  0.045949     12.000000
  0.139911  0.138518  0.043871      6.000000
 -0.116592  0.141084  0.046411     12.000000
 -0.093274  0.140850  0.046180     12.000000
 -0.069955  0.140617  0.045949     12.000000
 -0.046637  0.140384  0.045718      6.000000
 -0.116592 -0.115432  0.048950      6.000000
 -0.093274 -0.115665  0.048720     12.000000
 -0.069955 -0.115898  0.048489     12.000000
 -0.093274 -0.092346  0.048489      6.000000
 -0.069955 -0.092579  0.048258     12.000000
 -0.069955 -0.069259  0.048027      6.000000
  0.069955  0.069259  0.068577      2.000000
  0.093274  0.069026  0.068346      6.000000
  0.116592  0.068793  0.068115      6.000000
  0.139911  0.068560  0.067884      6.000000
 -0.116592  0.071125  0.070424      6.000000
 -0.093274  0.070892  0.070193      6.000000
 -0.069955  0.070658  0.069962      6.000000
  0.093274  0.092346  0.068115      6.000000
  0.116592  0.092112  0.067884     12.000000
  0.139911  0.091879  0.067653     12.000000
 -0.116592  0.094444  0.070193     12.000000
 -0.093274  0.094211  0.069962     12.000000
 -0.069955  0.093978  0.069731     12.000000
  0.116592  0.115432  0.067653      6.000000
  0.139911  0.115199  0.067422     12.000000
 -0.116592  0.117764  0.069962     12.000000
 -0.093274  0.117531  0.069731     12.000000
 -0.069955  0.117298  0.069500     12.000000
  0.139911  0.138518  0.067191      6.000000
 -0.116592  0.141084  0.069731     12.000000
 -0.093274  0.140850  0.069500     12.000000
 -0.069955  0.140617  0.069270      6.000000
 -0.116592 -0.115432  0.072271      6.000000
 -0.093274 -0.115665  0.072040     12.000000
 -0.093274 -0.092346  0.071809      6.000000
  0.093274  0.092346  0.091436      2.000000
  0.116592  0.092112  0.091205      6.000000
  0.139911  0.091879  0.090974      6.000000
 -0.116592  0.094444  0.093514      6.000000
 -0.093274  0.094211  0.093283      6.000000
  0.116592  0.115432  0.090974      6.000000
  0.139911  0.115199  0.090743     12.000000
 -0.116592  0.117764  0.093283     12.000000
 -0.093274  0.117531  0.093052     12.000000
  0.139911  0.138518  0.090512      6.000000
 -0.116592  0.141084  0.093052     12.000000
 -0.093274  0.140850  0.092821      6.000000
 -0.116592 -0.115432  0.095592      6.000000
  0.116592  0.115432  0.114295      2.000000
  0.139911  0.115199  0.114064      6.000000
 -0.116592  0.117764  0.116604      6.000000
  0.139911  0.138518  0.113833      6.000000
 -0.116592  0.141084  0.116373      6.000000
  0.139911  0.138518  0.137154      1.000000
 
 TETIRR: Found    864 inequivalent tetrahedra from    10368


--------------------------------------------------------------------------------------------------------




 Dimension of arrays:
   k-points           NKPTS =    189   k-points in BZ     NKDIM =    189   number of bands    NBANDS=     24
   number of dos      NEDOS =    301   number of ions     NIONS =      8
   non local maximal  LDIM  =      4   non local SUM 2l+1 LMDIM =      8
   total plane-waves  NPLWV =  13824
   max r-space proj   IRMAX =      1   max aug-charges    IRDMAX=   3725
   dimension x,y,z NGX =    24 NGY =   24 NGZ =   24
   dimension x,y,z NGXF=    48 NGYF=   48 NGZF=   48
   support grid    NGXF=    48 NGYF=   48 NGZF=   48
   ions per type =               8
   NGX,Y,Z   is equivalent  to a cutoff of  11.11, 11.11, 11.11 a.u.
   NGXF,Y,Z  is equivalent  to a cutoff of  22.23, 22.23, 22.23 a.u.

 SYSTEM =  unknown system                          
 POSCAR =  C8                                      

 Startparameter for this run:
   NWRITE =      2    write-flag & timer
   PREC   = accura    normal or accurate (medium, high low for compatibility)
   ISTART =      0    job   : 0-new  1-cont  2-samecut
   ICHARG =      2    charge: 1-file 2-atom 10-const
   ISPIN  =      1    spin polarized calculation?
   LNONCOLLINEAR =      F non collinear calculations
   LSORBIT =      F    spin-orbit coupling
   INIWAV =      1    electr: 0-lowe 1-rand  2-diag
   LASPH  =      F    aspherical Exc in radial PAW
   METAGGA=      F    non-selfconsistent MetaGGA calc.

 Electronic Relaxation 1
   ENCUT  =  400.0 eV  29.40 Ry    5.42 a.u.   5.85  5.85  5.85*2*pi/ulx,y,z
   ENINI  =  400.0     initial cutoff
   ENAUG  =  644.9 eV  augmentation charge cutoff
   NELM   =     60;   NELMIN=  2; NELMDL= -5     # of ELM steps 
   EDIFF  = 0.1E-05   stopping-criterion for ELM
   LREAL  =      F    real-space projection
   NLSPLINE    = F    spline interpolate recip. space projectors
   LCOMPAT=      F    compatible to vasp.4.4
   GGA_COMPAT  = T    GGA compatible to vasp.4.4-vasp.4.6
   LMAXPAW     = -100 max onsite density
   LMAXMIX     =    2 max onsite mixed and CHGCAR
   VOSKOWN=      0    Vosko Wilk Nusair interpolation
   ROPT   =    0.00000
 Ionic relaxation
   EDIFFG = 0.1E-04   stopping-criterion for IOM
   NSW    =      0    number of steps for IOM
   NBLOCK =      1;   KBLOCK =      1    inner block; outer block 
   IBRION =     -1    ionic relax: 0-MD 1-quasi-New 2-CG
   NFREE  =      0    steps in history (QN), initial steepest desc. (CG)
   ISIF   =      2    stress and relaxation
   IWAVPR =     10    prediction:  0-non 1-charg 2-wave 3-comb
   ISYM   =      2    0-nonsym 1-usesym 2-fastsym
   LCORR  =      T    Harris-Foulkes like correction to forces

   POTIM  = 0.0200    time-step for ionic-motion
   TEIN   =    0.0    initial temperature
   TEBEG  =    0.0;   TEEND  =   0.0 temperature during run
   SMASS  =  -3.00    Nose mass-parameter (am)
   estimated Nose-frequenzy (Omega)   =  0.10E-29 period in steps =****** mass=  -0.295E-27a.u.
   SCALEE = 1.0000    scale energy and forces
   NPACO  =    256;   APACO  = 16.0  distance and # of slots for P.C.
   PSTRESS=    0.0 pullay stress

  Mass of Ions in am
   POMASS =  12.01
  Ionic Valenz
   ZVAL   =   4.00
  Atomic Wigner-Seitz radii
   RWIGS  =  -1.00
  virtual crystal weights 
   VCA    =   1.00
   NELECT =      32.0000    total number of electrons
   NUPDOWN=      -1.0000    fix difference up-down

 DOS related values:
   EMIN   =  10.00;   EMAX   =-10.00  energy-range for DOS
   EFERMI =   0.00
   ISMEAR =    -5;   SIGMA  =   0.06  broadening in eV -4-tet -1-fermi 0-gaus

 Electronic relaxation 2 (details)
   IALGO  =     38    algorithm
   LDIAG  =      T    sub-space diagonalisation (order eigenvalues)
   LSUBROT=      F    optimize rotation matrix (better conditioning)
   TURBO    =      0    0=normal 1=particle mesh
   IRESTART =      0    0=no restart 2=restart with 2 vectors
   NREBOOT  =      0    no. of reboots
   NMIN     =      0    reboot dimension
   EREF     =   0.00    reference energy to select bands
   IMIX   =      4    mixing-type and parameters
     AMIX     =   0.40;   BMIX     =  1.00
     AMIX_MAG =   1.60;   BMIX_MAG =  1.00
     AMIN     =   0.10
     WC   =   100.;   INIMIX=   1;  MIXPRE=   1;  MAXMIX= -45

 Intra band minimization:
   WEIMIN = 0.0000     energy-eigenvalue tresh-hold
   EBREAK =  0.10E-07  absolut break condition
   DEPER  =   0.30     relativ break condition  

   TIME   =   0.40     timestep for ELM

  volume/ion in A,a.u.               =       5.78        39.02
  Fermi-wavevector in a.u.,A,eV,Ry     =   1.447834  2.736009 28.520841  2.096223
  Thomas-Fermi vector in A             =   2.565744
 
 Write flags
   LWAVE        =      F    write WAVECAR
   LDOWNSAMPLE  =      F    k-point downsampling of WAVECAR
   LCHARG       =      F    write CHGCAR
   LVTOT        =      F    write LOCPOT, total local potential
   LVHAR        =      F    write LOCPOT, Hartree potential only
   LELF         =      F    write electronic localiz. function (ELF)
   LORBIT       =      0    0 simple, 1 ext, 2 COOP (PROOUT), +10 PAW based schemes


 Dipole corrections
   LMONO  =      F    monopole corrections only (constant potential shift)
   LDIPOL =      F    correct potential (dipole corrections)
   IDIPOL =      0    1-x, 2-y, 3-z, 4-all directions 
   EPSILON=  1.0000000 bulk dielectric constant

 Exchange correlation treatment:
   GGA     =    --    GGA type
   LEXCH   =     8    internal setting for exchange type
   VOSKOWN=      0    Vosko Wilk Nusair interpolation
   LHFCALC =     F    Hartree Fock is set to
   LHFONE  =     F    Hartree Fock one center treatment
   AEXX    =    0.0000 exact exchange contribution

 Linear response parameters
   LEPSILON=     F    determine dielectric tensor
   LRPA    =     F    only Hartree local field effects (RPA)
   LNABLA  =     F    use nabla operator in PAW spheres
   LVEL    =     F    velocity operator in full k-point grid
   LINTERFAST=   F  fast interpolation
   KINTER  =     0    interpolate to denser k-point grid
   CSHIFT  =0.1000    complex shift for real part using Kramers Kronig
   OMEGAMAX=  -1.0    maximum frequency
   DEG_THRESHOLD= 0.2000000E-02 threshold for treating states as degnerate
   RTIME   =   -0.100 relaxation time in fs
  (WPLASMAI=    0.000 imaginary part of plasma frequency in eV, 0.658/RTIME)
   DFIELD  = 0.0000000 0.0000000 0.0000000 field for delta impulse in time
 
 Orbital magnetization related:
   ORBITALMAG=     F  switch on orbital magnetization
   LCHIMAG   =     F  perturbation theory with respect to B field
   DQ        =  0.001000  dq finite difference perturbation B field
   LLRAUG    =     F  two centre corrections for induced B field



--------------------------------------------------------------------------------------------------------


 Static calculation
 charge density and potential will be updated during run
 non-spin polarized calculation
 Variant of blocked Davidson
 Davidson routine will perform the subspace rotation
 perform sub-space diagonalisation
    after iterative eigenvector-optimisation
 modified Broyden-mixing scheme, WC =      100.0
 initial mixing is a Kerker type mixing with AMIX =  0.4000 and BMIX =      1.0000
 Hartree-type preconditioning will be used
 using additional bands            8
 reciprocal scheme for non local part
 calculate Harris-corrections to forces 
   (improved forces if not selfconsistent)
 use gradient corrections 
 use of overlap-Matrix (Vanderbilt PP)
 Fermi weights with tetrahedron method with Bloechl corrections


--------------------------------------------------------------------------------------------------------


  energy-cutoff  :      400.00
  volume of cell :       46.26
      direct lattice vectors                 reciprocal lattice vectors
     3.589999359  0.000000000  0.000000000     0.278551582 -0.002785648 -0.002758202
     0.035899893  3.589819543  0.000000000     0.000000000  0.278565535 -0.002758171
     0.035899893  0.035542270  3.589643745     0.000000000  0.000000000  0.278579177

  length of vectors
     3.589999359  3.589999047  3.589999203     0.278579165  0.278579189  0.278579177


 
 k-points in units of 2pi/SCALE and weight: kpt_density=1000                        
   0.00000000  0.00000000  0.00000000       0.001
   0.02331844 -0.00023320 -0.00023090       0.003
   0.04663688 -0.00046639 -0.00046180       0.003
   0.06995531 -0.00069959 -0.00069269       0.003
   0.09327375 -0.00093278 -0.00092359       0.003
   0.11659219 -0.00116598 -0.00115449       0.003
   0.13991063 -0.00139917 -0.00138539       0.002
   0.02331844  0.02308641 -0.00046179       0.003
   0.04663688  0.02285321 -0.00069269       0.007
   0.06995531  0.02262002 -0.00092359       0.007
   0.09327375  0.02238682 -0.00115449       0.007
   0.11659219  0.02215363 -0.00138538       0.007
   0.13991063  0.02192043 -0.00161628       0.007
  -0.11659219  0.02448558  0.00092359       0.007
  -0.09327375  0.02425239  0.00069270       0.007
  -0.06995531  0.02401919  0.00046180       0.007
  -0.04663688  0.02378600  0.00023090       0.007
  -0.02331844  0.02355280  0.00000000       0.003
   0.04663688  0.04617282 -0.00092359       0.003
   0.06995531  0.04593962 -0.00115448       0.007
   0.09327375  0.04570643 -0.00138538       0.007
   0.11659219  0.04547323 -0.00161628       0.007
   0.13991063  0.04524004 -0.00184718       0.007
  -0.11659219  0.04780519  0.00069270       0.007
  -0.09327375  0.04757199  0.00046180       0.007
  -0.06995531  0.04733880  0.00023090       0.007
  -0.04663688  0.04710560  0.00000001       0.003
   0.06995531  0.06925923 -0.00138538       0.003
   0.09327375  0.06902604 -0.00161628       0.007
   0.11659219  0.06879284 -0.00184718       0.007
   0.13991063  0.06855964 -0.00207807       0.007
  -0.11659219  0.07112479  0.00046180       0.007
  -0.09327375  0.07089160  0.00023091       0.007
  -0.06995531  0.07065840  0.00000001       0.003
   0.09327375  0.09234564 -0.00184717       0.003
   0.11659219  0.09211245 -0.00207807       0.007
   0.13991063  0.09187925 -0.00230897       0.007
  -0.11659219  0.09444440  0.00023091       0.007
  -0.09327375  0.09421120  0.00000001       0.003
   0.11659219  0.11543205 -0.00230897       0.003
   0.13991063  0.11519886 -0.00253986       0.007
  -0.11659219  0.11776400  0.00000001       0.003
   0.13991063  0.13851846 -0.00277076       0.002
   0.02331844  0.02308641  0.02285895       0.001
   0.04663688  0.02285321  0.02262806       0.003
   0.06995531  0.02262002  0.02239716       0.003
   0.09327375  0.02238682  0.02216626       0.003
   0.11659219  0.02215363  0.02193536       0.003
   0.13991063  0.02192043  0.02170447       0.003
  -0.11659219  0.02448558  0.02424434       0.003
  -0.09327375  0.02425239  0.02401344       0.003
  -0.06995531  0.02401919  0.02378255       0.003
  -0.04663688  0.02378600  0.02355165       0.003
  -0.02331844  0.02355280  0.02332075       0.003
   0.04663688  0.04617282  0.02239716       0.003
   0.06995531  0.04593962  0.02216626       0.007
   0.09327375  0.04570643  0.02193537       0.007
   0.11659219  0.04547323  0.02170447       0.007
   0.13991063  0.04524004  0.02147357       0.007
  -0.11659219  0.04780519  0.02401345       0.007
  -0.09327375  0.04757199  0.02378255       0.007
  -0.06995531  0.04733880  0.02355165       0.007
  -0.04663688  0.04710560  0.02332075       0.007
  -0.02331844  0.04687241  0.02308985       0.007
   0.06995531  0.06925923  0.02193537       0.003
   0.09327375  0.06902604  0.02170447       0.007
   0.11659219  0.06879284  0.02147357       0.007
   0.13991063  0.06855964  0.02124267       0.007
  -0.11659219  0.07112479  0.02378255       0.007
  -0.09327375  0.07089160  0.02355165       0.007
  -0.06995531  0.07065840  0.02332076       0.007
  -0.04663688  0.07042521  0.02308986       0.007
  -0.02331844  0.07019201  0.02285896       0.007
   0.09327375  0.09234564  0.02147358       0.003
   0.11659219  0.09211245  0.02124268       0.007
   0.13991063  0.09187925  0.02101178       0.007
  -0.11659219  0.09444440  0.02355166       0.007
  -0.09327375  0.09421120  0.02332076       0.007
  -0.06995531  0.09397801  0.02308986       0.007
  -0.04663688  0.09374481  0.02285896       0.007
  -0.02331844  0.09351162  0.02262806       0.007
   0.11659219  0.11543205  0.02101178       0.003
   0.13991063  0.11519886  0.02078088       0.007
  -0.11659219  0.11776400  0.02332076       0.007
  -0.09327375  0.11753081  0.02308986       0.007
  -0.06995531  0.11729761  0.02285896       0.007
  -0.04663688  0.11706442  0.02262807       0.007
  -0.02331844  0.11683122  0.02239717       0.007
   0.13991063  0.13851846  0.02054999       0.003
  -0.11659219  0.14108361  0.02308987       0.007
  -0.09327375  0.14085041  0.02285897       0.007
  -0.06995531  0.14061722  0.02262807       0.007
  -0.04663688  0.14038402  0.02239717       0.007
  -0.02331844  0.14015083  0.02216627       0.003
  -0.11659219 -0.11543205  0.02562971       0.003
  -0.09327375 -0.11566525  0.02539882       0.007
  -0.06995531 -0.11589844  0.02516792       0.007
  -0.04663688 -0.11613164  0.02493702       0.007
  -0.09327375 -0.09234564  0.02516792       0.003
  -0.06995531 -0.09257884  0.02493702       0.007
  -0.04663688 -0.09281203  0.02470612       0.007
  -0.06995531 -0.06925923  0.02470613       0.003
  -0.04663688 -0.06949243  0.02447523       0.007
  -0.04663688 -0.04617282  0.02424433       0.003
   0.04663688  0.04617282  0.04571791       0.001
   0.06995531  0.04593962  0.04548701       0.003
   0.09327375  0.04570643  0.04525611       0.003
   0.11659219  0.04547323  0.04502522       0.003
   0.13991063  0.04524004  0.04479432       0.003
  -0.11659219  0.04780519  0.04733419       0.003
  -0.09327375  0.04757199  0.04710330       0.003
  -0.06995531  0.04733880  0.04687240       0.003
  -0.04663688  0.04710560  0.04664150       0.003
   0.06995531  0.06925923  0.04525612       0.003
   0.09327375  0.06902604  0.04502522       0.007
   0.11659219  0.06879284  0.04479432       0.007
   0.13991063  0.06855964  0.04456342       0.007
  -0.11659219  0.07112479  0.04710330       0.007
  -0.09327375  0.07089160  0.04687240       0.007
  -0.06995531  0.07065840  0.04664150       0.007
  -0.04663688  0.07042521  0.04641061       0.007
   0.09327375  0.09234564  0.04479432       0.003
   0.11659219  0.09211245  0.04456342       0.007
   0.13991063  0.09187925  0.04433253       0.007
  -0.11659219  0.09444440  0.04687240       0.007
  -0.09327375  0.09421120  0.04664151       0.007
  -0.06995531  0.09397801  0.04641061       0.007
  -0.04663688  0.09374481  0.04617971       0.007
   0.11659219  0.11543205  0.04433253       0.003
   0.13991063  0.11519886  0.04410163       0.007
  -0.11659219  0.11776400  0.04664151       0.007
  -0.09327375  0.11753081  0.04641061       0.007
  -0.06995531  0.11729761  0.04617971       0.007
  -0.04663688  0.11706442  0.04594881       0.007
   0.13991063  0.13851846  0.04387074       0.003
  -0.11659219  0.14108361  0.04641061       0.007
  -0.09327375  0.14085041  0.04617972       0.007
  -0.06995531  0.14061722  0.04594882       0.007
  -0.04663688  0.14038402  0.04571792       0.003
  -0.11659219 -0.11543205  0.04895046       0.003
  -0.09327375 -0.11566525  0.04871956       0.007
  -0.06995531 -0.11589844  0.04848867       0.007
  -0.09327375 -0.09234564  0.04848867       0.003
  -0.06995531 -0.09257884  0.04825777       0.007
  -0.06995531 -0.06925923  0.04802687       0.003
   0.06995531  0.06925923  0.06857686       0.001
   0.09327375  0.06902604  0.06834597       0.003
   0.11659219  0.06879284  0.06811507       0.003
   0.13991063  0.06855964  0.06788417       0.003
  -0.11659219  0.07112479  0.07042405       0.003
  -0.09327375  0.07089160  0.07019315       0.003
  -0.06995531  0.07065840  0.06996225       0.003
   0.09327375  0.09234564  0.06811507       0.003
   0.11659219  0.09211245  0.06788417       0.007
   0.13991063  0.09187925  0.06765327       0.007
  -0.11659219  0.09444440  0.07019315       0.007
  -0.09327375  0.09421120  0.06996225       0.007
  -0.06995531  0.09397801  0.06973136       0.007
   0.11659219  0.11543205  0.06765328       0.003
   0.13991063  0.11519886  0.06742238       0.007
  -0.11659219  0.11776400  0.06996226       0.007
  -0.09327375  0.11753081  0.06973136       0.007
  -0.06995531  0.11729761  0.06950046       0.007
   0.13991063  0.13851846  0.06719148       0.003
  -0.11659219  0.14108361  0.06973136       0.007
  -0.09327375  0.14085041  0.06950046       0.007
  -0.06995531  0.14061722  0.06926956       0.003
  -0.11659219 -0.11543205  0.07227121       0.003
  -0.09327375 -0.11566525  0.07204031       0.007
  -0.09327375 -0.09234564  0.07180942       0.003
   0.09327375  0.09234564  0.09143582       0.001
   0.11659219  0.09211245  0.09120492       0.003
   0.13991063  0.09187925  0.09097402       0.003
  -0.11659219  0.09444440  0.09351390       0.003
  -0.09327375  0.09421120  0.09328300       0.003
   0.11659219  0.11543205  0.09097402       0.003
   0.13991063  0.11519886  0.09074313       0.007
  -0.11659219  0.11776400  0.09328300       0.007
  -0.09327375  0.11753081  0.09305211       0.007
   0.13991063  0.13851846  0.09051223       0.003
  -0.11659219  0.14108361  0.09305211       0.007
  -0.09327375  0.14085041  0.09282121       0.003
  -0.11659219 -0.11543205  0.09559196       0.003
   0.11659219  0.11543205  0.11429477       0.001
   0.13991063  0.11519886  0.11406387       0.003
  -0.11659219  0.11776400  0.11660375       0.003
   0.13991063  0.13851846  0.11383298       0.003
  -0.11659219  0.14108361  0.11637286       0.003
   0.13991063  0.13851846  0.13715373       0.001
 
 k-points in reciprocal lattice and weights: kpt_density=1000                        
   0.00000000  0.00000000  0.00000000       0.001
   0.08333333  0.00000000 -0.00000000       0.003
   0.16666667  0.00000000 -0.00000000       0.003
   0.25000000  0.00000000 -0.00000000       0.003
   0.33333333  0.00000000 -0.00000000       0.003
   0.41666667  0.00000000 -0.00000000       0.003
   0.50000000  0.00000000 -0.00000000       0.002
   0.08333333  0.08333333 -0.00000000       0.003
   0.16666667  0.08333333 -0.00000000       0.007
   0.25000000  0.08333333 -0.00000000       0.007
   0.33333333  0.08333333 -0.00000000       0.007
   0.41666667  0.08333333 -0.00000000       0.007
   0.50000000  0.08333333 -0.00000000       0.007
  -0.41666667  0.08333333  0.00000000       0.007
  -0.33333333  0.08333333  0.00000000       0.007
  -0.25000000  0.08333333  0.00000000       0.007
  -0.16666667  0.08333333 -0.00000000       0.007
  -0.08333333  0.08333333 -0.00000000       0.003
   0.16666667  0.16666667 -0.00000000       0.003
   0.25000000  0.16666667 -0.00000000       0.007
   0.33333333  0.16666667 -0.00000000       0.007
   0.41666667  0.16666667 -0.00000000       0.007
   0.50000000  0.16666667 -0.00000000       0.007
  -0.41666667  0.16666667  0.00000000       0.007
  -0.33333333  0.16666667  0.00000000       0.007
  -0.25000000  0.16666667  0.00000000       0.007
  -0.16666667  0.16666667 -0.00000000       0.003
   0.25000000  0.25000000 -0.00000000       0.003
   0.33333333  0.25000000 -0.00000000       0.007
   0.41666667  0.25000000 -0.00000000       0.007
   0.50000000  0.25000000 -0.00000000       0.007
  -0.41666667  0.25000000  0.00000000       0.007
  -0.33333333  0.25000000 -0.00000000       0.007
  -0.25000000  0.25000000 -0.00000000       0.003
   0.33333333  0.33333333 -0.00000000       0.003
   0.41666667  0.33333333 -0.00000000       0.007
   0.50000000  0.33333333 -0.00000000       0.007
  -0.41666667  0.33333333  0.00000000       0.007
  -0.33333333  0.33333333 -0.00000000       0.003
   0.41666667  0.41666667 -0.00000000       0.003
   0.50000000  0.41666667 -0.00000000       0.007
  -0.41666667  0.41666667  0.00000000       0.003
   0.50000000  0.50000000 -0.00000000       0.002
   0.08333333  0.08333333  0.08333333       0.001
   0.16666667  0.08333333  0.08333333       0.003
   0.25000000  0.08333333  0.08333333       0.003
   0.33333333  0.08333333  0.08333333       0.003
   0.41666667  0.08333333  0.08333333       0.003
   0.50000000  0.08333333  0.08333333       0.003
  -0.41666667  0.08333333  0.08333333       0.003
  -0.33333333  0.08333333  0.08333333       0.003
  -0.25000000  0.08333333  0.08333333       0.003
  -0.16666667  0.08333333  0.08333333       0.003
  -0.08333333  0.08333333  0.08333333       0.003
   0.16666667  0.16666667  0.08333333       0.003
   0.25000000  0.16666667  0.08333333       0.007
   0.33333333  0.16666667  0.08333333       0.007
   0.41666667  0.16666667  0.08333333       0.007
   0.50000000  0.16666667  0.08333333       0.007
  -0.41666667  0.16666667  0.08333333       0.007
  -0.33333333  0.16666667  0.08333333       0.007
  -0.25000000  0.16666667  0.08333333       0.007
  -0.16666667  0.16666667  0.08333333       0.007
  -0.08333333  0.16666667  0.08333333       0.007
   0.25000000  0.25000000  0.08333333       0.003
   0.33333333  0.25000000  0.08333333       0.007
   0.41666667  0.25000000  0.08333333       0.007
   0.50000000  0.25000000  0.08333333       0.007
  -0.41666667  0.25000000  0.08333333       0.007
  -0.33333333  0.25000000  0.08333333       0.007
  -0.25000000  0.25000000  0.08333333       0.007
  -0.16666667  0.25000000  0.08333333       0.007
  -0.08333333  0.25000000  0.08333333       0.007
   0.33333333  0.33333333  0.08333333       0.003
   0.41666667  0.33333333  0.08333333       0.007
   0.50000000  0.33333333  0.08333333       0.007
  -0.41666667  0.33333333  0.08333333       0.007
  -0.33333333  0.33333333  0.08333333       0.007
  -0.25000000  0.33333333  0.08333333       0.007
  -0.16666667  0.33333333  0.08333333       0.007
  -0.08333333  0.33333333  0.08333333       0.007
   0.41666667  0.41666667  0.08333333       0.003
   0.50000000  0.41666667  0.08333333       0.007
  -0.41666667  0.41666667  0.08333333       0.007
  -0.33333333  0.41666667  0.08333333       0.007
  -0.25000000  0.41666667  0.08333333       0.007
  -0.16666667  0.41666667  0.08333333       0.007
  -0.08333333  0.41666667  0.08333333       0.007
   0.50000000  0.50000000  0.08333333       0.003
  -0.41666667  0.50000000  0.08333333       0.007
  -0.33333333  0.50000000  0.08333333       0.007
  -0.25000000  0.50000000  0.08333333       0.007
  -0.16666667  0.50000000  0.08333333       0.007
  -0.08333333  0.50000000  0.08333333       0.003
  -0.41666667 -0.41666667  0.08333333       0.003
  -0.33333333 -0.41666667  0.08333333       0.007
  -0.25000000 -0.41666667  0.08333333       0.007
  -0.16666667 -0.41666667  0.08333333       0.007
  -0.33333333 -0.33333333  0.08333333       0.003
  -0.25000000 -0.33333333  0.08333333       0.007
  -0.16666667 -0.33333333  0.08333333       0.007
  -0.25000000 -0.25000000  0.08333333       0.003
  -0.16666667 -0.25000000  0.08333333       0.007
  -0.16666667 -0.16666667  0.08333333       0.003
   0.16666667  0.16666667  0.16666667       0.001
   0.25000000  0.16666667  0.16666667       0.003
   0.33333333  0.16666667  0.16666667       0.003
   0.41666667  0.16666667  0.16666667       0.003
   0.50000000  0.16666667  0.16666667       0.003
  -0.41666667  0.16666667  0.16666667       0.003
  -0.33333333  0.16666667  0.16666667       0.003
  -0.25000000  0.16666667  0.16666667       0.003
  -0.16666667  0.16666667  0.16666667       0.003
   0.25000000  0.25000000  0.16666667       0.003
   0.33333333  0.25000000  0.16666667       0.007
   0.41666667  0.25000000  0.16666667       0.007
   0.50000000  0.25000000  0.16666667       0.007
  -0.41666667  0.25000000  0.16666667       0.007
  -0.33333333  0.25000000  0.16666667       0.007
  -0.25000000  0.25000000  0.16666667       0.007
  -0.16666667  0.25000000  0.16666667       0.007
   0.33333333  0.33333333  0.16666667       0.003
   0.41666667  0.33333333  0.16666667       0.007
   0.50000000  0.33333333  0.16666667       0.007
  -0.41666667  0.33333333  0.16666667       0.007
  -0.33333333  0.33333333  0.16666667       0.007
  -0.25000000  0.33333333  0.16666667       0.007
  -0.16666667  0.33333333  0.16666667       0.007
   0.41666667  0.41666667  0.16666667       0.003
   0.50000000  0.41666667  0.16666667       0.007
  -0.41666667  0.41666667  0.16666667       0.007
  -0.33333333  0.41666667  0.16666667       0.007
  -0.25000000  0.41666667  0.16666667       0.007
  -0.16666667  0.41666667  0.16666667       0.007
   0.50000000  0.50000000  0.16666667       0.003
  -0.41666667  0.50000000  0.16666667       0.007
  -0.33333333  0.50000000  0.16666667       0.007
  -0.25000000  0.50000000  0.16666667       0.007
  -0.16666667  0.50000000  0.16666667       0.003
  -0.41666667 -0.41666667  0.16666667       0.003
  -0.33333333 -0.41666667  0.16666667       0.007
  -0.25000000 -0.41666667  0.16666667       0.007
  -0.33333333 -0.33333333  0.16666667       0.003
  -0.25000000 -0.33333333  0.16666667       0.007
  -0.25000000 -0.25000000  0.16666667       0.003
   0.25000000  0.25000000  0.25000000       0.001
   0.33333333  0.25000000  0.25000000       0.003
   0.41666667  0.25000000  0.25000000       0.003
   0.50000000  0.25000000  0.25000000       0.003
  -0.41666667  0.25000000  0.25000000       0.003
  -0.33333333  0.25000000  0.25000000       0.003
  -0.25000000  0.25000000  0.25000000       0.003
   0.33333333  0.33333333  0.25000000       0.003
   0.41666667  0.33333333  0.25000000       0.007
   0.50000000  0.33333333  0.25000000       0.007
  -0.41666667  0.33333333  0.25000000       0.007
  -0.33333333  0.33333333  0.25000000       0.007
  -0.25000000  0.33333333  0.25000000       0.007
   0.41666667  0.41666667  0.25000000       0.003
   0.50000000  0.41666667  0.25000000       0.007
  -0.41666667  0.41666667  0.25000000       0.007
  -0.33333333  0.41666667  0.25000000       0.007
  -0.25000000  0.41666667  0.25000000       0.007
   0.50000000  0.50000000  0.25000000       0.003
  -0.41666667  0.50000000  0.25000000       0.007
  -0.33333333  0.50000000  0.25000000       0.007
  -0.25000000  0.50000000  0.25000000       0.003
  -0.41666667 -0.41666667  0.25000000       0.003
  -0.33333333 -0.41666667  0.25000000       0.007
  -0.33333333 -0.33333333  0.25000000       0.003
   0.33333333  0.33333333  0.33333333       0.001
   0.41666667  0.33333333  0.33333333       0.003
   0.50000000  0.33333333  0.33333333       0.003
  -0.41666667  0.33333333  0.33333333       0.003
  -0.33333333  0.33333333  0.33333333       0.003
   0.41666667  0.41666667  0.33333333       0.003
   0.50000000  0.41666667  0.33333333       0.007
  -0.41666667  0.41666667  0.33333333       0.007
  -0.33333333  0.41666667  0.33333333       0.007
   0.50000000  0.50000000  0.33333333       0.003
  -0.41666667  0.50000000  0.33333333       0.007
  -0.33333333  0.50000000  0.33333333       0.003
  -0.41666667 -0.41666667  0.33333333       0.003
   0.41666667  0.41666667  0.41666667       0.001
   0.50000000  0.41666667  0.41666667       0.003
  -0.41666667  0.41666667  0.41666667       0.003
   0.50000000  0.50000000  0.41666667       0.003
  -0.41666667  0.50000000  0.41666667       0.003
   0.50000000  0.50000000  0.50000000       0.001
 
 position of ions in fractional coordinates (direct lattice) 
   0.25000000  0.75000000  0.25000000
   0.00000000  0.00000000  0.50000000
   0.25000000  0.25000000  0.75000000
   0.00000000  0.50000000  0.00000000
   0.75000000  0.75000000  0.75000000
   0.50000000  0.00000000  0.00000000
   0.75000000  0.25000000  0.25000000
   0.50000000  0.50000000  0.50000000
 
 position of ions in cartesian coordinates  (Angst):
   0.93339973  2.70125022  0.89741094
   0.01794995  0.01777114  1.79482187
   0.93339973  0.92411159  2.69223281
   0.01794995  1.79490977  0.00000000
   2.74634936  2.71902136  2.69223281
   1.79499968  0.00000000  0.00000000
   2.71044947  0.90634045  0.89741094
   1.83089957  1.81268091  1.79482187
 


--------------------------------------------------------------------------------------------------------


 k-point  1 :   0.0000 0.0000 0.0000  plane waves:     829
 k-point  2 :   0.0833 0.0000-0.0000  plane waves:     834
 k-point  3 :   0.1667 0.0000-0.0000  plane waves:     835
 k-point  4 :   0.2500 0.0000-0.0000  plane waves:     834
 k-point  5 :   0.3333 0.0000-0.0000  plane waves:     840
 k-point  6 :   0.4167 0.0000-0.0000  plane waves:     835
 k-point  7 :   0.5000 0.0000-0.0000  plane waves:     836
 k-point  8 :   0.0833 0.0833-0.0000  plane waves:     838
 k-point  9 :   0.1667 0.0833-0.0000  plane waves:     834
 k-point 10 :   0.2500 0.0833-0.0000  plane waves:     832
 k-point 11 :   0.3333 0.0833-0.0000  plane waves:     838
 k-point 12 :   0.4167 0.0833-0.0000  plane waves:     837
 k-point 13 :   0.5000 0.0833-0.0000  plane waves:     837
 k-point 14 :  -0.4167 0.0833 0.0000  plane waves:     840
 k-point 15 :  -0.3333 0.0833 0.0000  plane waves:     838
 k-point 16 :  -0.2500 0.0833 0.0000  plane waves:     837
 k-point 17 :  -0.1667 0.0833-0.0000  plane waves:     834
 k-point 18 :  -0.0833 0.0833-0.0000  plane waves:     837
 k-point 19 :   0.1667 0.1667-0.0000  plane waves:     833
 k-point 20 :   0.2500 0.1667-0.0000  plane waves:     838
 k-point 21 :   0.3333 0.1667-0.0000  plane waves:     840
 k-point 22 :   0.4167 0.1667-0.0000  plane waves:     837
 k-point 23 :   0.5000 0.1667-0.0000  plane waves:     840
 k-point 24 :  -0.4167 0.1667 0.0000  plane waves:     843
 k-point 25 :  -0.3333 0.1667 0.0000  plane waves:     842
 k-point 26 :  -0.2500 0.1667 0.0000  plane waves:     841
 k-point 27 :  -0.1667 0.1667-0.0000  plane waves:     838
 k-point 28 :   0.2500 0.2500-0.0000  plane waves:     838
 k-point 29 :   0.3333 0.2500-0.0000  plane waves:     839
 k-point 30 :   0.4167 0.2500-0.0000  plane waves:     843
 k-point 31 :   0.5000 0.2500-0.0000  plane waves:     837
 k-point 32 :  -0.4167 0.2500 0.0000  plane waves:     842
 k-point 33 :  -0.3333 0.2500-0.0000  plane waves:     844
 k-point 34 :  -0.2500 0.2500-0.0000  plane waves:     842
 k-point 35 :   0.3333 0.3333-0.0000  plane waves:     842
 k-point 36 :   0.4167 0.3333-0.0000  plane waves:     839
 k-point 37 :   0.5000 0.3333-0.0000  plane waves:     838
 k-point 38 :  -0.4167 0.3333 0.0000  plane waves:     838
 k-point 39 :  -0.3333 0.3333-0.0000  plane waves:     848
 k-point 40 :   0.4167 0.4167-0.0000  plane waves:     841
 k-point 41 :   0.5000 0.4167-0.0000  plane waves:     844
 k-point 42 :  -0.4167 0.4167 0.0000  plane waves:     844
 k-point 43 :   0.5000 0.5000-0.0000  plane waves:     848
 k-point 44 :   0.0833 0.0833 0.0833  plane waves:     838
 k-point 45 :   0.1667 0.0833 0.0833  plane waves:     831
 k-point 46 :   0.2500 0.0833 0.0833  plane waves:     830
 k-point 47 :   0.3333 0.0833 0.0833  plane waves:     833
 k-point 48 :   0.4167 0.0833 0.0833  plane waves:     834
 k-point 49 :   0.5000 0.0833 0.0833  plane waves:     836
 k-point 50 :  -0.4167 0.0833 0.0833  plane waves:     840
 k-point 51 :  -0.3333 0.0833 0.0833  plane waves:     842
 k-point 52 :  -0.2500 0.0833 0.0833  plane waves:     838
 k-point 53 :  -0.1667 0.0833 0.0833  plane waves:     834
 k-point 54 :  -0.0833 0.0833 0.0833  plane waves:     836
 k-point 55 :   0.1667 0.1667 0.0833  plane waves:     827
 k-point 56 :   0.2500 0.1667 0.0833  plane waves:     833
 k-point 57 :   0.3333 0.1667 0.0833  plane waves:     839
 k-point 58 :   0.4167 0.1667 0.0833  plane waves:     840
 k-point 59 :   0.5000 0.1667 0.0833  plane waves:     841
 k-point 60 :  -0.4167 0.1667 0.0833  plane waves:     841
 k-point 61 :  -0.3333 0.1667 0.0833  plane waves:     839
 k-point 62 :  -0.2500 0.1667 0.0833  plane waves:     839
 k-point 63 :  -0.1667 0.1667 0.0833  plane waves:     838
 k-point 64 :  -0.0833 0.1667 0.0833  plane waves:     834
 k-point 65 :   0.2500 0.2500 0.0833  plane waves:     836
 k-point 66 :   0.3333 0.2500 0.0833  plane waves:     843
 k-point 67 :   0.4167 0.2500 0.0833  plane waves:     841
 k-point 68 :   0.5000 0.2500 0.0833  plane waves:     841
 k-point 69 :  -0.4167 0.2500 0.0833  plane waves:     842
 k-point 70 :  -0.3333 0.2500 0.0833  plane waves:     847
 k-point 71 :  -0.2500 0.2500 0.0833  plane waves:     841
 k-point 72 :  -0.1667 0.2500 0.0833  plane waves:     836
 k-point 73 :  -0.0833 0.2500 0.0833  plane waves:     836
 k-point 74 :   0.3333 0.3333 0.0833  plane waves:     840
 k-point 75 :   0.4167 0.3333 0.0833  plane waves:     838
 k-point 76 :   0.5000 0.3333 0.0833  plane waves:     837
 k-point 77 :  -0.4167 0.3333 0.0833  plane waves:     839
 k-point 78 :  -0.3333 0.3333 0.0833  plane waves:     846
 k-point 79 :  -0.2500 0.3333 0.0833  plane waves:     842
 k-point 80 :  -0.1667 0.3333 0.0833  plane waves:     843
 k-point 81 :  -0.0833 0.3333 0.0833  plane waves:     842
 k-point 82 :   0.4167 0.4167 0.0833  plane waves:     849
 k-point 83 :   0.5000 0.4167 0.0833  plane waves:     840
 k-point 84 :  -0.4167 0.4167 0.0833  plane waves:     841
 k-point 85 :  -0.3333 0.4167 0.0833  plane waves:     842
 k-point 86 :  -0.2500 0.4167 0.0833  plane waves:     842
 k-point 87 :  -0.1667 0.4167 0.0833  plane waves:     842
 k-point 88 :  -0.0833 0.4167 0.0833  plane waves:     842
 k-point 89 :   0.5000 0.5000 0.0833  plane waves:     846
 k-point 90 :  -0.4167 0.5000 0.0833  plane waves:     841
 k-point 91 :  -0.3333 0.5000 0.0833  plane waves:     834
 k-point 92 :  -0.2500 0.5000 0.0833  plane waves:     838
 k-point 93 :  -0.1667 0.5000 0.0833  plane waves:     836
 k-point 94 :  -0.0833 0.5000 0.0833  plane waves:     842
 k-point 95 :  -0.4167-0.4167 0.0833  plane waves:     836
 k-point 96 :  -0.3333-0.4167 0.0833  plane waves:     840
 k-point 97 :  -0.2500-0.4167 0.0833  plane waves:     839
 k-point 98 :  -0.1667-0.4167 0.0833  plane waves:     841
 k-point 99 :  -0.3333-0.3333 0.0833  plane waves:     840
 k-point ** :  -0.2500-0.3333 0.0833  plane waves:     843
 k-point ** :  -0.1667-0.3333 0.0833  plane waves:     842
 k-point ** :  -0.2500-0.2500 0.0833  plane waves:     837
 k-point ** :  -0.1667-0.2500 0.0833  plane waves:     836
 k-point ** :  -0.1667-0.1667 0.0833  plane waves:     835
 k-point ** :   0.1667 0.1667 0.1667  plane waves:     832
 k-point ** :   0.2500 0.1667 0.1667  plane waves:     832
 k-point ** :   0.3333 0.1667 0.1667  plane waves:     841
 k-point ** :   0.4167 0.1667 0.1667  plane waves:     836
 k-point ** :   0.5000 0.1667 0.1667  plane waves:     834
 k-point ** :  -0.4167 0.1667 0.1667  plane waves:     840
 k-point ** :  -0.3333 0.1667 0.1667  plane waves:     849
 k-point ** :  -0.2500 0.1667 0.1667  plane waves:     839
 k-point ** :  -0.1667 0.1667 0.1667  plane waves:     833
 k-point ** :   0.2500 0.2500 0.1667  plane waves:     836
 k-point ** :   0.3333 0.2500 0.1667  plane waves:     837
 k-point ** :   0.4167 0.2500 0.1667  plane waves:     838
 k-point ** :   0.5000 0.2500 0.1667  plane waves:     836
 k-point ** :  -0.4167 0.2500 0.1667  plane waves:     839
 k-point ** :  -0.3333 0.2500 0.1667  plane waves:     844
 k-point ** :  -0.2500 0.2500 0.1667  plane waves:     842
 k-point ** :  -0.1667 0.2500 0.1667  plane waves:     834
 k-point ** :   0.3333 0.3333 0.1667  plane waves:     843
 k-point ** :   0.4167 0.3333 0.1667  plane waves:     840
 k-point ** :   0.5000 0.3333 0.1667  plane waves:     835
 k-point ** :  -0.4167 0.3333 0.1667  plane waves:     837
 k-point ** :  -0.3333 0.3333 0.1667  plane waves:     844
 k-point ** :  -0.2500 0.3333 0.1667  plane waves:     841
 k-point ** :  -0.1667 0.3333 0.1667  plane waves:     840
 k-point ** :   0.4167 0.4167 0.1667  plane waves:     843
 k-point ** :   0.5000 0.4167 0.1667  plane waves:     843
 k-point ** :  -0.4167 0.4167 0.1667  plane waves:     839
 k-point ** :  -0.3333 0.4167 0.1667  plane waves:     838
 k-point ** :  -0.2500 0.4167 0.1667  plane waves:     839
 k-point ** :  -0.1667 0.4167 0.1667  plane waves:     839
 k-point ** :   0.5000 0.5000 0.1667  plane waves:     847
 k-point ** :  -0.4167 0.5000 0.1667  plane waves:     842
 k-point ** :  -0.3333 0.5000 0.1667  plane waves:     839
 k-point ** :  -0.2500 0.5000 0.1667  plane waves:     834
 k-point ** :  -0.1667 0.5000 0.1667  plane waves:     840
 k-point ** :  -0.4167-0.4167 0.1667  plane waves:     833
 k-point ** :  -0.3333-0.4167 0.1667  plane waves:     838
 k-point ** :  -0.2500-0.4167 0.1667  plane waves:     839
 k-point ** :  -0.3333-0.3333 0.1667  plane waves:     848
 k-point ** :  -0.2500-0.3333 0.1667  plane waves:     847
 k-point ** :  -0.2500-0.2500 0.1667  plane waves:     846
 k-point ** :   0.2500 0.2500 0.2500  plane waves:     847
 k-point ** :   0.3333 0.2500 0.2500  plane waves:     844
 k-point ** :   0.4167 0.2500 0.2500  plane waves:     841
 k-point ** :   0.5000 0.2500 0.2500  plane waves:     843
 k-point ** :  -0.4167 0.2500 0.2500  plane waves:     838
 k-point ** :  -0.3333 0.2500 0.2500  plane waves:     842
 k-point ** :  -0.2500 0.2500 0.2500  plane waves:     844
 k-point ** :   0.3333 0.3333 0.2500  plane waves:     842
 k-point ** :   0.4167 0.3333 0.2500  plane waves:     838
 k-point ** :   0.5000 0.3333 0.2500  plane waves:     842
 k-point ** :  -0.4167 0.3333 0.2500  plane waves:     842
 k-point ** :  -0.3333 0.3333 0.2500  plane waves:     840
 k-point ** :  -0.2500 0.3333 0.2500  plane waves:     839
 k-point ** :   0.4167 0.4167 0.2500  plane waves:     841
 k-point ** :   0.5000 0.4167 0.2500  plane waves:     847
 k-point ** :  -0.4167 0.4167 0.2500  plane waves:     843
 k-point ** :  -0.3333 0.4167 0.2500  plane waves:     842
 k-point ** :  -0.2500 0.4167 0.2500  plane waves:     840
 k-point ** :   0.5000 0.5000 0.2500  plane waves:     846
 k-point ** :  -0.4167 0.5000 0.2500  plane waves:     849
 k-point ** :  -0.3333 0.5000 0.2500  plane waves:     846
 k-point ** :  -0.2500 0.5000 0.2500  plane waves:     842
 k-point ** :  -0.4167-0.4167 0.2500  plane waves:     852
 k-point ** :  -0.3333-0.4167 0.2500  plane waves:     840
 k-point ** :  -0.3333-0.3333 0.2500  plane waves:     845
 k-point ** :   0.3333 0.3333 0.3333  plane waves:     835
 k-point ** :   0.4167 0.3333 0.3333  plane waves:     843
 k-point ** :   0.5000 0.3333 0.3333  plane waves:     844
 k-point ** :  -0.4167 0.3333 0.3333  plane waves:     843
 k-point ** :  -0.3333 0.3333 0.3333  plane waves:     844
 k-point ** :   0.4167 0.4167 0.3333  plane waves:     848
 k-point ** :   0.5000 0.4167 0.3333  plane waves:     848
 k-point ** :  -0.4167 0.4167 0.3333  plane waves:     844
 k-point ** :  -0.3333 0.4167 0.3333  plane waves:     844
 k-point ** :   0.5000 0.5000 0.3333  plane waves:     849
 k-point ** :  -0.4167 0.5000 0.3333  plane waves:     851
 k-point ** :  -0.3333 0.5000 0.3333  plane waves:     844
 k-point ** :  -0.4167-0.4167 0.3333  plane waves:     845
 k-point ** :   0.4167 0.4167 0.4167  plane waves:     861
 k-point ** :   0.5000 0.4167 0.4167  plane waves:     861
 k-point ** :  -0.4167 0.4167 0.4167  plane waves:     857
 k-point ** :   0.5000 0.5000 0.4167  plane waves:     856
 k-point ** :  -0.4167 0.5000 0.4167  plane waves:     862
 k-point ** :   0.5000 0.5000 0.5000  plane waves:     852

 maximum and minimum number of plane-waves per node :       221      197

 maximum number of plane-waves:       862
 maximum index in each direction: 
   IXMAX=    6   IYMAX=    6   IZMAX=    5
   IXMIN=   -6   IYMIN=   -6   IZMIN=   -6


 parallel 3D FFT for wavefunctions:
    minimum data exchange during FFTs selected (reduces bandwidth)
 parallel 3D FFT for charge:
    minimum data exchange during FFTs selected (reduces bandwidth)


 total amount of memory used by VASP MPI-rank0    37803. kBytes
=======================================================================

   base      :      30000. kBytes
   nonl-proj :       2689. kBytes
   fftplans  :        346. kBytes
   grid      :        481. kBytes
   one-center:          6. kBytes
   wavefun   :       4281. kBytes
 
     INWAV:  cpu time    0.0004: real time    0.0005
 Broyden mixing: mesh for mixing (old mesh)
   NGX = 11   NGY = 11   NGZ = 11
  (NGX  = 48   NGY  = 48   NGZ  = 48)
  gives a total of   1331 points

 initial charge density was supplied:
 charge density of overlapping atoms calculated
 number of electron      32.0000000 magnetization 
 keeping initial charge density in first step


--------------------------------------------------------------------------------------------------------


 Maximum index for augmentation-charges          277 (set IRDMAX)


--------------------------------------------------------------------------------------------------------


 First call to EWALD:  gamma=   0.494
 Maximum number of real-space cells 3x 3x 3
 Maximum number of reciprocal cells 3x 3x 3

    FEWALD:  cpu time    0.0054: real time    0.0054


--------------------------------------- Iteration      1(   1)  ---------------------------------------


    POTLOK:  cpu time    0.0615: real time    0.0658
    SETDIJ:  cpu time    0.0066: real time    0.0066
     EDDAV:  cpu time    8.5092: real time    8.5195
 BZINTS: Fermi energy: 18.277530; 32.000000 electrons
         Band energy: 117.555179;  BLOECHL correction: -0.198041
       DOS:  cpu time    0.1542: real time    0.1542
    --------------------------------------------
      LOOP:  cpu time    8.7315: real time    8.7462

 eigenvalue-minimisations  :  9072
 total energy-change (2. order) : 0.5695833E+02  (-0.1438282E+04)
 number of electron      32.0000000 magnetization 
 augmentation part       32.0000000 magnetization 

 Free energy of the ion-electron system (eV)
  ---------------------------------------------------
  alpha Z        PSCENC =       112.72325754
  Ewald energy   TEWEN  =     -1382.83299393
  -Hartree energ DENC   =       -72.19836398
  -exchange      EXHF   =         0.00000000
  -V(xc)+E(xc)   XCENC  =       113.89730023
  PAW double counting   =       302.65154477     -311.85538214
  entropy T*S    EENTRO =         0.00000000
  eigenvalues    EBANDS =       117.55517918
  atomic energy  EATOM  =      1177.01779097
  Solvation  Ediel_sol  =         0.00000000
  ---------------------------------------------------
  free energy    TOTEN  =        56.95833264 eV

  energy without entropy =       56.95833264  energy(sigma->0) =       56.95833264


--------------------------------------------------------------------------------------------------------




--------------------------------------- Iteration      1(   2)  ---------------------------------------


     EDDAV:  cpu time   10.6148: real time   10.6158
 BZINTS: Fermi energy:  8.619734; 32.000000 electrons
         Band energy: -10.317837;  BLOECHL correction:  0.000000
       DOS:  cpu time    0.0375: real time    0.0375
    --------------------------------------------
      LOOP:  cpu time   10.6523: real time   10.6532

 eigenvalue-minimisations  : 12512
 total energy-change (2. order) :-0.1278730E+03  (-0.1214363E+03)
 number of electron      32.0000000 magnetization 
 augmentation part       32.0000000 magnetization 

 Free energy of the ion-electron system (eV)
  ---------------------------------------------------
  alpha Z        PSCENC =       112.72325754
  Ewald energy   TEWEN  =     -1382.83299393
  -Hartree energ DENC   =       -72.19836398
  -exchange      EXHF   =         0.00000000
  -V(xc)+E(xc)   XCENC  =       113.89730023
  PAW double counting   =       302.65154477     -311.85538214
  entropy T*S    EENTRO =         0.00000000
  eigenvalues    EBANDS =       -10.31783694
  atomic energy  EATOM  =      1177.01779097
  Solvation  Ediel_sol  =         0.00000000
  ---------------------------------------------------
  free energy    TOTEN  =       -70.91468348 eV

  energy without entropy =      -70.91468348  energy(sigma->0) =      -70.91468348


--------------------------------------------------------------------------------------------------------




--------------------------------------- Iteration      1(   3)  ---------------------------------------


     EDDAV:  cpu time   10.3663: real time   10.3687
 BZINTS: Fermi energy:  8.143638; 32.000000 electrons
         Band energy: -14.462983;  BLOECHL correction:  0.000000
       DOS:  cpu time    0.0375: real time    0.0375
    --------------------------------------------
      LOOP:  cpu time   10.4038: real time   10.4062

 eigenvalue-minimisations  : 11760
 total energy-change (2. order) :-0.4145146E+01  (-0.4124546E+01)
 number of electron      32.0000000 magnetization 
 augmentation part       32.0000000 magnetization 

 Free energy of the ion-electron system (eV)
  ---------------------------------------------------
  alpha Z        PSCENC =       112.72325754
  Ewald energy   TEWEN  =     -1382.83299393
  -Hartree energ DENC   =       -72.19836398
  -exchange      EXHF   =         0.00000000
  -V(xc)+E(xc)   XCENC  =       113.89730023
  PAW double counting   =       302.65154477     -311.85538214
  entropy T*S    EENTRO =         0.00000000
  eigenvalues    EBANDS =       -14.46298323
  atomic energy  EATOM  =      1177.01779097
  Solvation  Ediel_sol  =         0.00000000
  ---------------------------------------------------
  free energy    TOTEN  =       -75.05982977 eV

  energy without entropy =      -75.05982977  energy(sigma->0) =      -75.05982977


--------------------------------------------------------------------------------------------------------




--------------------------------------- Iteration      1(   4)  ---------------------------------------


     EDDAV:  cpu time   10.1258: real time   10.1267
 BZINTS: Fermi energy:  8.207820; 32.000000 electrons
         Band energy: -14.505764;  BLOECHL correction:  0.000000
       DOS:  cpu time    0.0417: real time    0.0417
    --------------------------------------------
      LOOP:  cpu time   10.1675: real time   10.1684

 eigenvalue-minimisations  : 11560
 total energy-change (2. order) :-0.4278032E-01  (-0.4274311E-01)
 number of electron      32.0000000 magnetization 
 augmentation part       32.0000000 magnetization 

 Free energy of the ion-electron system (eV)
  ---------------------------------------------------
  alpha Z        PSCENC =       112.72325754
  Ewald energy   TEWEN  =     -1382.83299393
  -Hartree energ DENC   =       -72.19836398
  -exchange      EXHF   =         0.00000000
  -V(xc)+E(xc)   XCENC  =       113.89730023
  PAW double counting   =       302.65154477     -311.85538214
  entropy T*S    EENTRO =         0.00000000
  eigenvalues    EBANDS =       -14.50576355
  atomic energy  EATOM  =      1177.01779097
  Solvation  Ediel_sol  =         0.00000000
  ---------------------------------------------------
  free energy    TOTEN  =       -75.10261009 eV

  energy without entropy =      -75.10261009  energy(sigma->0) =      -75.10261009


--------------------------------------------------------------------------------------------------------




--------------------------------------- Iteration      1(   5)  ---------------------------------------


     EDDAV:  cpu time   10.2820: real time   11.0803
 BZINTS: Fermi energy:  8.192499; 32.000000 electrons
         Band energy: -14.506609;  BLOECHL correction:  0.000000
       DOS:  cpu time    0.0419: real time    0.0419
    CHARGE:  cpu time    0.2419: real time    0.2419
    MIXING:  cpu time    0.0016: real time    0.0016
    --------------------------------------------
      LOOP:  cpu time   10.5673: real time   11.3657

 eigenvalue-minimisations  : 11752
 total energy-change (2. order) :-0.8456250E-03  (-0.8453153E-03)
 number of electron      32.0000029 magnetization 
 augmentation part        0.7735860 magnetization 

 Broyden mixing:
  rms(total) = 0.92873E+00    rms(broyden)= 0.92856E+00
  rms(prec ) = 0.21873E+01
  weight for this iteration     100.00

 Free energy of the ion-electron system (eV)
  ---------------------------------------------------
  alpha Z        PSCENC =       112.72325754
  Ewald energy   TEWEN  =     -1382.83299393
  -Hartree energ DENC   =       -72.19836398
  -exchange      EXHF   =         0.00000000
  -V(xc)+E(xc)   XCENC  =       113.89730023
  PAW double counting   =       302.65154477     -311.85538214
  entropy T*S    EENTRO =         0.00000000
  eigenvalues    EBANDS =       -14.50660917
  atomic energy  EATOM  =      1177.01779097
  Solvation  Ediel_sol  =         0.00000000
  ---------------------------------------------------
  free energy    TOTEN  =       -75.10345571 eV

  energy without entropy =      -75.10345571  energy(sigma->0) =      -75.10345571


--------------------------------------------------------------------------------------------------------




--------------------------------------- Iteration      1(   6)  ---------------------------------------


    POTLOK:  cpu time    0.0203: real time    0.0206
    SETDIJ:  cpu time    0.0058: real time    0.0058
     EDDAV:  cpu time    9.3973: real time    9.3978
 BZINTS: Fermi energy:  8.821016; 32.000000 electrons
         Band energy:   1.333067;  BLOECHL correction:  0.000000
       DOS:  cpu time    0.0372: real time    0.0372
    CHARGE:  cpu time    0.2544: real time    0.2544
    MIXING:  cpu time    0.0018: real time    0.0018
    --------------------------------------------
      LOOP:  cpu time    9.7167: real time    9.7175

 eigenvalue-minimisations  : 10408
 total energy-change (2. order) : 0.1791773E+01  (-0.1191445E+00)
 number of electron      32.0000028 magnetization 
 augmentation part        0.7563416 magnetization 

 Broyden mixing:
  rms(total) = 0.51055E+00    rms(broyden)= 0.51053E+00
  rms(prec ) = 0.11850E+01
  weight for this iteration     100.00

 eigenvalues of (default mixing * dielectric matrix)
  average eigenvalue GAMMA=   2.1727
  2.1727

 Free energy of the ion-electron system (eV)
  ---------------------------------------------------
  alpha Z        PSCENC =       112.72325754
  Ewald energy   TEWEN  =     -1382.83299393
  -Hartree energ DENC   =       -87.12373725
  -exchange      EXHF   =         0.00000000
  -V(xc)+E(xc)   XCENC  =       115.29204466
  PAW double counting   =       390.54601579     -400.26712775
  entropy T*S    EENTRO =         0.00000000
  eigenvalues    EBANDS =         1.33306734
  atomic energy  EATOM  =      1177.01779097
  Solvation  Ediel_sol  =         0.00000000
  ---------------------------------------------------
  free energy    TOTEN  =       -73.31168264 eV

  energy without entropy =      -73.31168264  energy(sigma->0) =      -73.31168264


--------------------------------------------------------------------------------------------------------




--------------------------------------- Iteration      1(   7)  ---------------------------------------


    POTLOK:  cpu time    0.0197: real time    0.0201
    SETDIJ:  cpu time    0.0058: real time    0.0058
     EDDAV:  cpu time    9.5822: real time    9.5826
 BZINTS: Fermi energy:  9.510537; 32.000000 electrons
         Band energy:  19.690492;  BLOECHL correction:  0.000000
       DOS:  cpu time    0.0376: real time    0.0376
    CHARGE:  cpu time    0.2491: real time    0.2491
    MIXING:  cpu time    0.0020: real time    0.0020
    --------------------------------------------
      LOOP:  cpu time    9.8963: real time    9.8971

 eigenvalue-minimisations  : 10648
 total energy-change (2. order) : 0.6054168E+00  (-0.1352579E+00)
 number of electron      32.0000028 magnetization 
 augmentation part        0.7377708 magnetization 

 Broyden mixing:
  rms(total) = 0.69156E-01    rms(broyden)= 0.68827E-01
  rms(prec ) = 0.12052E+00
  weight for this iteration     100.00

 eigenvalues of (default mixing * dielectric matrix)
  average eigenvalue GAMMA=   2.2682
  2.0030  2.5335

 Free energy of the ion-electron system (eV)
  ---------------------------------------------------
  alpha Z        PSCENC =       112.72325754
  Ewald energy   TEWEN  =     -1382.83299393
  -Hartree energ DENC   =      -106.18934397
  -exchange      EXHF   =         0.00000000
  -V(xc)+E(xc)   XCENC  =       117.09567830
  PAW double counting   =       509.73038574     -519.94153218
  entropy T*S    EENTRO =         0.00000000
  eigenvalues    EBANDS =        19.69049172
  atomic energy  EATOM  =      1177.01779097
  Solvation  Ediel_sol  =         0.00000000
  ---------------------------------------------------
  free energy    TOTEN  =       -72.70626582 eV

  energy without entropy =      -72.70626582  energy(sigma->0) =      -72.70626582


--------------------------------------------------------------------------------------------------------




--------------------------------------- Iteration      1(   8)  ---------------------------------------


    POTLOK:  cpu time    0.0203: real time    0.0205
    SETDIJ:  cpu time    0.0057: real time    0.0057
     EDDAV:  cpu time   10.1879: real time   10.1884
 BZINTS: Fermi energy:  9.512361; 32.000000 electrons
         Band energy:  19.991843;  BLOECHL correction:  0.000000
       DOS:  cpu time    0.0373: real time    0.0373
    CHARGE:  cpu time    0.2413: real time    0.2413
    MIXING:  cpu time    0.0021: real time    0.0021
    --------------------------------------------
      LOOP:  cpu time   10.4946: real time   10.4954

 eigenvalue-minimisations  : 11584
 total energy-change (2. order) :-0.7263851E-02  (-0.2725418E-02)
 number of electron      32.0000028 magnetization 
 augmentation part        0.7382238 magnetization 

 Broyden mixing:
  rms(total) = 0.78820E-02    rms(broyden)= 0.77807E-02
  rms(prec ) = 0.13660E-01
  weight for this iteration     100.00

 eigenvalues of (default mixing * dielectric matrix)
  average eigenvalue GAMMA=   2.0965
  1.4477  2.6741  2.1678

 Free energy of the ion-electron system (eV)
  ---------------------------------------------------
  alpha Z        PSCENC =       112.72325754
  Ewald energy   TEWEN  =     -1382.83299393
  -Hartree energ DENC   =      -106.67405367
  -exchange      EXHF   =         0.00000000
  -V(xc)+E(xc)   XCENC  =       117.14501652
  PAW double counting   =       518.43682442     -528.52121473
[...]

 k-point   177 :       0.5000    0.4167    0.3333
  band No.  band energies     occupation 
      1      -7.2269      2.00000
      2      -7.0514      2.00000
      3      -5.9601      2.00000
      4      -5.9320      2.00000
      5      -3.2110      2.00000
      6      -3.1820      2.00000
      7      -2.1868      2.00000
      8      -2.1206      2.00000
      9       5.4283      2.00000
     10       5.4509      2.00000
     11       6.1692      2.00000
     12       6.2751      2.00000
     13       6.2802      2.00000
     14       6.3212      2.00000
     15       6.7181      2.00000
     16       6.8606      2.00000
     17      17.4974      0.00000
     18      17.5053      0.00000
     19      17.6056      0.00000
     20      17.7160      0.00000
     21      18.1296      0.00000
     22      18.2718      0.00000
     23      18.3159      0.00000
     24      18.3586      0.00000

 k-point   178 :      -0.4167    0.4167    0.3333
  band No.  band energies     occupation 
      1      -7.6771      2.00000
      2      -6.5817      2.00000
      3      -6.3987      2.00000
      4      -5.6724      2.00000
      5      -3.3462      2.00000
      6      -2.6987      2.00000
      7      -2.6354      2.00000
      8      -1.3970      2.00000
      9       5.1469      2.00000
     10       5.6172      2.00000
     11       5.7617      2.00000
     12       6.1188      2.00000
     13       6.1639      2.00000
     14       6.3522      2.00000
     15       6.5430      2.00000
     16       7.0198      2.00000
     17      17.1006      0.00000
     18      17.2676      0.00000
     19      17.4689      0.00000
     20      17.5032      0.00000
     21      17.9957      0.00000
     22      18.1577      0.00000
     23      18.6045      0.00000
     24      18.6823      0.00000

 k-point   179 :      -0.3333    0.4167    0.3333
  band No.  band energies     occupation 
      1      -8.2105      2.00000
      2      -6.8373      2.00000
      3      -5.9574      2.00000
      4      -5.7146      2.00000
      5      -2.9702      2.00000
      6      -2.9686      2.00000
      7      -1.8790      2.00000
      8      -0.5527      2.00000
      9       4.6977      2.00000
     10       4.8756      2.00000
     11       5.6068      2.00000
     12       5.7962      2.00000
     13       5.9011      2.00000
     14       5.9208      2.00000
     15       6.7497      2.00000
     16       7.0230      2.00000
     17      16.7601      0.00000
     18      16.9304      0.00000
     19      17.1868      0.00000
     20      17.3736      0.00000
     21      18.0055      0.00000
     22      18.1629      0.00000
     23      18.8823      0.00000
     24      19.2356      0.00000

 k-point   180 :       0.5000    0.5000    0.3333
  band No.  band energies     occupation 
      1      -6.6994      2.00000
      2      -6.5166      2.00000
      3      -6.4893      2.00000
      4      -6.4893      2.00000
      5      -2.8073      2.00000
      6      -2.7704      2.00000
      7      -2.7704      2.00000
      8      -2.7419      2.00000
      9       5.8326      2.00000
     10       5.8428      2.00000
     11       5.8428      2.00000
     12       6.0076      2.00000
     13       6.6320      2.00000
     14       6.6481      2.00000
     15       6.6481      2.00000
     16       6.7987      2.00000
     17      17.5925      0.00000
     18      17.5925      0.00000
     19      17.7236      0.00000
     20      17.8627      0.00000
     21      18.1494      0.00000
     22      18.1494      0.00000
     23      18.2882      0.00000
     24      18.3199      0.00000

 k-point   181 :      -0.4167    0.5000    0.3333
  band No.  band energies     occupation 
      1      -7.0765      2.00000
      2      -7.0612      2.00000
      3      -6.1878      2.00000
      4      -5.9358      2.00000
      5      -3.1953      2.00000
      6      -3.1919      2.00000
      7      -2.0986      2.00000
      8      -2.0823      2.00000
      9       5.3989      2.00000
     10       5.5853      2.00000
     11       6.1377      2.00000
     12       6.1484      2.00000
     13       6.3138      2.00000
     14       6.4437      2.00000
     15       6.6845      2.00000
     16       6.7167      2.00000
     17      17.4984      0.00000
     18      17.5620      0.00000
     19      17.5786      0.00000
     20      17.7497      0.00000
     21      18.0031      0.00000
     22      18.0205      0.00000
     23      18.1957      0.00000
     24      18.4299      0.00000

 k-point   182 :      -0.3333    0.5000    0.3333
  band No.  band energies     occupation 
      1      -7.5691      2.00000
      2      -7.5691      2.00000
      3      -5.8336      2.00000
      4      -5.5569      2.00000
      5      -3.2307      2.00000
      6      -3.2003      2.00000
      7      -1.2776      2.00000
      8      -1.2776      2.00000
      9       4.7534      2.00000
     10       4.9538      2.00000
     11       5.8866      2.00000
     12       5.9914      2.00000
     13       6.3120      2.00000
     14       6.3120      2.00000
     15       6.4774      2.00000
     16       6.4774      2.00000
     17      17.1028      0.00000
     18      17.1028      0.00000
     19      17.6253      0.00000
     20      17.7453      0.00000
     21      17.9748      0.00000
     22      18.5173      0.00000
     23      18.5413      0.00000
     24      18.5419      0.00000

 k-point   183 :      -0.4167   -0.4167    0.3333
  band No.  band energies     occupation 
      1      -7.6903      2.00000
      2      -6.3823      2.00000
      3      -6.3823      2.00000
      4      -5.9467      2.00000
      5      -3.3147      2.00000
      6      -2.6464      2.00000
      7      -2.6464      2.00000
      8      -1.3767      2.00000
      9       5.2987      2.00000
     10       5.5662      2.00000
     11       5.5662      2.00000
     12       6.2256      2.00000
     13       6.2256      2.00000
     14       6.2814      2.00000
     15       6.5358      2.00000
     16       6.9873      2.00000
     17      17.2472      0.00000
     18      17.2472      0.00000
     19      17.3421      0.00000
     20      17.7450      0.00000
     21      17.8970      0.00000
     22      18.0664      0.00000
     23      18.3346      0.00000
     24      18.3346      0.00000

 k-point   184 :       0.4167    0.4167    0.4167
  band No.  band energies     occupation 
      1      -7.3460      2.00000
      2      -6.0456      2.00000
      3      -6.0456      2.00000
      4      -6.0456      2.00000
      5      -3.3263      2.00000
      6      -3.3263      2.00000
      7      -3.3263      2.00000
      8      -2.2962      2.00000
      9       6.0665      2.00000
     10       6.0665      2.00000
     11       6.0665      2.00000
     12       6.3492      2.00000
     13       6.3492      2.00000
     14       6.3492      2.00000
     15       6.9838      2.00000
     16       6.9838      2.00000
     17      17.4343      0.00000
     18      17.4343      0.00000
     19      17.4343      0.00000
     20      17.9156      0.00000
     21      17.9156      0.00000
     22      18.3290      0.00000
     23      18.5135      0.00000
     24      18.5139      0.00000

 k-point   185 :       0.5000    0.4167    0.4167
  band No.  band energies     occupation 
      1      -6.8159      2.00000
      2      -6.6058      2.00000
      3      -5.8986      2.00000
      4      -5.8986      2.00000
      5      -3.5757      2.00000
      6      -3.5757      2.00000
      7      -2.9216      2.00000
      8      -2.8833      2.00000
      9       6.1506      2.00000
     10       6.1506      2.00000
     11       6.4619      2.00000
     12       6.4619      2.00000
     13       6.5746      2.00000
     14       6.6637      2.00000
     15       6.7625      2.00000
     16       6.8033      2.00000
     17      17.5383      0.00000
     18      17.6230      0.00000
     19      17.6230      0.00000
     20      17.7864      0.00000
     21      18.0715      0.00000
     22      18.1290      0.00000
     23      18.1298      0.00000
     24      18.1672      0.00000

 k-point   186 :      -0.4167    0.4167    0.4167
  band No.  band energies     occupation 
      1      -7.1803      2.00000
      2      -6.3016      2.00000
      3      -6.0587      2.00000
      4      -6.0587      2.00000
      5      -3.3086      2.00000
      6      -3.3008      2.00000
      7      -3.3008      2.00000
      8      -2.2054      2.00000
      9       6.0379      2.00000
     10       6.0379      2.00000
     11       6.2081      2.00000
     12       6.3521      2.00000
     13       6.3521      2.00000
     14       6.5200      2.00000
     15       6.7946      2.00000
     16       6.8319      2.00000
     17      17.3678      0.00000
     18      17.3678      0.00000
     19      17.5430      0.00000
     20      17.5936      0.00000
     21      17.9765      0.00000
     22      18.0143      0.00000
     23      18.3889      0.00000
     24      18.3945      0.00000

 k-point   187 :       0.5000    0.5000    0.4167
  band No.  band energies     occupation 
      1      -6.4168      2.00000
      2      -6.1738      2.00000
      3      -6.1645      2.00000
      4      -6.1645      2.00000
      5      -3.4239      2.00000
      6      -3.4239      2.00000
      7      -3.4238      2.00000
      8      -3.4142      2.00000
      9       6.4578      2.00000
     10       6.4578      2.00000
     11       6.4780      2.00000
     12       6.6412      2.00000
     13       6.6597      2.00000
     14       6.6909      2.00000
     15       6.6909      2.00000
     16       6.8498      2.00000
     17      17.6025      0.00000
     18      17.6026      0.00000
     19      17.6758      0.00000
     20      17.9407      0.00000
     21      18.0096      0.00000
     22      18.0110      0.00000
     23      18.0399      0.00000
     24      18.0914      0.00000

 k-point   188 :      -0.4167    0.5000    0.4167
  band No.  band energies     occupation 
      1      -6.6166      2.00000
      2      -6.6166      2.00000
      3      -6.1735      2.00000
      4      -5.8959      2.00000
      5      -3.5726      2.00000
      6      -3.5474      2.00000
      7      -2.8660      2.00000
      8      -2.8660      2.00000
      9       6.1030      2.00000
     10       6.3012      2.00000
     11       6.5039      2.00000
     12       6.5858      2.00000
     13       6.5858      2.00000
     14       6.6321      2.00000
     15       6.6321      2.00000
     16       6.6435      2.00000
     17      17.5530      0.00000
     18      17.5530      0.00000
     19      17.6862      0.00000
     20      17.8553      0.00000
     21      17.8595      0.00000
     22      18.0364      0.00000
     23      18.0367      0.00000
     24      18.2145      0.00000

 k-point   189 :       0.5000    0.5000    0.5000
  band No.  band energies     occupation 
      1      -6.2872      2.00000
      2      -6.0093      2.00000
      3      -6.0093      2.00000
      4      -6.0093      2.00000
      5      -3.6892      2.00000
      6      -3.6892      2.00000
      7      -3.6892      2.00000
      8      -3.6653      2.00000
      9       6.6717      2.00000
     10       6.6717      2.00000
     11       6.6717      2.00000
     12       6.7110      2.00000
     13       6.7110      2.00000
     14       6.7110      2.00000
     15       6.8686      2.00000
     16       6.8686      2.00000
     17      17.5703      0.00000
     18      17.5703      0.00000
     19      17.5703      0.00000
     20      17.9501      0.00000
     21      17.9503      0.00000
     22      17.9985      0.00000
     23      18.0016      0.00000
     24      18.0128      0.00000


--------------------------------------------------------------------------------------------------------


 soft charge-density along one line, spin component           1
         0         1         2         3         4         5         6         7         8         9
 total charge-density along one line
 
 pseudopotential strength for first ion, spin component:           1
  9.454  -0.004   0.000   0.000   0.000  -0.000  -0.000  -0.000
 -0.004  -0.002   0.000   0.000   0.000  -0.000  -0.000  -0.000
  0.000   0.000  -3.675  -0.000  -0.000  -0.008   0.000   0.000
  0.000   0.000  -0.000  -3.675  -0.000   0.000  -0.008   0.000
  0.000   0.000  -0.000  -0.000  -3.675   0.000   0.000  -0.008
 -0.000  -0.000  -0.008   0.000   0.000  -0.757  -0.000  -0.000
 -0.000  -0.000   0.000  -0.008   0.000  -0.000  -0.757  -0.000
 -0.000  -0.000   0.000   0.000  -0.008  -0.000  -0.000  -0.757
 total augmentation occupancy for first ion, spin component:           1
  1.422  -1.010   0.003   0.003   0.003   0.002   0.002   0.002
 -1.010   0.995  -0.008  -0.008  -0.008  -0.003  -0.003  -0.003
  0.003  -0.008   1.089  -0.007  -0.007   0.182  -0.001  -0.001
  0.003  -0.008  -0.007   1.089  -0.007  -0.001   0.182  -0.001
  0.003  -0.008  -0.007  -0.007   1.089  -0.001  -0.001   0.182
  0.002  -0.003   0.182  -0.001  -0.001   0.036  -0.000  -0.000
  0.002  -0.003  -0.001   0.182  -0.001  -0.000   0.036  -0.000
  0.002  -0.003  -0.001  -0.001   0.182  -0.000  -0.000   0.036


------------------------ aborting loop because EDIFF is reached ----------------------------------------


    CHARGE:  cpu time    0.2558: real time    0.2559
    FORLOC:  cpu time    0.0019: real time    0.0019
    FORNL :  cpu time    0.4323: real time    0.4323
    STRESS:  cpu time    1.0111: real time    1.0113
    FORHAR:  cpu time    0.0057: real time    0.0057
    MIXING:  cpu time    0.0019: real time    0.0019
    OFIELD:  cpu time    0.0001: real time    0.0001

  FORCE on cell =-STRESS in cart. coord.  units (eV):
  Direction    XX          YY          ZZ          XY          YZ          ZX
  --------------------------------------------------------------------------------------
  Alpha Z   112.72326   112.72326   112.72326
  Ewald    -461.04867  -460.94413  -460.84258    -5.22980    -5.12669    -5.17828
  Hartree    35.51484    35.54233    35.56903    -1.37506    -1.34796    -1.36151
  E(xc)    -119.18960  -119.18947  -119.18935    -0.00648    -0.00635    -0.00641
  Local     -47.90657   -48.02900   -48.14795     6.12512     6.00441     6.06477
  n-local   -27.50520   -27.82287   -27.44701     0.16790     0.69076    -0.18326
  augment    -2.77245    -2.77246    -2.77247     0.00061     0.00060     0.00061
  Kinetic   501.75807   506.97144   513.46947    -0.86428    -4.92938     1.98492
  Fock        0.00000     0.00000     0.00000     0.00000     0.00000     0.00000
  -------------------------------------------------------------------------------------
  Total      -2.89266    -2.86130    -2.83087    -1.56774    -1.53684    -1.55229
  in kB    -100.18194   -99.09595   -98.04195   -54.29566   -53.22577   -53.76073
  external pressure =      -99.11 kB  Pullay stress =        0.00 kB


 VOLUME and BASIS-vectors are now :
 -----------------------------------------------------------------------------
  energy-cutoff  :      400.00
  volume of cell :       46.26
      direct lattice vectors                 reciprocal lattice vectors
     3.589999359  0.000000000  0.000000000     0.278551582 -0.002785648 -0.002758202
     0.035899893  3.589819543  0.000000000     0.000000000  0.278565535 -0.002758171
     0.035899893  0.035542270  3.589643745     0.000000000  0.000000000  0.278579177

  length of vectors
     3.589999359  3.589999047  3.589999203     0.278579165  0.278579189  0.278579177


 FORCES acting on ions
    electron-ion (+dipol)            ewald-force                    non-local-force                 convergence-correction
 -----------------------------------------------------------------------------------------------
   0.177E+01 0.175E+01 0.174E+01   -.180E+01 -.179E+01 -.177E+01   0.192E-01 0.190E-01 0.189E-01   0.285E-04 0.282E-04 0.280E-04
   -.177E+01 -.175E+01 -.174E+01   0.180E+01 0.179E+01 0.177E+01   -.192E-01 -.190E-01 -.189E-01   -.285E-04 -.282E-04 -.280E-04
   0.177E+01 0.175E+01 0.174E+01   -.180E+01 -.179E+01 -.177E+01   0.192E-01 0.190E-01 0.189E-01   0.285E-04 0.282E-04 0.280E-04
   -.177E+01 -.175E+01 -.174E+01   0.180E+01 0.179E+01 0.177E+01   -.192E-01 -.190E-01 -.189E-01   -.285E-04 -.282E-04 -.280E-04
   0.177E+01 0.175E+01 0.174E+01   -.180E+01 -.179E+01 -.177E+01   0.192E-01 0.190E-01 0.189E-01   0.285E-04 0.282E-04 0.280E-04
   -.177E+01 -.175E+01 -.174E+01   0.180E+01 0.179E+01 0.177E+01   -.192E-01 -.190E-01 -.189E-01   -.285E-04 -.282E-04 -.280E-04
   0.177E+01 0.175E+01 0.174E+01   -.180E+01 -.179E+01 -.177E+01   0.192E-01 0.190E-01 0.189E-01   0.285E-04 0.282E-04 0.280E-04
   -.177E+01 -.175E+01 -.174E+01   0.180E+01 0.179E+01 0.177E+01   -.192E-01 -.190E-01 -.189E-01   -.285E-04 -.282E-04 -.280E-04
 -----------------------------------------------------------------------------------------------
   0.910E-12 0.912E-12 0.106E-11   0.131E-13 -.333E-14 -.155E-14   -.694E-17 0.347E-16 0.659E-16   0.306E-13 0.313E-13 -.571E-15
 
 
 POSITION                                       TOTAL-FORCE (eV/Angst)
 -----------------------------------------------------------------------------------
      0.93340      2.70125      0.89741        -0.013170     -0.013039     -0.012911
      0.01795      0.01777      1.79482         0.013170      0.013039      0.012911
      0.93340      0.92411      2.69223        -0.013170     -0.013039     -0.012911
      0.01795      1.79491      0.00000         0.013170      0.013039      0.012911
      2.74635      2.71902      2.69223        -0.013170     -0.013039     -0.012911
      1.79500      0.00000      0.00000         0.013170      0.013039      0.012911
      2.71045      0.90634      0.89741        -0.013170     -0.013039     -0.012911
      1.83090      1.81268      1.79482         0.013170      0.013039      0.012911
 -----------------------------------------------------------------------------------
    total drift:                                0.000000      0.000000      0.000000


--------------------------------------------------------------------------------------------------------



  FREE ENERGIE OF THE ION-ELECTRON SYSTEM (eV)
  ---------------------------------------------------
  free  energy   TOTEN  =       -72.71380395 eV

  energy  without entropy=      -72.71380395  energy(sigma->0) =      -72.71380395
 


--------------------------------------------------------------------------------------------------------


    POTLOK:  cpu time    0.0267: real time    0.0267


--------------------------------------------------------------------------------------------------------


     LOOP+:  cpu time  111.4363: real time  112.2651
    4ORBIT:  cpu time    0.0000: real time    0.0000
 BZINTS: Fermi energy:  9.597808; 32.000000 electrons
         Band energy:  19.938133;  BLOECHL correction:  0.000000

 total amount of memory used by VASP MPI-rank0    37803. kBytes
=======================================================================

   base      :      30000. kBytes
   nonl-proj :       2689. kBytes
   fftplans  :        346. kBytes
   grid      :        481. kBytes
   one-center:          6. kBytes
   wavefun   :       4281. kBytes
 
  
  
 General timing and accounting informations for this job:
 ========================================================
  
                  Total CPU time used (sec):      114.913
                            User time (sec):      111.236
                          System time (sec):        3.677
                         Elapsed time (sec):      116.956
  
                   Maximum memory used (kb):      193692.
                   Average memory used (kb):           0.
  
                          Minor page faults:        36886
                          Major page faults:           36
                 Voluntary context switches:          785
