unknown system                          
           1
     3.589999    0.000000    0.000000
     0.035900    3.589820    0.000000
     0.035900    0.035542    3.589644
   C 
   8
Direct configuration=     1
   0.25000000  0.75000000  0.25000000
   0.00000000  0.00000000  0.50000000
   0.25000000  0.25000000  0.75000000
   0.00000000  0.50000000  0.00000000
   0.75000000  0.75000000  0.75000000
   0.50000000  0.00000000  0.00000000
   0.75000000  0.25000000  0.25000000
   0.50000000  0.50000000  0.50000000
