  64  64   0   0
  0.6672403E+01  0.7530447E-09  0.7530447E-09  0.7530447E-09  0.5000000E-15
  1.000000000000000E-004
  CAR 
 unknown system                          
     19.07878103    -13.35179439  301      7.84293792      1.00000000
    -13.352  0.0000E+00  0.0000E+00
    -13.244  0.0000E+00  0.0000E+00
    -13.136  0.0000E+00  0.0000E+00
    -13.027  0.0000E+00  0.0000E+00
    -12.919  0.0000E+00  0.0000E+00
    -12.811  0.0000E+00  0.0000E+00
    -12.703  0.0000E+00  0.0000E+00
    -12.595  0.0000E+00  0.0000E+00
    -12.487  0.0000E+00  0.0000E+00
    -12.379  0.0000E+00  0.0000E+00
    -12.271  0.0000E+00  0.0000E+00
    -12.163  0.7924E-12  0.8566E-13
    -12.055  0.1317E-05  0.1423E-06
    -11.946  0.5267E-02  0.5695E-03
    -11.838  0.2784E+00  0.3067E-01
    -11.730  0.1322E+01  0.1736E+00
    -11.622  0.1603E+01  0.3469E+00
    -11.514  0.3041E+01  0.6757E+00
    -11.406  0.1791E+01  0.8693E+00
    -11.298  0.3841E+01  0.1285E+01
    -11.190  0.3231E+01  0.1634E+01
    -11.082  0.4132E+01  0.2080E+01
    -10.974  0.2765E+01  0.2379E+01
    -10.865  0.4923E+01  0.2912E+01
    -10.757  0.4924E+01  0.3444E+01
    -10.649  0.5482E+01  0.4036E+01
    -10.541  0.2828E+01  0.4342E+01
    -10.433  0.4993E+01  0.4882E+01
    -10.325  0.7079E+01  0.5647E+01
    -10.217  0.6044E+01  0.6301E+01
    -10.109  0.5130E+01  0.6855E+01
    -10.001  0.4488E+01  0.7340E+01
     -9.893  0.7574E+01  0.8159E+01
     -9.784  0.5718E+01  0.8777E+01
     -9.676  0.6195E+01  0.9447E+01
     -9.568  0.7429E+01  0.1025E+02
     -9.460  0.8379E+01  0.1116E+02
     -9.352  0.6761E+01  0.1189E+02
     -9.244  0.6110E+01  0.1255E+02
     -9.136  0.4595E+01  0.1304E+02
     -9.028  0.9937E+01  0.1412E+02
     -8.920  0.8553E+01  0.1504E+02
     -8.812  0.1030E+02  0.1616E+02
     -8.703  0.6763E+01  0.1689E+02
     -8.595  0.7137E+01  0.1766E+02
     -8.487  0.8617E+01  0.1859E+02
     -8.379  0.8059E+01  0.1946E+02
     -8.271  0.8271E+01  0.2036E+02
     -8.163  0.1158E+02  0.2161E+02
     -8.055  0.1101E+02  0.2280E+02
     -7.947  0.5661E+01  0.2341E+02
     -7.839  0.1035E+02  0.2453E+02
     -7.730  0.1527E+02  0.2618E+02
     -7.622  0.8362E+01  0.2708E+02
     -7.514  0.6395E+01  0.2778E+02
     -7.406  0.1141E+02  0.2901E+02
     -7.298  0.1102E+02  0.3020E+02
     -7.190  0.1288E+02  0.3159E+02
     -7.082  0.1499E+02  0.3321E+02
     -6.974  0.1404E+02  0.3473E+02
     -6.866  0.1601E+02  0.3646E+02
     -6.758  0.1043E+02  0.3759E+02
     -6.649  0.9196E+01  0.3858E+02
     -6.541  0.1880E+02  0.4062E+02
     -6.433  0.1458E+02  0.4219E+02
     -6.325  0.7648E+01  0.4302E+02
     -6.217  0.1327E+02  0.4445E+02
     -6.109  0.1573E+02  0.4615E+02
     -6.001  0.1307E+02  0.4757E+02
     -5.893  0.9582E+01  0.4860E+02
     -5.785  0.1103E+02  0.4979E+02
     -5.677  0.1266E+02  0.5116E+02
     -5.568  0.1129E+02  0.5238E+02
     -5.460  0.4364E+01  0.5286E+02
     -5.352  0.1304E+02  0.5426E+02
     -5.244  0.7256E+01  0.5505E+02
     -5.136  0.6015E+01  0.5570E+02
     -5.028  0.1211E+02  0.5701E+02
     -4.920  0.1311E+02  0.5843E+02
     -4.812  0.1141E+02  0.5966E+02
     -4.704  0.6404E+01  0.6035E+02
     -4.596  0.3974E+01  0.6078E+02
     -4.487  0.5929E+01  0.6142E+02
     -4.379  0.3312E+01  0.6178E+02
     -4.271  0.2259E+01  0.6202E+02
     -4.163  0.4820E+01  0.6255E+02
     -4.055  0.1135E+02  0.6377E+02
     -3.947  0.6808E+01  0.6451E+02
     -3.839  0.7482E+01  0.6532E+02
     -3.731  0.8985E+01  0.6629E+02
     -3.623  0.5773E+01  0.6691E+02
     -3.515  0.1035E+02  0.6803E+02
     -3.406  0.1105E+02  0.6923E+02
     -3.298  0.7871E+01  0.7008E+02
     -3.190  0.9870E+01  0.7114E+02
     -3.082  0.1430E+02  0.7269E+02
     -2.974  0.1701E+02  0.7453E+02
     -2.866  0.4817E+02  0.7974E+02
     -2.758  0.2900E+02  0.8287E+02
     -2.650  0.1644E+02  0.8465E+02
     -2.542  0.1024E+02  0.8575E+02
     -2.434  0.1420E+02  0.8729E+02
     -2.325  0.1398E+02  0.8880E+02
     -2.217  0.8631E+01  0.8973E+02
     -2.109  0.1493E+02  0.9135E+02
     -2.001  0.1472E+02  0.9294E+02
     -1.893  0.1583E+02  0.9465E+02
     -1.785  0.1159E+02  0.9590E+02
     -1.677  0.1156E+02  0.9715E+02
     -1.569  0.9695E+01  0.9820E+02
     -1.461  0.1623E+02  0.9996E+02
     -1.352  0.6865E+01  0.1007E+03
     -1.244  0.3192E+01  0.1010E+03
     -1.136  0.7588E+01  0.1019E+03
     -1.028  0.9939E+01  0.1029E+03
     -0.920  0.1257E+02  0.1043E+03
     -0.812  0.6813E+01  0.1050E+03
     -0.704  0.7104E+01  0.1058E+03
     -0.596  0.6077E+01  0.1065E+03
     -0.488  0.1059E+02  0.1076E+03
     -0.380  0.1217E+02  0.1089E+03
     -0.271  0.1629E+02  0.1107E+03
     -0.163  0.6644E+01  0.1114E+03
     -0.055  0.6845E+01  0.1121E+03
      0.053  0.1892E+02  0.1142E+03
      0.161  0.2244E+02  0.1166E+03
      0.269  0.2391E+02  0.1192E+03
      0.377  0.2260E+02  0.1216E+03
      0.485  0.1568E+02  0.1233E+03
      0.593  0.7242E+01  0.1241E+03
      0.701  0.2556E+02  0.1269E+03
      0.810  0.2646E+02  0.1297E+03
      0.918  0.1255E+02  0.1311E+03
      1.026  0.2006E+02  0.1333E+03
      1.134  0.2439E+02  0.1359E+03
      1.242  0.1893E+02  0.1379E+03
      1.350  0.1452E+02  0.1395E+03
      1.458  0.1198E+02  0.1408E+03
      1.566  0.2285E+02  0.1433E+03
      1.674  0.2889E+02  0.1464E+03
      1.782  0.2463E+02  0.1491E+03
      1.891  0.2633E+02  0.1519E+03
      1.999  0.1741E+02  0.1538E+03
      2.107  0.2649E+02  0.1567E+03
      2.215  0.2781E+02  0.1597E+03
      2.323  0.2780E+02  0.1627E+03
      2.431  0.1708E+02  0.1645E+03
      2.539  0.3459E+02  0.1683E+03
      2.647  0.3478E+02  0.1720E+03
      2.755  0.3782E+02  0.1761E+03
      2.863  0.2569E+02  0.1789E+03
      2.972  0.1371E+02  0.1804E+03
      3.080  0.2448E+02  0.1830E+03
      3.188  0.3528E+02  0.1868E+03
      3.296  0.2225E+02  0.1892E+03
      3.404  0.3498E+02  0.1930E+03
      3.512  0.2362E+02  0.1956E+03
      3.620  0.2596E+02  0.1984E+03
      3.728  0.2189E+02  0.2007E+03
      3.836  0.2638E+02  0.2036E+03
      3.945  0.2923E+02  0.2067E+03
      4.053  0.2112E+02  0.2090E+03
      4.161  0.3340E+02  0.2126E+03
      4.269  0.1598E+02  0.2144E+03
      4.377  0.2178E+02  0.2167E+03
      4.485  0.2584E+02  0.2195E+03
      4.593  0.2851E+02  0.2226E+03
      4.701  0.3130E+02  0.2260E+03
      4.809  0.1877E+02  0.2280E+03
      4.917  0.1607E+02  0.2297E+03
      5.026  0.2025E+02  0.2319E+03
      5.134  0.2478E+02  0.2346E+03
      5.242  0.3364E+02  0.2383E+03
      5.350  0.1209E+02  0.2396E+03
      5.458  0.1185E+02  0.2408E+03
      5.566  0.1518E+02  0.2425E+03
      5.674  0.1280E+02  0.2439E+03
      5.782  0.1014E+02  0.2450E+03
      5.890  0.1576E+02  0.2467E+03
      5.998  0.1102E+02  0.2479E+03
      6.107  0.6502E+01  0.2486E+03
      6.215  0.1017E+02  0.2497E+03
      6.323  0.8649E+01  0.2506E+03
      6.431  0.6995E+01  0.2513E+03
      6.539  0.7075E+01  0.2521E+03
      6.647  0.5214E+01  0.2527E+03
      6.755  0.6050E+01  0.2533E+03
      6.863  0.7489E+01  0.2541E+03
      6.971  0.4163E+01  0.2546E+03
      7.079  0.1605E+01  0.2548E+03
      7.188  0.4284E+01  0.2552E+03
      7.296  0.3908E+01  0.2557E+03
      7.404  0.1845E+01  0.2559E+03
      7.512  0.1030E+01  0.2560E+03
      7.620  0.3472E+00  0.2560E+03
      7.728  0.7511E-02  0.2560E+03
      7.836  0.1093E-05  0.2560E+03
      7.944  0.3285E-12  0.2560E+03
      8.052  0.0000E+00  0.2560E+03
      8.160  0.0000E+00  0.2560E+03
      8.269  0.0000E+00  0.2560E+03
      8.377  0.0000E+00  0.2560E+03
      8.485  0.0000E+00  0.2560E+03
      8.593  0.0000E+00  0.2560E+03
      8.701  0.0000E+00  0.2560E+03
      8.809  0.0000E+00  0.2560E+03
      8.917  0.0000E+00  0.2560E+03
      9.025  0.0000E+00  0.2560E+03
      9.133  0.0000E+00  0.2560E+03
      9.242  0.0000E+00  0.2560E+03
      9.350  0.0000E+00  0.2560E+03
      9.458  0.0000E+00  0.2560E+03
      9.566  0.0000E+00  0.2560E+03
      9.674  0.0000E+00  0.2560E+03
      9.782  0.0000E+00  0.2560E+03
      9.890  0.0000E+00  0.2560E+03
      9.998  0.0000E+00  0.2560E+03
     10.106  0.0000E+00  0.2560E+03
     10.214  0.0000E+00  0.2560E+03
     10.323  0.0000E+00  0.2560E+03
     10.431  0.0000E+00  0.2560E+03
     10.539  0.0000E+00  0.2560E+03
     10.647  0.0000E+00  0.2560E+03
     10.755  0.0000E+00  0.2560E+03
     10.863  0.0000E+00  0.2560E+03
     10.971  0.0000E+00  0.2560E+03
     11.079  0.6521E-09  0.2560E+03
     11.187  0.2048E-03  0.2560E+03
     11.295  0.1605E+00  0.2560E+03
     11.404  0.1082E+01  0.2561E+03
     11.512  0.9840E+00  0.2562E+03
     11.620  0.4122E+01  0.2567E+03
     11.728  0.5317E+01  0.2573E+03
     11.836  0.6916E+01  0.2580E+03
     11.944  0.6604E+01  0.2587E+03
     12.052  0.4167E+01  0.2592E+03
     12.160  0.3664E+01  0.2596E+03
     12.268  0.9165E+01  0.2606E+03
     12.376  0.2398E+02  0.2632E+03
     12.485  0.1138E+02  0.2644E+03
     12.593  0.1044E+02  0.2655E+03
     12.701  0.9941E+01  0.2666E+03
     12.809  0.1703E+02  0.2684E+03
     12.917  0.1348E+02  0.2699E+03
     13.025  0.1424E+02  0.2714E+03
     13.133  0.2215E+02  0.2738E+03
     13.241  0.1981E+02  0.2760E+03
     13.349  0.2497E+02  0.2787E+03
     13.457  0.1541E+02  0.2803E+03
     13.566  0.1950E+02  0.2824E+03
     13.674  0.2323E+02  0.2849E+03
     13.782  0.2369E+02  0.2875E+03
     13.890  0.2721E+02  0.2904E+03
     13.998  0.1706E+02  0.2923E+03
     14.106  0.2163E+02  0.2946E+03
     14.214  0.3377E+02  0.2983E+03
     14.322  0.2351E+02  0.3008E+03
     14.430  0.3311E+02  0.3044E+03
     14.539  0.4699E+02  0.3095E+03
     14.647  0.5440E+02  0.3154E+03
     14.755  0.4056E+02  0.3197E+03
     14.863  0.3205E+02  0.3232E+03
     14.971  0.3271E+02  0.3267E+03
     15.079  0.2561E+02  0.3295E+03
     15.187  0.3291E+02  0.3331E+03
     15.295  0.4153E+02  0.3376E+03
     15.403  0.5297E+02  0.3433E+03
     15.511  0.4297E+02  0.3479E+03
     15.620  0.4030E+02  0.3523E+03
     15.728  0.2341E+02  0.3548E+03
     15.836  0.3116E+02  0.3582E+03
     15.944  0.2594E+02  0.3610E+03
     16.052  0.2484E+02  0.3637E+03
     16.160  0.3664E+02  0.3676E+03
     16.268  0.3176E+02  0.3711E+03
     16.376  0.2179E+02  0.3734E+03
     16.484  0.2147E+02  0.3757E+03
     16.592  0.1741E+02  0.3776E+03
     16.701  0.2291E+02  0.3801E+03
     16.809  0.1020E+02  0.3812E+03
     16.917  0.1005E+02  0.3823E+03
     17.025  0.4275E+01  0.3828E+03
     17.133  0.2735E+01  0.3831E+03
     17.241  0.6534E+00  0.3831E+03
     17.349  0.1563E+01  0.3833E+03
     17.457  0.1708E+01  0.3835E+03
     17.565  0.2553E+01  0.3838E+03
     17.673  0.2189E+01  0.3840E+03
     17.782  0.1085E+00  0.3840E+03
     17.890  0.2960E-04  0.3840E+03
     17.998  0.1732E-10  0.3840E+03
     18.106  0.0000E+00  0.3840E+03
     18.214  0.0000E+00  0.3840E+03
     18.322  0.0000E+00  0.3840E+03
     18.430  0.0000E+00  0.3840E+03
     18.538  0.0000E+00  0.3840E+03
     18.646  0.0000E+00  0.3840E+03
     18.754  0.0000E+00  0.3840E+03
     18.863  0.0000E+00  0.3840E+03
     18.971  0.0000E+00  0.3840E+03
     19.079  0.0000E+00  0.3840E+03
