   64   64    1    1
  0.6672403E+01  0.7530447E-09  0.7530447E-09  0.7530447E-09  0.5000000E-15
  1.000000000000000E-004
  CAR 
 unknown system                          
    256     20    192
 
  0.0000000E+00  0.0000000E+00  0.0000000E+00  0.4629630E-02
    1      -11.877677   1.000000
    2       -9.844441   1.000000
    3       -9.844441   1.000000
    4       -9.844441   1.000000
    5       -9.844441   1.000000
    6       -9.844441   1.000000
    7       -9.844441   1.000000
    8       -7.935894   1.000000
    9       -7.935894   1.000000
   10       -7.935894   1.000000
   11       -7.935894   1.000000
   12       -7.935894   1.000000
   13       -7.935894   1.000000
   14       -7.935894   1.000000
   15       -7.935894   1.000000
   16       -7.935894   1.000000
   17       -7.935894   1.000000
   18       -7.935894   1.000000
   19       -7.935894   1.000000
   20       -6.975038   1.000000
   21       -6.975038   1.000000
   22       -6.975038   1.000000
   23       -6.975038   1.000000
   24       -4.165499   1.000000
   25       -4.165499   1.000000
   26       -4.165499   1.000000
   27       -4.165499   1.000000
   28       -4.162875   1.000000
   29       -4.162875   1.000000
   30       -4.162875   1.000000
   31       -4.162875   1.000000
   32       -4.162875   1.000000
   33       -4.162875   1.000000
   34       -3.603535   1.000000
   35       -3.603535   1.000000
   36       -3.603535   1.000000
   37       -3.603535   1.000000
   38       -3.603535   1.000000
   39       -3.603535   1.000000
   40       -3.603535   1.000000
   41       -3.603535   1.000000
   42       -3.603535   1.000000
   43       -3.603535   1.000000
   44       -3.603535   1.000000
   45       -3.603535   1.000000
   46       -0.424865   1.000000
   47       -0.424865   1.000000
   48       -0.424865   1.000000
   49       -0.424865   1.000000
   50       -0.424865   1.000000
   51       -0.424865   1.000000
   52       -0.424865   1.000000
   53       -0.424865   1.000000
   54       -0.424865   1.000000
   55       -0.424865   1.000000
   56       -0.424865   1.000000
   57       -0.424865   1.000000
   58        0.526014   1.000000
   59        0.526014   1.000000
   60        0.526014   1.000000
   61        0.526014   1.000000
   62        0.526014   1.000000
   63        0.526014   1.000000
   64        0.526014   1.000000
   65        0.526014   1.000000
   66        0.526014   1.000000
   67        0.526014   1.000000
   68        0.526014   1.000000
   69        0.526014   1.000000
   70        1.003534   1.000000
   71        1.003534   1.000000
   72        1.003534   1.000000
   73        1.003534   1.000000
   74        1.003534   1.000000
   75        1.003534   1.000000
   76        1.003534   1.000000
   77        1.003534   1.000000
   78        1.003534   1.000000
   79        1.003534   1.000000
   80        1.003534   1.000000
   81        1.003534   1.000000
   82        2.171813   1.000000
   83        2.171813   1.000000
   84        2.171813   1.000000
   85        2.171813   1.000000
   86        2.171813   1.000000
   87        2.171813   1.000000
   88        3.183106   1.000000
   89        3.183106   1.000000
   90        3.183106   1.000000
   91        3.183106   1.000000
   92        3.183106   1.000000
   93        3.183106   1.000000
   94        4.058214   1.000000
   95        4.058214   1.000000
   96        4.058214   1.000000
   97        4.058214   1.000000
   98        4.058214   1.000000
   99        4.058214   1.000000
  100        4.058214   1.000000
  101        4.058214   1.000000
  102        4.058214   1.000000
  103        4.058214   1.000000
  104        4.058214   1.000000
  105        4.058214   1.000000
  106        4.972584   1.000000
  107        4.972584   1.000000
  108        4.972584   1.000000
  109        4.972584   1.000000
  110        4.972584   1.000000
  111        4.972584   1.000000
  112        4.972584   1.000000
  113        4.972584   1.000000
  114        4.972584   1.000000
  115        4.972584   1.000000
  116        4.972584   1.000000
  117        4.972584   1.000000
  118        5.145158   1.000000
  119        5.145158   1.000000
  120        5.145158   1.000000
  121        5.145158   1.000000
  122        5.145158   1.000000
  123        5.145158   1.000000
  124        5.145158   1.000000
  125        5.145158   1.000000
  126        7.539191   1.000000
  127        7.539191   1.000000
  128        7.539191   1.000000
  129       11.603715   0.000000
  130       11.603715   0.000000
  131       11.603715   0.000000
  132       11.603715   0.000000
  133       11.603715   0.000000
  134       11.603715   0.000000
  135       11.952463   0.000000
  136       11.952463   0.000000
  137       11.952463   0.000000
  138       11.952463   0.000000
  139       11.952463   0.000000
  140       11.952463   0.000000
  141       12.698247   0.000000
  142       12.698247   0.000000
  143       12.698247   0.000000
  144       14.298146   0.000000
  145       14.298146   0.000000
  146       14.298146   0.000000
  147       14.298146   0.000000
  148       14.566259   0.000000
  149       14.566259   0.000000
  150       14.566259   0.000000
  151       14.566259   0.000000
  152       14.566259   0.000000
  153       14.566259   0.000000
  154       14.566259   0.000000
  155       14.566259   0.000000
  156       14.566259   0.000000
  157       14.566259   0.000000
  158       14.566259   0.000000
  159       14.566259   0.000000
  160       15.318609   0.000000
  161       15.318609   0.000000
  162       15.318609   0.000000
  163       15.318609   0.000000
  164       15.318609   0.000000
  165       15.318609   0.000000
  166       15.318609   0.000000
  167       15.318609   0.000000
  168       16.468000   0.000000
  169       16.468000   0.000000
  170       16.468000   0.000000
  171       16.468000   0.000000
  172       16.468000   0.000000
  173       16.468000   0.000000
  174       16.468000   0.000000
  175       16.468000   0.000000
  176       16.468000   0.000000
  177       16.468000   0.000000
  178       16.468000   0.000000
  179       16.468000   0.000000
  180       16.515311   0.000000
  181       16.515311   0.000000
  182       16.515311   0.000000
  183       16.515311   0.000000
  184       16.515311   0.000000
  185       16.515311   0.000000
  186       17.341999   0.000000
  187       17.426892   0.000000
  188       17.426939   0.000000
  189       17.427011   0.000000
  190       17.427096   0.000000
  191       17.427289   0.000000
  192       17.428323   0.000000
 
  0.1666667E+00  0.0000000E+00  0.0000000E+00  0.2777778E-01
    1      -11.820484   1.000000
    2      -10.459782   1.000000
    3       -9.789815   1.000000
    4       -9.789815   1.000000
    5       -9.789815   1.000000
    6       -9.789815   1.000000
    7       -9.124595   1.000000
    8       -8.505049   1.000000
    9       -8.505049   1.000000
   10       -8.505049   1.000000
   11       -8.505049   1.000000
   12       -7.890886   1.000000
   13       -7.890886   1.000000
   14       -7.890886   1.000000
   15       -7.890886   1.000000
   16       -7.282899   1.000000
   17       -7.282899   1.000000
   18       -7.282899   1.000000
   19       -7.282899   1.000000
   20       -7.075055   1.000000
   21       -7.075055   1.000000
   22       -7.075055   1.000000
   23       -7.075055   1.000000
   24       -5.309307   1.000000
   25       -4.269016   1.000000
   26       -4.269016   1.000000
   27       -4.269016   1.000000
   28       -4.269016   1.000000
   29       -4.131887   1.000000
   30       -4.131887   1.000000
   31       -4.131887   1.000000
   32       -4.131887   1.000000
   33       -3.967122   1.000000
   34       -3.967122   1.000000
   35       -3.967122   1.000000
   36       -3.967122   1.000000
   37       -3.649700   1.000000
   38       -3.649700   1.000000
   39       -3.649700   1.000000
   40       -3.649700   1.000000
   41       -3.032095   1.000000
   42       -3.032095   1.000000
   43       -3.032095   1.000000
   44       -3.032095   1.000000
   45       -2.964749   1.000000
   46       -1.009545   1.000000
   47       -1.009545   1.000000
   48       -1.009545   1.000000
   49       -1.009545   1.000000
   50       -0.978625   1.000000
   51       -0.978625   1.000000
   52       -0.978625   1.000000
   53       -0.978625   1.000000
   54        0.111681   1.000000
   55        0.111681   1.000000
   56        0.111681   1.000000
   57        0.111681   1.000000
   58        0.206504   1.000000
   59        0.206504   1.000000
   60        0.206504   1.000000
   61        0.206504   1.000000
   62        0.533867   1.000000
   63        0.533867   1.000000
   64        0.533867   1.000000
   65        0.533867   1.000000
   66        0.634645   1.000000
   67        0.634645   1.000000
   68        0.634645   1.000000
   69        0.634645   1.000000
   70        1.175703   1.000000
   71        1.175703   1.000000
   72        1.175703   1.000000
   73        1.175703   1.000000
   74        1.567442   1.000000
   75        1.567442   1.000000
   76        1.567442   1.000000
   77        1.567442   1.000000
   78        1.588954   1.000000
   79        1.588954   1.000000
   80        1.588954   1.000000
   81        1.588954   1.000000
   82        1.997884   1.000000
   83        2.048959   1.000000
   84        2.048959   1.000000
   85        2.048959   1.000000
   86        2.048959   1.000000
   87        2.221876   1.000000
   88        2.221876   1.000000
   89        2.848187   1.000000
   90        2.848187   1.000000
   91        2.848187   1.000000
   92        2.848187   1.000000
   93        3.496447   1.000000
   94        3.496447   1.000000
   95        3.886826   1.000000
   96        3.886826   1.000000
   97        3.886826   1.000000
   98        3.886826   1.000000
   99        4.296857   1.000000
  100        4.317812   1.000000
  101        4.317812   1.000000
  102        4.317812   1.000000
  103        4.317812   1.000000
  104        4.472189   1.000000
  105        4.472189   1.000000
  106        4.472189   1.000000
  107        4.472189   1.000000
  108        4.693479   1.000000
  109        4.693479   1.000000
  110        4.935547   1.000000
  111        4.935547   1.000000
  112        4.935547   1.000000
  113        4.935547   1.000000
  114        4.983574   1.000000
  115        4.983574   1.000000
  116        4.983574   1.000000
  117        4.983574   1.000000
  118        5.133732   1.000000
  119        5.133732   1.000000
  120        5.133732   1.000000
  121        5.133732   1.000000
  122        5.216680   1.000000
  123        5.216680   1.000000
  124        5.216680   1.000000
  125        5.216680   1.000000
  126        7.325757   1.000000
  127        7.325757   1.000000
  128        7.374591   1.000000
  129       11.435869   0.000000
  130       11.624647   0.000000
  131       11.817611   0.000000
  132       11.848354   0.000000
  133       11.848354   0.000000
  134       11.848354   0.000000
  135       11.848354   0.000000
  136       12.182391   0.000000
  137       12.182391   0.000000
  138       12.182391   0.000000
  139       12.182391   0.000000
  140       12.408652   0.000000
  141       12.648484   0.000000
  142       12.957566   0.000000
  143       12.957566   0.000000
  144       14.427216   0.000000
  145       14.427216   0.000000
  146       14.427216   0.000000
  147       14.427216   0.000000
  148       14.466756   0.000000
  149       14.466756   0.000000
  150       14.466756   0.000000
  151       14.466756   0.000000
  152       14.589035   0.000000
  153       14.589035   0.000000
  154       14.589035   0.000000
  155       14.589035   0.000000
  156       14.959369   0.000000
  157       14.959369   0.000000
  158       14.959369   0.000000
  159       14.959369   0.000000
  160       15.337081   0.000000
  161       15.337081   0.000000
  162       15.337081   0.000000
  163       15.337081   0.000000
  164       15.387249   0.000000
  165       15.387249   0.000000
  166       15.387249   0.000000
  167       15.387249   0.000000
  168       15.556304   0.000000
  169       15.659852   0.000000
  170       15.659852   0.000000
  171       15.659852   0.000000
  172       15.659852   0.000000
  173       16.289908   0.000000
  174       16.289908   0.000000
  175       16.289909   0.000000
  176       16.289910   0.000000
  177       16.379877   0.000000
  178       16.379877   0.000000
  179       16.379880   0.000000
  180       16.379893   0.000000
  181       16.617734   0.000000
  182       16.617735   0.000000
  183       16.618078   0.000000
  184       16.618549   0.000000
  185       16.648794   0.000000
  186       16.648795   0.000000
  187       16.649565   0.000000
  188       16.652482   0.000000
  189       16.657925   0.000000
  190       16.663769   0.000000
  191       16.842305   0.000000
  192       16.842312   0.000000
 
  0.3333333E+00  0.0000000E+00  0.0000000E+00  0.2777778E-01
    1      -11.649109   1.000000
    2      -10.967236   1.000000
    3       -9.626412   1.000000
    4       -9.626412   1.000000
    5       -9.626412   1.000000
    6       -9.626412   1.000000
    7       -8.980498   1.000000
    8       -8.980498   1.000000
    9       -8.980498   1.000000
   10       -8.980498   1.000000
   11       -8.304582   1.000000
   12       -7.759350   1.000000
   13       -7.759350   1.000000
   14       -7.759350   1.000000
   15       -7.759350   1.000000
   16       -7.304471   1.000000
   17       -7.304471   1.000000
   18       -7.304471   1.000000
   19       -7.304471   1.000000
   20       -6.561048   1.000000
   21       -6.561048   1.000000
   22       -6.561048   1.000000
   23       -6.561048   1.000000
   24       -6.388764   1.000000
   25       -5.014082   1.000000
   26       -5.014082   1.000000
   27       -5.014082   1.000000
   28       -5.014082   1.000000
   29       -4.043866   1.000000
   30       -4.043866   1.000000
   31       -4.043866   1.000000
   32       -4.043866   1.000000
   33       -3.767867   1.000000
   34       -3.767867   1.000000
   35       -3.767867   1.000000
   36       -3.767867   1.000000
   37       -3.444790   1.000000
   38       -3.444790   1.000000
   39       -3.444790   1.000000
   40       -3.444790   1.000000
   41       -2.528396   1.000000
   42       -2.528396   1.000000
   43       -2.528396   1.000000
   44       -2.528396   1.000000
   45       -1.864861   1.000000
   46       -1.864861   1.000000
   47       -1.864861   1.000000
   48       -1.864861   1.000000
   49       -1.730117   1.000000
   50       -1.546811   1.000000
   51       -1.546811   1.000000
   52       -1.546811   1.000000
   53       -1.546811   1.000000
   54       -0.064023   1.000000
   55       -0.064023   1.000000
   56       -0.064023   1.000000
   57       -0.064023   1.000000
   58        0.181699   1.000000
   59        0.181699   1.000000
   60        0.181699   1.000000
   61        0.181699   1.000000
   62        0.771691   1.000000
   63        0.873447   1.000000
   64        0.873447   1.000000
   65        0.873447   1.000000
   66        0.873447   1.000000
   67        0.924966   1.000000
   68        0.924966   1.000000
   69        0.924966   1.000000
   70        0.924966   1.000000
   71        1.734967   1.000000
   72        1.734967   1.000000
   73        1.734967   1.000000
   74        1.734967   1.000000
   75        1.993900   1.000000
   76        1.993900   1.000000
   77        1.993900   1.000000
   78        1.993900   1.000000
   79        2.193155   1.000000
   80        2.193155   1.000000
   81        2.193155   1.000000
   82        2.193155   1.000000
   83        2.234640   1.000000
   84        2.234640   1.000000
   85        2.234640   1.000000
   86        2.234640   1.000000
   87        2.384387   1.000000
   88        2.384387   1.000000
   89        2.560062   1.000000
   90        2.560062   1.000000
   91        2.560062   1.000000
   92        2.560062   1.000000
   93        3.026701   1.000000
   94        3.026701   1.000000
   95        3.439775   1.000000
   96        3.439775   1.000000
   97        3.439775   1.000000
   98        3.439775   1.000000
   99        3.750775   1.000000
  100        3.750775   1.000000
  101        3.750775   1.000000
  102        3.750775   1.000000
  103        4.352715   1.000000
  104        4.352715   1.000000
  105        4.352715   1.000000
  106        4.352715   1.000000
  107        4.715414   1.000000
  108        4.715414   1.000000
  109        4.715414   1.000000
  110        4.715414   1.000000
  111        5.013341   1.000000
  112        5.013341   1.000000
  113        5.013341   1.000000
  114        5.013341   1.000000
  115        5.100332   1.000000
  116        5.100332   1.000000
  117        5.100332   1.000000
  118        5.100332   1.000000
  119        5.218985   1.000000
  120        5.218985   1.000000
  121        5.218985   1.000000
  122        5.218985   1.000000
  123        5.317643   1.000000
  124        5.387097   1.000000
  125        5.387097   1.000000
  126        6.789920   1.000000
  127        6.789920   1.000000
  128        6.909387   1.000000
  129       11.344318   0.000000
  130       11.422770   0.000000
  131       12.060890   0.000000
  132       12.508516   0.000000
  133       12.518000   0.000000
  134       12.518000   0.000000
  135       12.518000   0.000000
  136       12.518000   0.000000
  137       12.828897   0.000000
  138       12.828897   0.000000
  139       12.828897   0.000000
  140       12.828897   0.000000
  141       13.005546   0.000000
  142       13.630140   0.000000
  143       13.630140   0.000000
  144       14.571721   0.000000
  145       14.571721   0.000000
  146       14.571721   0.000000
  147       14.571721   0.000000
  148       14.605352   0.000000
  149       14.650325   0.000000
  150       14.650325   0.000000
  151       14.650325   0.000000
  152       14.650325   0.000000
  153       14.655874   0.000000
  154       14.655874   0.000000
  155       14.655874   0.000000
  156       14.655874   0.000000
  157       14.673128   0.000000
  158       14.673128   0.000000
  159       14.673128   0.000000
  160       14.673128   0.000000
  161       14.983993   0.000000
  162       14.983993   0.000000
  163       14.983993   0.000000
  164       14.983993   0.000000
  165       15.517425   0.000000
  166       15.517425   0.000000
  167       15.517425   0.000000
  168       15.517425   0.000000
  169       15.556685   0.000000
  170       15.556685   0.000000
  171       15.556685   0.000000
  172       15.556685   0.000000
  173       15.573357   0.000000
  174       15.573357   0.000000
  175       15.579376   0.000000
  176       15.579376   0.000000
  177       15.579376   0.000000
  178       15.579376   0.000000
  179       15.823464   0.000000
  180       15.823464   0.000000
  181       15.823464   0.000000
  182       15.823464   0.000000
  183       16.154367   0.000000
  184       16.154367   0.000000
  185       16.154367   0.000000
  186       16.154367   0.000000
  187       16.703268   0.000000
  188       16.703564   0.000000
  189       16.704023   0.000000
  190       16.717740   0.000000
  191       16.857495   0.000000
  192       16.883390   0.000000
 
  0.5000000E+00  0.0000000E+00  0.0000000E+00  0.1388889E-01
    1      -11.364289   1.000000
    2      -11.364289   1.000000
    3       -9.355720   1.000000
    4       -9.355720   1.000000
    5       -9.355720   1.000000
    6       -9.355720   1.000000
    7       -9.355720   1.000000
    8       -9.355720   1.000000
    9       -9.355720   1.000000
   10       -9.355720   1.000000
   11       -7.554002   1.000000
   12       -7.554002   1.000000
   13       -7.554002   1.000000
   14       -7.554002   1.000000
   15       -7.554002   1.000000
   16       -7.554002   1.000000
   17       -7.554002   1.000000
   18       -7.554002   1.000000
   19       -7.390246   1.000000
   20       -7.390246   1.000000
   21       -5.793332   1.000000
   22       -5.793332   1.000000
   23       -5.793332   1.000000
   24       -5.793332   1.000000
   25       -5.793332   1.000000
   26       -5.793332   1.000000
   27       -5.793332   1.000000
   28       -5.793332   1.000000
   29       -3.913099   1.000000
   30       -3.913099   1.000000
   31       -3.913099   1.000000
   32       -3.913099   1.000000
   33       -3.913099   1.000000
   34       -3.913099   1.000000
   35       -3.913099   1.000000
   36       -3.913099   1.000000
   37       -2.716381   1.000000
   38       -2.716381   1.000000
   39       -2.716381   1.000000
   40       -2.716381   1.000000
   41       -2.716381   1.000000
   42       -2.716381   1.000000
   43       -2.716381   1.000000
   44       -2.716381   1.000000
   45       -2.045597   1.000000
   46       -2.045597   1.000000
   47       -2.045597   1.000000
   48       -2.045597   1.000000
   49       -2.045597   1.000000
   50       -2.045597   1.000000
   51       -2.045597   1.000000
   52       -2.045597   1.000000
   53       -0.477918   1.000000
   54       -0.477918   1.000000
   55       -0.027976   1.000000
   56       -0.027976   1.000000
   57       -0.027976   1.000000
   58       -0.027976   1.000000
   59       -0.027976   1.000000
   60       -0.027976   1.000000
   61       -0.027976   1.000000
   62       -0.027976   1.000000
   63        1.324628   1.000000
   64        1.324628   1.000000
   65        1.324628   1.000000
   66        1.324628   1.000000
   67        1.324628   1.000000
   68        1.324628   1.000000
   69        1.324628   1.000000
   70        1.324628   1.000000
   71        1.559487   1.000000
   72        1.559487   1.000000
   73        1.559487   1.000000
   74        1.559487   1.000000
   75        1.559487   1.000000
   76        1.559487   1.000000
   77        1.559487   1.000000
   78        1.559487   1.000000
   79        2.653404   1.000000
   80        2.653404   1.000000
   81        2.653404   1.000000
   82        2.653404   1.000000
   83        2.841544   1.000000
   84        2.841544   1.000000
   85        2.841544   1.000000
   86        2.841544   1.000000
   87        2.841544   1.000000
   88        2.841544   1.000000
   89        2.841544   1.000000
   90        2.841544   1.000000
   91        2.889867   1.000000
   92        2.889867   1.000000
   93        2.889867   1.000000
   94        2.889867   1.000000
   95        2.889867   1.000000
   96        2.889867   1.000000
   97        2.889867   1.000000
   98        2.889867   1.000000
   99        3.521610   1.000000
  100        3.521610   1.000000
  101        3.521610   1.000000
  102        3.521610   1.000000
  103        3.521610   1.000000
  104        3.521610   1.000000
  105        3.521610   1.000000
  106        3.521610   1.000000
  107        5.036828   1.000000
  108        5.036828   1.000000
  109        5.036828   1.000000
  110        5.036828   1.000000
  111        5.036828   1.000000
  112        5.036828   1.000000
  113        5.036828   1.000000
  114        5.036828   1.000000
  115        5.054528   1.000000
  116        5.054528   1.000000
  117        5.054528   1.000000
  118        5.054528   1.000000
  119        5.054528   1.000000
  120        5.054528   1.000000
  121        5.054528   1.000000
  122        5.054528   1.000000
  123        6.107435   1.000000
  124        6.107435   1.000000
  125        6.107435   1.000000
  126        6.107435   1.000000
  127        6.205633   1.000000
  128        6.205633   1.000000
  129       11.333296   0.000000
  130       11.333296   0.000000
  131       12.294260   0.000000
  132       12.294260   0.000000
  133       13.473168   0.000000
  134       13.473168   0.000000
  135       13.473168   0.000000
  136       13.473168   0.000000
  137       13.473168   0.000000
  138       13.473168   0.000000
  139       13.473168   0.000000
  140       13.473168   0.000000
  141       13.742068   0.000000
  142       13.742068   0.000000
  143       13.798874   0.000000
  144       13.798874   0.000000
  145       13.798874   0.000000
  146       13.798874   0.000000
  147       13.798874   0.000000
  148       13.798874   0.000000
  149       13.798874   0.000000
  150       13.798874   0.000000
  151       14.543349   0.000000
  152       14.543349   0.000000
  153       14.543349   0.000000
  154       14.543349   0.000000
  155       14.707831   0.000000
  156       14.707831   0.000000
  157       14.707831   0.000000
  158       14.707831   0.000000
  159       14.707831   0.000000
  160       14.707831   0.000000
  161       14.707831   0.000000
  162       14.707831   0.000000
  163       15.146024   0.000000
  164       15.146024   0.000000
  165       15.146024   0.000000
  166       15.146024   0.000000
  167       15.146024   0.000000
  168       15.146024   0.000000
  169       15.146024   0.000000
  170       15.146024   0.000000
  171       15.857650   0.000000
  172       15.857650   0.000000
  173       15.857650   0.000000
  174       15.857650   0.000000
  175       15.857650   0.000000
  176       15.857650   0.000000
  177       15.857662   0.000000
  178       15.857677   0.000000
  179       16.066063   0.000000
  180       16.066063   0.000000
  181       16.066063   0.000000
  182       16.066063   0.000000
  183       16.066063   0.000000
  184       16.066063   0.000000
  185       16.066805   0.000000
  186       16.067829   0.000000
  187       16.228750   0.000000
  188       16.228750   0.000000
  189       16.228750   0.000000
  190       16.228750   0.000000
  191       16.228750   0.000000
  192       16.228750   0.000000
 
  0.1666667E+00  0.1666667E+00  0.0000000E+00  0.5555556E-01
    1      -11.763338   1.000000
    2      -10.404225   1.000000
    3      -10.404225   1.000000
    4       -9.735335   1.000000
    5       -9.735335   1.000000
    6       -9.091582   1.000000
    7       -9.071264   1.000000
    8       -9.071264   1.000000
    9       -8.455830   1.000000
   10       -8.455830   1.000000
   11       -8.455830   1.000000
   12       -8.455830   1.000000
   13       -7.826401   1.000000
   14       -7.826401   1.000000
   15       -7.408777   1.000000
   16       -7.408777   1.000000
   17       -7.245443   1.000000
   18       -7.245443   1.000000
   19       -7.245443   1.000000
   20       -7.245443   1.000000
   21       -6.871750   1.000000
   22       -6.871750   1.000000
   23       -6.668555   1.000000
   24       -5.269774   1.000000
   25       -5.269774   1.000000
   26       -4.514151   1.000000
   27       -4.514151   1.000000
   28       -4.492066   1.000000
   29       -4.492066   1.000000
   30       -4.149140   1.000000
   31       -4.118848   1.000000
   32       -4.118848   1.000000
   33       -4.068804   1.000000
   34       -4.068804   1.000000
   35       -4.057091   1.000000
   36       -3.539151   1.000000
   37       -3.539151   1.000000
   38       -3.249844   1.000000
   39       -3.249844   1.000000
   40       -2.946943   1.000000
   41       -2.946943   1.000000
   42       -2.929210   1.000000
   43       -2.929210   1.000000
   44       -2.885614   1.000000
   45       -2.885614   1.000000
   46       -1.549743   1.000000
   47       -1.532715   1.000000
   48       -1.532715   1.000000
   49       -1.532715   1.000000
   50       -1.532715   1.000000
   51       -0.426415   1.000000
   52       -0.426415   1.000000
   53       -0.349910   1.000000
   54       -0.349910   1.000000
   55       -0.349910   1.000000
   56       -0.349910   1.000000
   57        0.065820   1.000000
   58        0.065820   1.000000
   59        0.097188   1.000000
   60        0.110468   1.000000
   61        0.110468   1.000000
   62        0.369970   1.000000
   63        0.369970   1.000000
   64        0.879883   1.000000
   65        1.073188   1.000000
   66        1.073188   1.000000
   67        1.101277   1.000000
   68        1.101277   1.000000
   69        1.101277   1.000000
   70        1.101277   1.000000
   71        1.127243   1.000000
   72        1.127243   1.000000
   73        1.387411   1.000000
   74        1.387411   1.000000
   75        1.455980   1.000000
   76        1.455980   1.000000
   77        1.641297   1.000000
   78        1.807611   1.000000
   79        1.807611   1.000000
   80        2.090805   1.000000
   81        2.090805   1.000000
   82        2.123173   1.000000
   83        2.123173   1.000000
   84        2.136900   1.000000
   85        2.136900   1.000000
   86        2.136900   1.000000
   87        2.136900   1.000000
   88        2.147076   1.000000
   89        2.260803   1.000000
   90        2.479062   1.000000
   91        2.479062   1.000000
   92        3.332297   1.000000
   93        3.332297   1.000000
   94        3.619970   1.000000
   95        3.619970   1.000000
   96        3.786422   1.000000
   97        3.786422   1.000000
   98        4.118926   1.000000
   99        4.118926   1.000000
  100        4.235629   1.000000
  101        4.238041   1.000000
  102        4.238041   1.000000
  103        4.494183   1.000000
  104        4.494183   1.000000
  105        4.494183   1.000000
  106        4.494183   1.000000
  107        4.495361   1.000000
  108        4.495361   1.000000
  109        4.518020   1.000000
  110        4.518020   1.000000
  111        4.615349   1.000000
  112        4.615349   1.000000
  113        4.961467   1.000000
  114        4.961467   1.000000
  115        5.058305   1.000000
  116        5.058305   1.000000
  117        5.077435   1.000000
  118        5.077435   1.000000
  119        5.118023   1.000000
  120        5.118023   1.000000
  121        5.215226   1.000000
  122        5.215226   1.000000
  123        5.215226   1.000000
  124        5.215226   1.000000
  125        5.704157   1.000000