  64   64
1 1
    31.601087293979997     0.000000000000000     0.000000000000000
     0.000000000000000    31.601087293979997     0.000000000000000
     0.000000000000000     0.000000000000000    31.601087293979997
1 2
    -0.118486473130000    -0.000000000000000    -0.000000000000000
    -0.000000000000000    -0.088022133060000    -0.000000000000000
    -0.000000000000000    -0.000000000000000    -0.088022133060000
1 3
    -0.088022133060000    -0.000000000000000    -0.000000000000000
    -0.000000000000000    -0.118486473130000    -0.000000000000000
    -0.000000000000000    -0.000000000000000    -0.088022133060000
1 4
    -0.070460849960000    -0.000000000000000     0.000000000000000
    -0.000000000000000    -0.070460849960000     0.000000000000000
     0.000000000000000     0.000000000000000     0.538762413250000
1 5
    -0.088022133060000    -0.000000000000000    -0.000000000000000
    -0.000000000000000    -0.088022133060000    -0.000000000000000
    -0.000000000000000    -0.000000000000000    -0.118486473130000
1 6
    -0.070460849960000    -0.000000000000000    -0.000000000000000
    -0.000000000000000     0.538762413250000    -0.000000000000000
    -0.000000000000000    -0.000000000000000    -0.070460849960000
1 7
     0.538762413250000    -0.000000000000000    -0.000000000000000
    -0.000000000000000    -0.070460849960000    -0.000000000000000
    -0.000000000000000    -0.000000000000000    -0.070460849960000
1 8
    -0.042774053640000     0.000000000000000     0.000000000000000
     0.000000000000000    -0.042774053640000     0.000000000000000
     0.000000000000000     0.000000000000000    -0.042774053640000
1 9
     0.136863543350000     0.081444909460000     0.008282905710000
     0.081444909460000     0.055006176150000    -0.081444909460000
     0.008282905710000    -0.081444909460000     0.136863543350000
1 10
    -0.059632092690000     0.068597463420000     0.168465685450000
     0.068597463420000    -0.059632092690000    -0.168465685450000
     0.168465685450000    -0.168465685450000    -0.325713337120000
1 11
    -6.582549277399999    -0.030534484310000    -0.030534484310000
    -0.030534484310000    -6.582549277399999     0.030534484310000
    -0.030534484310000     0.030534484310000    -6.582549277399999
1 12
     0.055006176150000     0.081444909460000     0.081444909460000
     0.081444909460000     0.136863543350000    -0.008282905710000
     0.081444909460000    -0.008282905710000     0.136863543350000
1 13
    -0.325713337120000     0.168465685450000     0.168465685450000
     0.168465685450000    -0.059632092690000    -0.068597463420000
     0.168465685450000    -0.068597463420000    -0.059632092690000
1 14
     0.029819109150000     0.030842926790000     0.030842926790000
     0.030842926790000     0.029819109150000    -0.030842926790000
     0.030842926790000    -0.030842926790000     0.029819109150000
1 15
     0.136863543350000     0.008282905710000     0.081444909460000
     0.008282905710000     0.136863543350000    -0.081444909460000
     0.081444909460000    -0.081444909460000     0.055006176150000
1 16
    -0.059632092690000     0.168465685450000     0.068597463420000
     0.168465685450000    -0.325713337120000    -0.168465685450000
     0.068597463420000    -0.168465685450000    -0.059632092690000
1 17
     1.194969945930000    -0.563761748320000     0.563761748320000
     0.563761748320000    -1.167996723120000     1.202110965870000
    -0.563761748320000     1.202110965870000    -1.167996723120000
1 18
     0.037109065490000    -0.028379710910000     0.028379710910000
     0.028379710910000    -0.071258500470000    -0.081263783580000
    -0.028379710910000    -0.081263783580000    -0.071258500470000
1 19
     1.194969945930000    -0.563761748320000    -0.563761748320000
     0.563761748320000    -1.167996723120000    -1.202110965870000
     0.563761748320000    -1.202110965870000    -1.167996723120000
1 20
     0.037109065490000    -0.028379710910000    -0.028379710910000
     0.028379710910000    -0.071258500470000     0.081263783580000
     0.028379710910000     0.081263783580000    -0.071258500470000
1 21
     1.194969945930000     0.563761748320000     0.563761748320000
    -0.563761748320000    -1.167996723120000    -1.202110965870000
    -0.563761748320000    -1.202110965870000    -1.167996723120000
1 22
     0.037109065490000     0.028379710910000     0.028379710910000
    -0.028379710910000    -0.071258500470000     0.081263783580000
    -0.028379710910000     0.081263783580000    -0.071258500470000
1 23
     1.194969945930000     0.563761748320000    -0.563761748320000
    -0.563761748320000    -1.167996723120000     1.202110965870000
     0.563761748320000     1.202110965870000    -1.167996723120000
1 24
     0.037109065490000     0.028379710910000    -0.028379710910000
    -0.028379710910000    -0.071258500470000    -0.081263783580000
     0.028379710910000    -0.081263783580000    -0.071258500470000
1 25
    -6.582549277399999     0.030534484310000     0.030534484310000
     0.030534484310000    -6.582549277399999     0.030534484310000
     0.030534484310000     0.030534484310000    -6.582549277399999
1 26
     0.055006176150000    -0.081444909460000    -0.081444909460000
    -0.081444909460000     0.136863543350000    -0.008282905710000
    -0.081444909460000    -0.008282905710000     0.136863543350000
1 27
     0.136863543350000    -0.081444909460000    -0.008282905710000
    -0.081444909460000     0.055006176150000    -0.081444909460000
    -0.008282905710000    -0.081444909460000     0.136863543350000
1 28
    -0.059632092690000    -0.068597463420000    -0.168465685450000
    -0.068597463420000    -0.059632092690000    -0.168465685450000
    -0.168465685450000    -0.168465685450000    -0.325713337120000
1 29
     0.136863543350000    -0.008282905710000    -0.081444909460000
    -0.008282905710000     0.136863543350000    -0.081444909460000
    -0.081444909460000    -0.081444909460000     0.055006176150000
1 30
    -0.059632092690000    -0.168465685450000    -0.068597463420000
    -0.168465685450000    -0.325713337120000    -0.168465685450000
    -0.068597463420000    -0.168465685450000    -0.059632092690000
1 31
    -0.325713337120000    -0.168465685450000    -0.168465685450000
    -0.168465685450000    -0.059632092690000    -0.068597463420000
    -0.168465685450000    -0.068597463420000    -0.059632092690000
1 32
     0.029819109150000    -0.030842926790000    -0.030842926790000
    -0.030842926790000     0.029819109150000    -0.030842926790000
    -0.030842926790000    -0.030842926790000     0.029819109150000
1 33
    -1.167996723120000     0.563761748320000    -1.202110965870000
    -0.563761748320000     1.194969945930000    -0.563761748320000
    -1.202110965870000     0.563761748320000    -1.167996723120000
1 34
    -1.167996723120000     0.563761748320000     1.202110965870000
    -0.563761748320000     1.194969945930000     0.563761748320000
     1.202110965870000    -0.563761748320000    -1.167996723120000
1 35
    -0.071258500470000     0.028379710910000     0.081263783580000
    -0.028379710910000     0.037109065490000    -0.028379710910000
     0.081263783580000     0.028379710910000    -0.071258500470000
1 36
    -0.071258500470000     0.028379710910000    -0.081263783580000
    -0.028379710910000     0.037109065490000     0.028379710910000
    -0.081263783580000    -0.028379710910000    -0.071258500470000
1 37
    -1.167996723120000    -0.563761748320000     1.202110965870000
     0.563761748320000     1.194969945930000    -0.563761748320000
     1.202110965870000     0.563761748320000    -1.167996723120000
1 38
    -1.167996723120000    -0.563761748320000    -1.202110965870000
     0.563761748320000     1.194969945930000     0.563761748320000
    -1.202110965870000    -0.563761748320000    -1.167996723120000
1 39
    -0.071258500470000    -0.028379710910000    -0.081263783580000
     0.028379710910000     0.037109065490000    -0.028379710910000
    -0.081263783580000     0.028379710910000    -0.071258500470000
1 40
    -0.071258500470000    -0.028379710910000     0.081263783580000
     0.028379710910000     0.037109065490000     0.028379710910000
     0.081263783580000    -0.028379710910000    -0.071258500470000
1 41
     0.136863543350000    -0.081444909460000     0.008282905710000
    -0.081444909460000     0.055006176150000     0.081444909460000
     0.008282905710000     0.081444909460000     0.136863543350000
1 42
    -0.059632092690000    -0.068597463420000     0.168465685450000
    -0.068597463420000    -0.059632092690000     0.168465685450000
     0.168465685450000     0.168465685450000    -0.325713337120000
1 43
    -6.582549277399999     0.030534484310000    -0.030534484310000
     0.030534484310000    -6.582549277399999    -0.030534484310000
    -0.030534484310000    -0.030534484310000    -6.582549277399999
1 44
     0.055006176150000    -0.081444909460000     0.081444909460000
    -0.081444909460000     0.136863543350000     0.008282905710000
     0.081444909460000     0.008282905710000     0.136863543350000
1 45
    -0.325713337120000    -0.168465685450000     0.168465685450000
    -0.168465685450000    -0.059632092690000     0.068597463420000
     0.168465685450000     0.068597463420000    -0.059632092690000
1 46
     0.029819109150000    -0.030842926790000     0.030842926790000
    -0.030842926790000     0.029819109150000     0.030842926790000
     0.030842926790000     0.030842926790000     0.029819109150000
1 47
     0.136863543350000    -0.008282905710000     0.081444909460000
    -0.008282905710000     0.136863543350000     0.081444909460000
     0.081444909460000     0.081444909460000     0.055006176150000
1 48
    -0.059632092690000    -0.168465685450000     0.068597463420000
    -0.168465685450000    -0.325713337120000     0.168465685450000
     0.068597463420000     0.168465685450000    -0.059632092690000
1 49
    -1.167996723120000     1.202110965870000    -0.563761748320000
     1.202110965870000    -1.167996723120000     0.563761748320000
     0.563761748320000    -0.563761748320000     1.194969945930000
1 50
    -1.167996723120000    -1.202110965870000    -0.563761748320000
    -1.202110965870000    -1.167996723120000    -0.563761748320000
     0.563761748320000     0.563761748320000     1.194969945930000
1 51
    -1.167996723120000    -1.202110965870000     0.563761748320000
    -1.202110965870000    -1.167996723120000     0.563761748320000
    -0.563761748320000    -0.563761748320000     1.194969945930000
1 52
    -1.167996723120000     1.202110965870000     0.563761748320000
     1.202110965870000    -1.167996723120000    -0.563761748320000
    -0.563761748320000     0.563761748320000     1.194969945930000
1 53
    -0.071258500470000    -0.081263783580000    -0.028379710910000
    -0.081263783580000    -0.071258500470000     0.028379710910000
     0.028379710910000    -0.028379710910000     0.037109065490000
1 54
    -0.071258500470000     0.081263783580000    -0.028379710910000
     0.081263783580000    -0.071258500470000    -0.028379710910000
     0.028379710910000     0.028379710910000     0.037109065490000
1 55
    -0.071258500470000     0.081263783580000     0.028379710910000
     0.081263783580000    -0.071258500470000     0.028379710910000
    -0.028379710910000    -0.028379710910000     0.037109065490000
1 56
    -0.071258500470000    -0.081263783580000     0.028379710910000
    -0.081263783580000    -0.071258500470000    -0.028379710910000
    -0.028379710910000     0.028379710910000     0.037109065490000
1 57
    -6.582549277399999    -0.030534484310000     0.030534484310000
    -0.030534484310000    -6.582549277399999    -0.030534484310000
     0.030534484310000    -0.030534484310000    -6.582549277399999
1 58
     0.055006176150000     0.081444909460000    -0.081444909460000
     0.081444909460000     0.136863543350000     0.008282905710000
    -0.081444909460000     0.008282905710000     0.136863543350000
1 59
     0.136863543350000     0.081444909460000    -0.008282905710000
     0.081444909460000     0.055006176150000     0.081444909460000
    -0.008282905710000     0.081444909460000     0.136863543350000
1 60
    -0.059632092690000     0.068597463420000    -0.168465685450000
     0.068597463420000    -0.059632092690000     0.168465685450000
    -0.168465685450000     0.168465685450000    -0.325713337120000
1 61
     0.136863543350000     0.008282905710000    -0.081444909460000
     0.008282905710000     0.136863543350000     0.081444909460000
    -0.081444909460000     0.081444909460000     0.055006176150000
1 62
    -0.059632092690000     0.168465685450000    -0.068597463420000
     0.168465685450000    -0.325713337120000     0.168465685450000
    -0.068597463420000     0.168465685450000    -0.059632092690000
1 63
    -0.325713337120000     0.168465685450000    -0.168465685450000
     0.168465685450000    -0.059632092690000     0.068597463420000
    -0.168465685450000     0.068597463420000    -0.059632092690000
1 64
     0.029819109150000     0.030842926790000    -0.030842926790000
     0.030842926790000     0.029819109150000     0.030842926790000
    -0.030842926790000     0.030842926790000     0.029819109150000
2 1
    -0.118486473130000    -0.000000000000000    -0.000000000000000
    -0.000000000000000    -0.088022133060000    -0.000000000000000
    -0.000000000000000    -0.000000000000000    -0.088022133060000
2 2
    31.601087293979997     0.000000000000000     0.000000000000000
     0.000000000000000    31.601087293979997     0.000000000000000
     0.000000000000000     0.000000000000000    31.601087293979997
2 3
    -0.070460849960000    -0.000000000000000     0.000000000000000
    -0.000000000000000    -0.070460849960000     0.000000000000000
     0.000000000000000     0.000000000000000     0.538762413250000
2 4
    -0.088022133060000    -0.000000000000000    -0.000000000000000
    -0.000000000000000    -0.118486473130000    -0.000000000000000
    -0.000000000000000    -0.000000000000000    -0.088022133060000
2 5
    -0.070460849960000    -0.000000000000000    -0.000000000000000
    -0.000000000000000     0.538762413250000    -0.000000000000000
    -0.000000000000000    -0.000000000000000    -0.070460849960000
2 6
    -0.088022133060000    -0.000000000000000    -0.000000000000000
    -0.000000000000000    -0.088022133060000    -0.000000000000000
    -0.000000000000000    -0.000000000000000    -0.118486473130000
2 7
    -0.042774053640000     0.000000000000000     0.000000000000000
     0.000000000000000    -0.042774053640000     0.000000000000000
     0.000000000000000     0.000000000000000    -0.042774053640000
2 8
     0.538762413250000    -0.000000000000000    -0.000000000000000
    -0.000000000000000    -0.070460849960000    -0.000000000000000
    -0.000000000000000    -0.000000000000000    -0.070460849960000
2 9
    -0.059632092690000     0.068597463420000     0.168465685450000
     0.068597463420000    -0.059632092690000    -0.168465685450000
     0.168465685450000    -0.168465685450000    -0.325713337120000
2 10
     0.136863543350000     0.081444909460000     0.008282905710000
     0.081444909460000     0.055006176150000    -0.081444909460000
     0.008282905710000    -0.081444909460000     0.136863543350000
2 11
     0.055006176150000     0.081444909460000     0.081444909460000
     0.081444909460000     0.136863543350000    -0.008282905710000
     0.081444909460000    -0.008282905710000     0.136863543350000
2 12
    -6.582549277399999    -0.030534484310000    -0.030534484310000
    -0.030534484310000    -6.582549277399999     0.030534484310000
    -0.030534484310000     0.030534484310000    -6.582549277399999
2 13
     0.029819109150000     0.030842926790000     0.030842926790000
     0.030842926790000     0.029819109150000    -0.030842926790000
     0.030842926790000    -0.030842926790000     0.029819109150000
2 14
    -0.325713337120000     0.168465685450000     0.168465685450000
     0.168465685450000    -0.059632092690000    -0.068597463420000
     0.168465685450000    -0.068597463420000    -0.059632092690000
2 15
    -0.059632092690000     0.168465685450000     0.068597463420000
     0.168465685450000    -0.325713337120000    -0.168465685450000
     0.068597463420000    -0.168465685450000    -0.059632092690000
2 16
     0.136863543350000     0.008282905710000     0.081444909460000
     0.008282905710000     0.136863543350000    -0.081444909460000
     0.081444909460000    -0.081444909460000     0.055006176150000
2 17
     0.037109065490000    -0.028379710910000     0.028379710910000
     0.028379710910000    -0.071258500470000    -0.081263783580000
    -0.028379710910000    -0.081263783580000    -0.071258500470000
2 18
     1.194969945930000    -0.563761748320000     0.563761748320000
     0.563761748320000    -1.167996723120000     1.202110965870000
    -0.563761748320000     1.202110965870000    -1.167996723120000
2 19
     0.037109065490000    -0.028379710910000    -0.028379710910000
     0.028379710910000    -0.071258500470000     0.081263783580000
     0.028379710910000     0.081263783580000    -0.071258500470000
2 20
     1.194969945930000    -0.563761748320000    -0.563761748320000
     0.563761748320000    -1.167996723120000    -1.202110965870000
     0.563761748320000    -1.202110965870000    -1.167996723120000
2 21
     0.037109065490000     0.028379710910000     0.028379710910000
    -0.028379710910000    -0.071258500470000     0.081263783580000
    -0.028379710910000     0.081263783580000    -0.071258500470000
2 22
     1.194969945930000     0.563761748320000     0.563761748320000
    -0.563761748320000    -1.167996723120000    -1.202110965870000
    -0.563761748320000    -1.202110965870000    -1.167996723120000
2 23
     0.037109065490000     0.028379710910000    -0.028379710910000
    -0.028379710910000    -0.071258500470000    -0.081263783580000
     0.028379710910000    -0.081263783580000    -0.071258500470000
2 24
     1.194969945930000     0.563761748320000    -0.563761748320000
    -0.563761748320000    -1.167996723120000     1.202110965870000
     0.563761748320000     1.202110965870000    -1.167996723120000
2 25
     0.055006176150000    -0.081444909460000    -0.081444909460000
    -0.081444909460000     0.136863543350000    -0.008282905710000
    -0.081444909460000    -0.008282905710000     0.136863543350000
2 26
    -6.582549277399999     0.030534484310000     0.030534484310000
     0.030534484310000    -6.582549277399999     0.030534484310000
     0.030534484310000     0.030534484310000    -6.582549277399999
2 27
    -0.059632092690000    -0.068597463420000    -0.168465685450000
    -0.068597463420000    -0.059632092690000    -0.168465685450000
    -0.168465685450000    -0.168465685450000    -0.325713337120000
2 28
     0.136863543350000    -0.081444909460000    -0.008282905710000
    -0.081444909460000     0.055006176150000    -0.081444909460000
    -0.008282905710000    -0.081444909460000     0.136863543350000
2 29
    -0.059632092690000    -0.168465685450000    -0.068597463420000
    -0.168465685450000    -0.325713337120000    -0.168465685450000
    -0.068597463420000    -0.168465685450000    -0.059632092690000
2 30
     0.136863543350000    -0.008282905710000    -0.081444909460000
    -0.008282905710000     0.136863543350000    -0.081444909460000
    -0.081444909460000    -0.081444909460000     0.055006176150000
2 31
     0.029819109150000    -0.030842926790000    -0.030842926790000
    -0.030842926790000     0.029819109150000    -0.030842926790000
    -0.030842926790000    -0.030842926790000     0.029819109150000
2 32
    -0.325713337120000    -0.168465685450000    -0.168465685450000
    -0.168465685450000    -0.059632092690000    -0.068597463420000
    -0.168465685450000    -0.068597463420000    -0.059632092690000
2 33
    -1.167996723120000     0.563761748320000     1.202110965870000
    -0.563761748320000     1.194969945930000     0.563761748320000
     1.202110965870000    -0.563761748320000    -1.167996723120000
2 34
    -1.167996723120000     0.563761748320000    -1.202110965870000
    -0.563761748320000     1.194969945930000    -0.563761748320000
    -1.202110965870000     0.563761748320000    -1.167996723120000
2 35
    -0.071258500470000     0.028379710910000    -0.081263783580000
    -0.028379710910000     0.037109065490000     0.028379710910000
    -0.081263783580000    -0.028379710910000    -0.071258500470000
2 36
    -0.071258500470000     0.028379710910000     0.081263783580000
    -0.028379710910000     0.037109065490000    -0.028379710910000
     0.081263783580000     0.028379710910000    -0.071258500470000
2 37
    -1.167996723120000    -0.563761748320000    -1.202110965870000
     0.563761748320000     1.194969945930000     0.563761748320000
    -1.202110965870000    -0.563761748320000    -1.167996723120000
2 38
    -1.167996723120000    -0.563761748320000     1.202110965870000
     0.563761748320000     1.194969945930000    -0.563761748320000
     1.202110965870000     0.563761748320000    -1.167996723120000
2 39
    -0.071258500470000    -0.028379710910000     0.081263783580000
     0.028379710910000     0.037109065490000     0.028379710910000
     0.081263783580000    -0.028379710910000    -0.071258500470000
2 40
    -0.071258500470000    -0.028379710910000    -0.081263783580000
     0.028379710910000     0.037109065490000    -0.028379710910000
    -0.081263783580000     0.028379710910000    -0.071258500470000
2 41
    -0.059632092690000    -0.068597463420000     0.168465685450000
    -0.068597463420000    -0.059632092690000     0.168465685450000
     0.168465685450000     0.168465685450000    -0.325713337120000
2 42
     0.136863543350000    -0.081444909460000     0.008282905710000
    -0.081444909460000     0.055006176150000     0.081444909460000
     0.008282905710000     0.081444909460000     0.136863543350000
2 43
     0.055006176150000    -0.081444909460000     0.081444909460000
    -0.081444909460000     0.136863543350000     0.008282905710000
     0.081444909460000     0.008282905710000     0.136863543350000
2 44
    -6.582549277399999     0.030534484310000    -0.030534484310000
     0.030534484310000    -6.582549277399999    -0.030534484310000
    -0.030534484310000    -0.030534484310000    -6.582549277399999
2 45
     0.029819109150000    -0.030842926790000     0.030842926790000
    -0.030842926790000     0.029819109150000     0.030842926790000
     0.030842926790000     0.030842926790000     0.029819109150000
2 46
    -0.325713337120000    -0.168465685450000     0.168465685450000
    -0.168465685450000    -0.059632092690000     0.068597463420000
     0.168465685450000     0.068597463420000    -0.059632092690000
2 47
    -0.059632092690000    -0.168465685450000     0.068597463420000
    -0.168465685450000    -0.325713337120000     0.168465685450000
     0.068597463420000     0.168465685450000    -0.059632092690000
2 48
     0.136863543350000    -0.008282905710000     0.081444909460000
    -0.008282905710000     0.136863543350000     0.081444909460000
     0.081444909460000     0.081444909460000     0.055006176150000
2 49
    -1.167996723120000    -1.202110965870000    -0.563761748320000
    -1.202110965870000    -1.167996723120000    -0.563761748320000
     0.563761748320000     0.563761748320000     1.194969945930000
2 50
    -1.167996723120000     1.202110965870000    -0.563761748320000
     1.202110965870000    -1.167996723120000     0.563761748320000
     0.563761748320000    -0.563761748320000     1.194969945930000
2 51
    -1.167996723120000     1.202110965870000     0.563761748320000
     1.202110965870000    -1.167996723120000    -0.563761748320000
    -0.563761748320000     0.563761748320000     1.194969945930000
2 52
    -1.167996723120000    -1.202110965870000     0.563761748320000
    -1.202110965870000    -1.167996723120000     0.563761748320000
    -0.563761748320000    -0.563761748320000     1.194969945930000
2 53
    -0.071258500470000     0.081263783580000    -0.028379710910000
     0.081263783580000    -0.071258500470000    -0.028379710910000
     0.028379710910000     0.028379710910000     0.037109065490000
2 54
    -0.071258500470000    -0.081263783580000    -0.028379710910000
    -0.081263783580000    -0.071258500470000     0.028379710910000
     0.028379710910000    -0.028379710910000     0.037109065490000
2 55
    -0.071258500470000    -0.081263783580000     0.028379710910000
    -0.081263783580000    -0.071258500470000    -0.028379710910000
    -0.028379710910000     0.028379710910000     0.037109065490000
2 56
    -0.071258500470000     0.081263783580000     0.028379710910000
     0.081263783580000    -0.071258500470000     0.028379710910000
    -0.028379710910000    -0.028379710910000     0.037109065490000
2 57
     0.055006176150000     0.081444909460000    -0.081444909460000
     0.081444909460000     0.136863543350000     0.008282905710000
    -0.081444909460000     0.008282905710000     0.136863543350000
2 58
    -6.582549277399999    -0.030534484310000     0.030534484310000
    -0.030534484310000    -6.582549277399999    -0.030534484310000
     0.030534484310000    -0.030534484310000    -6.582549277399999
2 59
    -0.059632092690000     0.068597463420000    -0.168465685450000
     0.068597463420000    -0.059632092690000     0.168465685450000
    -0.168465685450000     0.168465685450000    -0.325713337120000
2 60
     0.136863543350000     0.081444909460000    -0.008282905710000
     0.081444909460000     0.055006176150000     0.081444909460000
    -0.008282905710000     0.081444909460000     0.136863543350000
2 61
    -0.059632092690000     0.168465685450000    -0.068597463420000
     0.168465685450000    -0.325713337120000     0.168465685450000
    -0.068597463420000     0.168465685450000    -0.059632092690000
2 62
     0.136863543350000     0.008282905710000    -0.081444909460000
     0.008282905710000     0.136863543350000     0.081444909460000
    -0.081444909460000     0.081444909460000     0.055006176150000
2 63
     0.029819109150000     0.030842926790000    -0.030842926790000
     0.030842926790000     0.029819109150000     0.030842926790000
    -0.030842926790000     0.030842926790000     0.029819109150000
2 64
    -0.325713337120000     0.168465685450000    -0.168465685450000
     0.168465685450000    -0.059632092690000     0.068597463420000
    -0.168465685450000     0.068597463420000    -0.059632092690000
3 1
    -0.088022133060000    -0.000000000000000    -0.000000000000000
    -0.000000000000000    -0.118486473130000    -0.000000000000000
    -0.000000000000000    -0.000000000000000    -0.088022133060000
3 2
    -0.070460849960000    -0.000000000000000     0.000000000000000
    -0.000000000000000    -0.070460849960000     0.000000000000000
     0.000000000000000     0.000000000000000     0.538762413250000
3 3
    31.601087293979997     0.000000000000000     0.000000000000000
     0.000000000000000    31.601087293979997     0.000000000000000
     0.000000000000000     0.000000000000000    31.601087293979997
3 4
    -0.118486473130000    -0.000000000000000    -0.000000000000000
    -0.000000000000000    -0.088022133060000    -0.000000000000000
    -0.000000000000000    -0.000000000000000    -0.088022133060000
3 5
     0.538762413250000    -0.000000000000000    -0.000000000000000
    -0.000000000000000    -0.070460849960000    -0.000000000000000
    -0.000000000000000    -0.000000000000000    -0.070460849960000
3 6
    -0.042774053640000     0.000000000000000     0.000000000000000
     0.000000000000000    -0.042774053640000     0.000000000000000
     0.000000000000000     0.000000000000000    -0.042774053640000
3 7
    -0.088022133060000    -0.000000000000000    -0.000000000000000
    -0.000000000000000    -0.088022133060000    -0.000000000000000
    -0.000000000000000    -0.000000000000000    -0.118486473130000
3 8
    -0.070460849960000    -0.000000000000000    -0.000000000000000
    -0.000000000000000     0.538762413250000    -0.000000000000000
    -0.000000000000000    -0.000000000000000    -0.070460849960000
3 9
    -6.582549277399999    -0.030534484310000    -0.030534484310000
    -0.030534484310000    -6.582549277399999     0.030534484310000
    -0.030534484310000     0.030534484310000    -6.582549277399999
3 10
     0.055006176150000     0.081444909460000     0.081444909460000
     0.081444909460000     0.136863543350000    -0.008282905710000
     0.081444909460000    -0.008282905710000     0.136863543350000
3 11
     0.136863543350000     0.081444909460000     0.008282905710000
     0.081444909460000     0.055006176150000    -0.081444909460000
     0.008282905710000    -0.081444909460000     0.136863543350000
3 12
    -0.059632092690000     0.068597463420000     0.168465685450000
     0.068597463420000    -0.059632092690000    -0.168465685450000
     0.168465685450000    -0.168465685450000    -0.325713337120000
3 13
     0.136863543350000     0.008282905710000     0.081444909460000
     0.008282905710000     0.136863543350000    -0.081444909460000
     0.081444909460000    -0.081444909460000     0.055006176150000
3 14
    -0.059632092690000     0.168465685450000     0.068597463420000
     0.168465685450000    -0.325713337120000    -0.168465685450000
     0.068597463420000    -0.168465685450000    -0.059632092690000
3 15
    -0.325713337120000     0.168465685450000     0.168465685450000
     0.168465685450000    -0.059632092690000    -0.068597463420000
     0.168465685450000    -0.068597463420000    -0.059632092690000
3 16
     0.029819109150000     0.030842926790000     0.030842926790000
     0.030842926790000     0.029819109150000    -0.030842926790000
     0.030842926790000    -0.030842926790000     0.029819109150000
3 17
     1.194969945930000    -0.563761748320000    -0.563761748320000
     0.563761748320000    -1.167996723120000    -1.202110965870000
     0.563761748320000    -1.202110965870000    -1.167996723120000
3 18
     0.037109065490000    -0.028379710910000    -0.028379710910000
     0.028379710910000    -0.071258500470000     0.081263783580000