mesh: [    48,    48,    48 ]
nqpoint: 2600   
reciprocal_lattice:
- [   0.26558849,   0.00000000,   0.00000000 ] # a*
- [   0.00000000,   0.26558849,   0.00000000 ] # b*
- [   0.00000000,   0.00000000,   0.26558849 ] # c*
natom:   8      
lattice:
- [     3.765223425324161,     0.000000000000000,     0.000000000000000 ] # a
- [     0.000000000000000,     3.765223425324161,     0.000000000000000 ] # b
- [     0.000000000000000,     0.000000000000000,     3.765223425324161 ] # c
points:
- symbol: C  # 1
  coordinates: [  0.250000000000000,  0.750000000000000,  0.250000000000000 ]
  mass: 12.010700
- symbol: C  # 2
  coordinates: [  0.000000000000000,  0.000000000000000,  0.500000000000000 ]
  mass: 12.010700
- symbol: C  # 3
  coordinates: [  0.250000000000000,  0.250000000000000,  0.750000000000000 ]
  mass: 12.010700
- symbol: C  # 4
  coordinates: [  0.000000000000000,  0.500000000000000,  0.000000000000000 ]
  mass: 12.010700
- symbol: C  # 5
  coordinates: [  0.750000000000000,  0.750000000000000,  0.750000000000000 ]
  mass: 12.010700
- symbol: C  # 6
  coordinates: [  0.500000000000000,  0.000000000000000,  0.000000000000000 ]
  mass: 12.010700
- symbol: C  # 7
  coordinates: [  0.750000000000000,  0.250000000000000,  0.250000000000000 ]
  mass: 12.010700
- symbol: C  # 8
  coordinates: [  0.500000000000000,  0.500000000000000,  0.500000000000000 ]
  mass: 12.010700

phonon:
- q-position: [    0.0104167,    0.0104167,    0.0104167 ]
  distance_from_gamma:  0.004791800
  weight: 8    
  band:
  - # 1
    frequency:     0.5332272290
  - # 2
    frequency:     0.5332272290
  - # 3
    frequency:     0.7295356087
  - # 4
    frequency:    22.2793080161
  - # 5
    frequency:    22.2793080161
  - # 6
    frequency:    22.2793080161
  - # 7
    frequency:    22.2878340237
  - # 8
    frequency:    22.2878340237
  - # 9
    frequency:    22.2878340237
  - # 10
    frequency:    24.3208900871
  - # 11
    frequency:    24.3208900871
  - # 12
    frequency:    24.3208900871
  - # 13
    frequency:    24.3228186624
  - # 14
    frequency:    24.3228186624
  - # 15
    frequency:    24.3228186624
  - # 16
    frequency:    30.6149279854
  - # 17
    frequency:    30.6149279854
  - # 18
    frequency:    30.6149279854
  - # 19
    frequency:    30.8976507510
  - # 20
    frequency:    30.8976507510
  - # 21
    frequency:    30.8976507510
  - # 22
    frequency:    32.9449937996
  - # 23
    frequency:    32.9449937996
  - # 24
    frequency:    32.9501261044

- q-position: [    0.0312500,    0.0104167,    0.0104167 ]
  distance_from_gamma:  0.009175598
  weight: 24   
  band:
  - # 1
    frequency:     0.9951382427
  - # 2
    frequency:     1.0077332750
  - # 3
    frequency:     1.4242414328
  - # 4
    frequency:    22.1779592418
  - # 5
    frequency:    22.1861704300
  - # 6
    frequency:    22.2826965045
  - # 7
    frequency:    22.2826965045
  - # 8
    frequency:    22.3082489459
  - # 9
    frequency:    22.3082489459
  - # 10
    frequency:    24.3201518109
  - # 11
    frequency:    24.3201518109
  - # 12
    frequency:    24.3260558315
  - # 13
    frequency:    24.3260558315
  - # 14
    frequency:    24.4127805332
  - # 15
    frequency:    24.4144200674
  - # 16
    frequency:    30.3164611358
  - # 17
    frequency:    30.6008051767
  - # 18
    frequency:    30.6008051767
  - # 19
    frequency:    30.8835789699
  - # 20
    frequency:    30.8835789699
  - # 21
    frequency:    31.1646302465
  - # 22
    frequency:    32.9338010245
  - # 23
    frequency:    32.9341768983
  - # 24
    frequency:    32.9544737567

- q-position: [    0.0520833,    0.0104167,    0.0104167 ]
  distance_from_gamma:  0.014375399
  weight: 24   
  band:
  - # 1
    frequency:     1.5494230272
  - # 2
    frequency:     1.5593178572
  - # 3
    frequency:     2.2495277875
  - # 4
    frequency:    21.9964035926
  - # 5
    frequency:    22.0041940510
  - # 6
    frequency:    22.2978839772
  - # 7
    frequency:    22.2978839772
  - # 8
    frequency:    22.3403982431
  - # 9
    frequency:    22.3403982431
  - # 10
    frequency:    24.3205033024
  - # 11
    frequency:    24.3205033024
  - # 12
    frequency:    24.3307737080
  - # 13
    frequency:    24.3307737080
  - # 14
    frequency:    24.5751801268
  - # 15
    frequency:    24.5764536779
  - # 16
    frequency:    30.0020013973
  - # 17
    frequency:    30.5726799259
  - # 18
    frequency:    30.5726799259
  - # 19
    frequency:    30.8555412876
  - # 20
    frequency:    30.8555412876
  - # 21
    frequency:    31.4161477740
  - # 22
    frequency:    32.9114363653
  - # 23
    frequency:    32.9118911206
  - # 24
    frequency:    32.9637832999

- q-position: [    0.0729167,    0.0104167,    0.0104167 ]
  distance_from_gamma:  0.019757096
  weight: 24   
  band:
  - # 1
    frequency:     2.1242674060
  - # 2
    frequency:     2.1322694944
  - # 3
    frequency:     3.0983147182
  - # 4
    frequency:    21.7595455542
  - # 5
    frequency:    21.7669695026
  - # 6
    frequency:    22.3246157723
  - # 7
    frequency:    22.3246157723
  - # 8
    frequency:    22.3839923183
  - # 9
    frequency:    22.3839923183
  - # 10
    frequency:    24.3219009851
  - # 11
    frequency:    24.3219009851
  - # 12
    frequency:    24.3371617823
  - # 13
    frequency:    24.3371617823
  - # 14
    frequency:    24.7829628532
  - # 15
    frequency:    24.7839608431
  - # 16
    frequency:    29.6714311272
  - # 17
    frequency:    30.5307937431
  - # 18
    frequency:    30.5307937431
  - # 19
    frequency:    30.8137499605
  - # 20
    frequency:    30.8137499605
  - # 21
    frequency:    31.6523870176
  - # 22
    frequency:    32.8779415781
  - # 23
    frequency:    32.8784335590
  - # 24
    frequency:    32.9776826973

- q-position: [    0.0937500,    0.0104167,    0.0104167 ]
  distance_from_gamma:  0.025204440
  weight: 24   
  band:
  - # 1
    frequency:     2.7057559944
  - # 2
    frequency:     2.7126424102
  - # 3
    frequency:     3.9531613580
  - # 4
    frequency:    21.4855910906
  - # 5
    frequency:    21.4927484363
  - # 6
    frequency:    22.3624886178
  - # 7
    frequency:    22.3624886178
  - # 8
    frequency:    22.4386073654
  - # 9
    frequency:    22.4386073654
  - # 10
    frequency:    24.3243530672
  - # 11
    frequency:    24.3243530672
  - # 12
    frequency:    24.3454377242
  - # 13
    frequency:    24.3454377242
  - # 14
    frequency:    25.0177834211
  - # 15
    frequency:    25.0186554279
  - # 16
    frequency:    29.3246404134
  - # 17
    frequency:    30.4755109231
  - # 18
    frequency:    30.4755109231
  - # 19
    frequency:    30.7585246661
  - # 20
    frequency:    30.7585246661
  - # 21
    frequency:    31.8735600511
  - # 22
    frequency:    32.8333792320
  - # 23
    frequency:    32.8339018215
  - # 24
    frequency:    32.9959632349

- q-position: [    0.1145833,    0.0104167,    0.0104167 ]
  distance_from_gamma:  0.030682488
  weight: 24   
  band:
  - # 1
    frequency:     3.2894377259
  - # 2
    frequency:     3.2956581313
  - # 3
    frequency:     4.8085453172
  - # 4
    frequency:    21.1857119442
  - # 5
    frequency:    21.1926937130
  - # 6
    frequency:    22.4109409089
  - # 7
    frequency:    22.4109409089
  - # 8
    frequency:    22.5036814687
  - # 9
    frequency:    22.5036814687
  - # 10
    frequency:    24.3279239895
  - # 11
    frequency:    24.3279239895
  - # 12
    frequency:    24.3558516676
  - # 13
    frequency:    24.3558516676
  - # 14
    frequency:    25.2683493585
  - # 15
    frequency:    25.2692607754
  - # 16
    frequency:    28.9615438699
  - # 17
    frequency:    30.4073212287
  - # 18
    frequency:    30.4073212287
  - # 19
    frequency:    30.6902942103
  - # 20
    frequency:    30.6902942103
  - # 21
    frequency:    32.0798960998
  - # 22
    frequency:    32.7778326264
  - # 23
    frequency:    32.7783865727
  - # 24
    frequency:    33.0183885196

- q-position: [    0.1354167,    0.0104167,    0.0104167 ]
  distance_from_gamma:  0.036177293
  weight: 24   
  band:
  - # 1
    frequency:     3.8733324461
  - # 2
    frequency:     3.8791536592
  - # 3
    frequency:     5.6618494823
  - # 4
    frequency:    20.8664431481
  - # 5
    frequency:    20.8733188257
  - # 6
    frequency:    22.4692398115
  - # 7
    frequency:    22.4692398115
  - # 8
    frequency:    22.5785081591
  - # 9
    frequency:    22.5785081591
  - # 10
    frequency:    24.3327383829
  - # 11
    frequency:    24.3327383829
  - # 12
    frequency:    24.3686942753
  - # 13
    frequency:    24.3686942753
  - # 14
    frequency:    25.5279711700
  - # 15
    frequency:    25.5291138281
  - # 16
    frequency:    28.5820939730
  - # 17
    frequency:    30.3268438954
  - # 18
    frequency:    30.3268438954
  - # 19
    frequency:    30.6095990708
  - # 20
    frequency:    30.6095990708
  - # 21
    frequency:    32.2716409967
  - # 22
    frequency:    32.7114056741
  - # 23
    frequency:    32.7119938057
  - # 24
    frequency:    33.0446742051

- q-position: [    0.1562500,    0.0104167,    0.0104167 ]
  distance_from_gamma:  0.041682230
  weight: 24   
  band:
  - # 1
    frequency:     4.4563233192
  - # 2
    frequency:     4.4619124395
  - # 3
    frequency:     6.5114516629
  - # 4
    frequency:    20.5316176581
  - # 5
    frequency:    20.5384367341
  - # 6
    frequency:    22.5364654050
  - # 7
    frequency:    22.5364654050
  - # 8
    frequency:    22.6622265614
  - # 9
    frequency:    22.6622265614
  - # 10
    frequency:    24.3389877728
  - # 11
    frequency:    24.3389877728
  - # 12
    frequency:    24.3843052764
  - # 13
    frequency:    24.3843052764
  - # 14
    frequency:    25.7925820215
  - # 15
    frequency:    25.7942324631
  - # 16
    frequency:    28.1863151489
  - # 17
    frequency:    30.2348333485
  - # 18
    frequency:    30.2348333485
  - # 19
    frequency:    30.5170950302
  - # 20
    frequency:    30.5170950302
  - # 21
    frequency:    32.4490574341
  - # 22
    frequency:    32.6342227451
  - # 23
    frequency:    32.6348484850
  - # 24
    frequency:    33.0744867623

- q-position: [    0.1770833,    0.0104167,    0.0104167 ]
  distance_from_gamma:  0.047193752
  weight: 24   
  band:
  - # 1
    frequency:     5.0376563879
  - # 2
    frequency:     5.0431230085
  - # 3
    frequency:     7.3561516970
  - # 4
    frequency:    20.1835263632
  - # 5
    frequency:    20.1903226919
  - # 6
    frequency:    22.6114926711
  - # 7
    frequency:    22.6114926711
  - # 8
    frequency:    22.7538071549
  - # 9
    frequency:    22.7538071549
  - # 10
    frequency:    24.3469419630
  - # 11
    frequency:    24.3469419630
  - # 12
    frequency:    24.4030797853
  - # 13
    frequency:    24.4030797853
  - # 14
    frequency:    26.0594606371
  - # 15
    frequency:    26.0621577340
  - # 16
    frequency:    27.7744208920
  - # 17
    frequency:    30.1321871524
  - # 18
    frequency:    30.1321871524
  - # 19
    frequency:    30.4135582435
  - # 20
    frequency:    30.4135582435
  - # 21
    frequency:    32.5464284628
  - # 22
    frequency:    32.5470952909
  - # 23
    frequency:    32.6124254050
  - # 24
    frequency:    33.1074455090

- q-position: [    0.1979167,    0.0104167,    0.0104167 ]
  distance_from_gamma:  0.052709795
  weight: 24   
  band:
  - # 1
    frequency:     5.6167507053
  - # 2
    frequency:     5.6221692285
  - # 3
    frequency:     8.1949591888
  - # 4
    frequency:    19.8235684910
  - # 5
    frequency:    19.8303642738
  - # 6
    frequency:    22.6929735960
  - # 7
    frequency:    22.6929735960
  - # 8
    frequency:    22.8520319158
  - # 9
    frequency:    22.8520319158
  - # 10
    frequency:    24.3569663572
  - # 11
    frequency:    24.3569663572
  - # 12
    frequency:    24.4254689286
  - # 13
    frequency:    24.4254689286
  - # 14
    frequency:    26.3259778453
  - # 15
    frequency:    26.3313059527
  - # 16
    frequency:    27.3474203065
  - # 17
    frequency:    30.0199568480
  - # 18
    frequency:    30.0199568480
  - # 19
    frequency:    30.2998921897
  - # 20
    frequency:    30.2998921897
  - # 21
    frequency:    32.4481874459
  - # 22
    frequency:    32.4488986689
  - # 23
    frequency:    32.7620427223
  - # 24
    frequency:    33.1431256372

- q-position: [    0.2187500,    0.0104167,    0.0104167 ]
  distance_from_gamma:  0.058229073
  weight: 24   
  band:
  - # 1
    frequency:     6.1931156395
  - # 2
    frequency:     6.1985377713
  - # 3
    frequency:     9.0270029107
  - # 4
    frequency:    19.4526167431
  - # 5
    frequency:    19.4594255736
  - # 6
    frequency:    22.7793241422
  - # 7
    frequency:    22.7793241422
  - # 8
    frequency:    22.9554676025
  - # 9
    frequency:    22.9554676025
  - # 10
    frequency:    24.3695456206
  - # 11
    frequency:    24.3695456206
  - # 12
    frequency:    24.4519694481
  - # 13
    frequency:    24.4519694481
  - # 14
    frequency:    26.5806763092
  - # 15
    frequency:    26.6006062221
  - # 16
    frequency:    26.9156775334
  - # 17
    frequency:    29.8993624777
  - # 18
    frequency:    29.8993624777
  - # 19
    frequency:    30.1771370823
  - # 20
    frequency:    30.1771370823
  - # 21
    frequency:    32.3396839863
  - # 22
    frequency:    32.3404426305
  - # 23
    frequency:    32.8982255703
  - # 24
    frequency:    33.1810617253

- q-position: [    0.2395833,    0.0104167,    0.0104167 ]
  distance_from_gamma:  0.063750747
  weight: 24   
  band:
  - # 1
    frequency:     6.7663110772
  - # 2
    frequency:     6.7717732097
  - # 3
    frequency:     9.8514881076
  - # 4
    frequency:    19.0712274188
  - # 5
    frequency:    19.0780565032
  - # 6
    frequency:    22.8687243873
  - # 7
    frequency:    22.8687243873
  - # 8
    frequency:    23.0624318738
  - # 9
    frequency:    23.0624318738
  - # 10
    frequency:    24.3853121891
  - # 11
    frequency:    24.3853121891
  - # 12
    frequency:    24.4830941557
  - # 13
    frequency:    24.4830941557
  - # 14
    frequency:    26.4168195956
  - # 15
    frequency:    26.8692931040
  - # 16
    frequency:    26.8851569185
  - # 17
    frequency:    29.7718116947
  - # 18
    frequency:    29.7718116947
  - # 19
    frequency:    30.0464824439
  - # 20
    frequency:    30.0464824439
  - # 21
    frequency:    32.2211216540
  - # 22
    frequency:    32.2219304169
  - # 23
    frequency:    33.0213090629
  - # 24
    frequency:    33.2207515537

- q-position: [    0.2604167,    0.0104167,    0.0104167 ]
  distance_from_gamma:  0.069274242
  weight: 24   
  band:
  - # 1
    frequency:     7.3359268525
  - # 2
    frequency:     7.3414546378
  - # 3
    frequency:    10.6676749159
  - # 4
    frequency:    18.6797652356
  - # 5
    frequency:    18.6866170022
  - # 6
    frequency:    22.9591439770
  - # 7
    frequency:    22.9591439770
  - # 8
    frequency:    23.1709553941
  - # 9
    frequency:    23.1709553941
  - # 10
    frequency:    24.4050735630
  - # 11
    frequency:    24.4050735630
  - # 12
    frequency:    24.5193122947
  - # 13
    frequency:    24.5193122947
  - # 14
    frequency:    25.9461181120
  - # 15
    frequency:    27.1367846562
  - # 16
    frequency:    27.1435765227
  - # 17
    frequency:    29.6389243528
  - # 18
    frequency:    29.6389243528
  - # 19
    frequency:    29.9092836634
  - # 20
    frequency:    29.9092836634
  - # 21
    frequency:    32.0927228183
  - # 22
    frequency:    32.0935840563
  - # 23
    frequency:    33.1316477846
  - # 24
    frequency:    33.2616601252

- q-position: [    0.2812500,    0.0104167,    0.0104167 ]
  distance_from_gamma:  0.074799157
  weight: 24   
  band:
  - # 1
    frequency:     7.9015716094
  - # 2
    frequency:     7.9071829110
  - # 3
    frequency:    11.4748669221
  - # 4
    frequency:    18.2784798739
  - # 5
    frequency:    18.2853531543
  - # 6
    frequency:    23.0484069080
  - # 7
    frequency:    23.0484069080
  - # 8
    frequency:    23.2787519438
  - # 9
    frequency:    23.2787519438
  - # 10
    frequency:    24.4298225351
  - # 11
    frequency:    24.4298225351
  - # 12
    frequency:    24.5609481716
  - # 13
    frequency:    24.5609481716
  - # 14
    frequency:    25.4518466288
  - # 15
    frequency:    27.4026087616
  - # 16
    frequency:    27.4072181981
  - # 17
    frequency:    29.5025631976
  - # 18
    frequency:    29.5025631976
  - # 19
    frequency:    29.7670834072
  - # 20
    frequency:    29.7670834072
  - # 21
    frequency:    31.9547280739
  - # 22
    frequency:    31.9556438150
  - # 23
    frequency:    33.2296162913
  - # 24
    frequency:    33.3032238138

- q-position: [    0.3020833,    0.0104167,    0.0104167 ]
  distance_from_gamma:  0.080325198
  weight: 24   
  band:
  - # 1
    frequency:     8.4628666607
  - # 2
    frequency:     8.4685735266
  - # 3
    frequency:    12.2724049153
  - # 4
    frequency:    17.8675542735
  - # 5
    frequency:    17.8744451854
  - # 6
    frequency:    23.1343054516
  - # 7
    frequency:    23.1343054516
  - # 8
    frequency:    23.3832258333
  - # 9
    frequency:    23.3832258333
  - # 10
    frequency:    24.4606972643
  - # 11
    frequency:    24.4606972643
  - # 12
    frequency:    24.6080315580
  - # 13
    frequency:    24.6080315580
  - # 14
    frequency:    24.9397446370
  - # 15
    frequency:    27.6663576657
  - # 16
    frequency:    27.6699829422
  - # 17
    frequency:    29.3648704632
  - # 18
    frequency:    29.3648704632
  - # 19
    frequency:    29.6216386288
  - # 20
    frequency:    29.6216386288
  - # 21
    frequency:    31.8073955645
  - # 22
    frequency:    31.8083675415
  - # 23
    frequency:    33.3156095504
  - # 24
    frequency:    33.3448545790

- q-position: [    0.3229167,    0.0104167,    0.0104167 ]
  distance_from_gamma:  0.085852147
  weight: 24   
  band:
  - # 1
    frequency:     9.0194426795
  - # 2
    frequency:     9.0252527026
  - # 3
    frequency:    13.0596634332
  - # 4
    frequency:    17.4471358227
  - # 5
    frequency:    17.4540384443
  - # 6
    frequency:    23.2147588037
  - # 7
    frequency:    23.2147588037
  - # 8
    frequency:    23.4815688922
  - # 9
    frequency:    23.4815688922
  - # 10
    frequency:    24.4106608635
  - # 11
    frequency:    24.4988369934
  - # 12
    frequency:    24.4988369934
  - # 13
    frequency:    24.6601081213
  - # 14
    frequency:    24.6601081213
  - # 15
    frequency:    27.9276595402
  - # 16
    frequency:    27.9307190508
  - # 17
    frequency:    29.2283083069
  - # 18
    frequency:    29.2283083069
  - # 19
    frequency:    29.4749534269
  - # 20
    frequency:    29.4749534269
  - # 21
    frequency:    31.6510001893
  - # 22
    frequency:    31.6520298929
  - # 23
    frequency:    33.3859441839
  - # 24
    frequency:    33.3900432958

- q-position: [    0.3437500,    0.0104167,    0.0104167 ]
  distance_from_gamma:  0.091379839
  weight: 24   
  band:
  - # 1
    frequency:     9.5709380937
  - # 2
    frequency:     9.5768553772
  - # 3
    frequency:    13.8360488587
  - # 4
    frequency:    17.0173568290
  - # 5
    frequency:    17.0242637253
  - # 6
    frequency:    23.2879890757
  - # 7
    frequency:    23.2879890757
  - # 8
    frequency:    23.5710067327
  - # 9
    frequency:    23.5710067327
  - # 10
    frequency:    23.8649099712
  - # 11
    frequency:    24.5450757331
  - # 12
    frequency:    24.5450757331
  - # 13
    frequency:    24.7160420960
  - # 14
    frequency:    24.7160420960
  - # 15
    frequency:    28.1861606400
  - # 16
    frequency:    28.1888486302
  - # 17
    frequency:    29.0956973358
  - # 18
    frequency:    29.0956973358
  - # 19
    frequency:    29.3293167720
  - # 20
    frequency:    29.3293167720
  - # 21
    frequency:    31.4858326875
  - # 22
    frequency:    31.4869214379
  - # 23
    frequency:    33.4258683649
  - # 24
    frequency:    33.4533542770

- q-position: [    0.3645833,    0.0104167,    0.0104167 ]
  distance_from_gamma:  0.096908149
  weight: 24   
  band:
  - # 1
    frequency:    10.1169985673
  - # 2
    frequency:    10.1230244256
  - # 3
    frequency:    14.6009983917
  - # 4
    frequency:    16.5783480562
  - # 5
    frequency:    16.5852506987
  - # 6
    frequency:    23.3026935424
  - # 7
    frequency:    23.3526669014
  - # 8
    frequency:    23.3526669014
  - # 9
    frequency:    23.6492010602
  - # 10
    frequency:    23.6492010602
  - # 11
    frequency:    24.5994743684
  - # 12
    frequency:    24.5994743684
  - # 13
    frequency:    24.7738675279
  - # 14
    frequency:    24.7738675279
  - # 15
    frequency:    28.4415142369
  - # 16
    frequency:    28.4439365574
  - # 17
    frequency:    28.9702410458
  - # 18
    frequency:    28.9702410458
  - # 19
    frequency:    29.1873415852
  - # 20
    frequency:    29.1873415852
  - # 21
    frequency:    31.3121985898
  - # 22
    frequency:    31.3133476279
  - # 23
    frequency:    33.4639909031
  - # 24
    frequency:    33.5060003782

- q-position: [    0.3854167,    0.0104167,    0.0104167 ]
  distance_from_gamma:  0.102436974
  weight: 24   
  band:
  - # 1
    frequency:    10.6572772045
  - # 2
    frequency:    10.6634106856
  - # 3
    frequency:    15.3539795082
  - # 4
    frequency:    16.1302476381
  - # 5
    frequency:    16.1371367457
  - # 6
    frequency:    22.7241903311
  - # 7
    frequency:    23.4079785450
  - # 8
    frequency:    23.4079785450
  - # 9
    frequency:    23.7146814493
  - # 10
    frequency:    23.7146814493
  - # 11
    frequency:    24.6608302159
  - # 12
    frequency:    24.6608302159
  - # 13
    frequency:    24.8307539511
  - # 14
    frequency:    24.8307539511
  - # 15
    frequency:    28.6933739905
  - # 16
    frequency:    28.6955945653
  - # 17
    frequency:    28.8555142235
  - # 18
    frequency:    28.8555142235
  - # 19
    frequency:    29.0519970769
  - # 20
    frequency:    29.0519970769
  - # 21
    frequency:    31.1304170327
  - # 22
    frequency:    31.1316276328
  - # 23
    frequency:    33.4996675533
  - # 24
    frequency:    33.5484605874

- q-position: [    0.4062500,    0.0104167,    0.0104167 ]
  distance_from_gamma:  0.107966237
  weight: 24   
  band:
  - # 1
    frequency:    11.1914352546
  - # 2
    frequency:    11.1976735379
  - # 3
    frequency:    15.6732068303
  - # 4
    frequency:    15.6800726512
  - # 5
    frequency:    16.0944896801
  - # 6
    frequency:    22.1295842395
  - # 7
    frequency:    23.4535932078
  - # 8
    frequency:    23.4535932078
  - # 9
    frequency:    23.7670677956
  - # 10
    frequency:    23.7670677956
  - # 11
    frequency:    24.7264197357
  - # 12
    frequency:    24.7264197357
  - # 13
    frequency:    24.8831401062
  - # 14
    frequency:    24.8831401062
  - # 15
    frequency:    28.7553814744
  - # 16
    frequency:    28.7553814744
  - # 17
    frequency:    28.9266191133
  - # 18
    frequency:    28.9266191133
  - # 19
    frequency:    28.9413902759
  - # 20
    frequency:    28.9434505145
  - # 21
    frequency:    30.9408194313
  - # 22
    frequency:    30.9420930373
  - # 23
    frequency:    33.5322497939
  - # 24
    frequency:    33.5812347910

- q-position: [    0.4270833,    0.0104167,    0.0104167 ]
  distance_from_gamma:  0.113495874
  weight: 24   
  band:
  - # 1
    frequency:    11.7191431687
  - # 2
    frequency:    11.7254818768
  - # 3
    frequency:    15.2073935450
  - # 4
    frequency:    15.2142260947
  - # 5
    frequency:    16.8220562146
  - # 6
    frequency:    21.5190753194
  - # 7
    frequency:    23.4895484059
  - # 8
    frequency:    23.4895484059
  - # 9
    frequency:    23.8069275154
  - # 10
    frequency:    23.8069275154
  - # 11
    frequency:    24.7921487318
  - # 12
    frequency:    24.7921487318
  - # 13
    frequency:    24.9270657888
  - # 14
    frequency:    24.9270657888
  - # 15
    frequency:    28.6738031896
  - # 16
    frequency:    28.6738031896
  - # 17
    frequency:    28.8148750848
  - # 18
    frequency:    28.8148750848
  - # 19
    frequency:    29.1852085091
  - # 20
    frequency:    29.1871365816
  - # 21
    frequency:    30.7437480121
  - # 22
    frequency:    30.7450864013
  - # 23
    frequency:    33.5610883643
  - # 24
    frequency:    33.6048433755

- q-position: [    0.4479167,    0.0104167,    0.0104167 ]
  distance_from_gamma:  0.119025832
  weight: 24   
  band:
  - # 1
    frequency:    12.2400819012
  - # 2
    frequency:    12.2465153491
  - # 3
    frequency:    14.7329943079
  - # 4
    frequency:    14.7397835736
  - # 5
    frequency:    17.5362361257
  - # 6
    frequency:    20.8928849594
  - # 7
    frequency:    23.5160971820
  - # 8
    frequency:    23.5160971820
  - # 9
    frequency:    23.8353583751
  - # 10
    frequency:    23.8353583751
  - # 11
    frequency:    24.8530198917
  - # 12
    frequency:    24.8530198917
  - # 13
    frequency:    24.9587223890
  - # 14
    frequency:    24.9587223890
  - # 15
    frequency:    28.6144876803
  - # 16
    frequency:    28.6144876803
  - # 17
    frequency:    28.7206596296
  - # 18
    frequency:    28.7206596296
  - # 19
    frequency:    29.4244688237
  - # 20
    frequency:    29.4262845547
  - # 21
    frequency:    30.5395542091
  - # 22
    frequency:    30.5409596912
  - # 23
    frequency:    33.5855365641
  - # 24
    frequency:    33.6198266150

- q-position: [    0.4687500,    0.0104167,    0.0104167 ]
  distance_from_gamma:  0.124556068
  weight: 24   
  band:
  - # 1
    frequency:    12.7539443692
  - # 2
    frequency:    12.7604657715
  - # 3
    frequency:    14.2502150767
  - # 4
    frequency:    14.2569511966
  - # 5
    frequency:    18.2366159785
  - # 6
    frequency:    20.2512587218
  - # 7
    frequency:    23.5335610394
  - # 8
    frequency:    23.5335610394
  - # 9
    frequency:    23.8535334793
  - # 10
    frequency:    23.8535334793
  - # 11
    frequency:    24.9035402931
  - # 12
    frequency:    24.9035402931
  - # 13
    frequency:    24.9753397931
  - # 14
    frequency:    24.9753397931
  - # 15
    frequency:    28.5803291520
  - # 16
    frequency:    28.5803291520
  - # 17
    frequency:    28.6479609496
  - # 18
    frequency:    28.6479609496
  - # 19
    frequency:    29.6588066614
  - # 20
    frequency:    29.6605243212
  - # 21
    frequency:    30.3285969364
  - # 22
    frequency:    30.3300725975
  - # 23
    frequency:    33.6049532939
  - # 24
    frequency:    33.6267438261

- q-position: [    0.4895833,    0.0104167,    0.0104167 ]
  distance_from_gamma:  0.130086547
  weight: 24   
  band:
  - # 1
    frequency:    13.2604369918
  - # 2
    frequency:    13.2670386410
  - # 3
    frequency:    13.7592812346
  - # 4
    frequency:    13.7659546605
  - # 5
    frequency:    18.9228116669
  - # 6
    frequency:    19.5944680937
  - # 7
    frequency:    23.5422153263
  - # 8
    frequency:    23.5422153263
  - # 9
    frequency:    23.8623738776
  - # 10
    frequency:    23.8623738776
  - # 11
    frequency:    24.9365801224
  - # 12
    frequency:    24.9365801224
  - # 13
    frequency:    24.9776263917
  - # 14
    frequency:    24.9776263917
  - # 15
    frequency:    28.5718001984
  - # 16
    frequency:    28.5718001984
  - # 17
    frequency:    28.6016089678
  - # 18
    frequency:    28.6016089678
  - # 19
    frequency:    29.8878539647
  - # 20
    frequency:    29.8894839695
  - # 21
    frequency:    30.1112407550
  - # 22
    frequency:    30.1127907640
  - # 23
    frequency:    33.6187058232
  - # 24
    frequency:    33.6261722755

- q-position: [    0.0312500,    0.0312500,    0.0104167 ]
  distance_from_gamma:  0.012059098
  weight: 24   
  band:
  - # 1
    frequency:     1.3057191692
  - # 2
    frequency:     1.3598890486
  - # 3
    frequency:     1.8459981014
  - # 4
    frequency:    22.1813618366
  - # 5
    frequency:    22.1813618366
  - # 6
    frequency:    22.2061247872
  - # 7
    frequency:    22.2061247872
  - # 8
    frequency:    22.2690242361
  - # 9
    frequency:    22.3454612263
  - # 10
    frequency:    24.3156264776
  - # 11
    frequency:    24.3330376916
  - # 12
    frequency:    24.4121293835
  - # 13
    frequency:    24.4121293835
  - # 14
    frequency:    24.4179335612
  - # 15
    frequency:    24.4179335612
  - # 16
    frequency:    30.3030657084
  - # 17
    frequency:    30.3030657084
  - # 18
    frequency:    30.5848156363
  - # 19
    frequency:    30.8715512629
  - # 20
    frequency:    31.1500508937
  - # 21
    frequency:    31.1500508937
  - # 22
    frequency:    32.9228062800
  - # 23
    frequency:    32.9248454224
  - # 24
    frequency:    32.9571737015

- q-position: [    0.0520833,    0.0312500,    0.0104167 ]
  distance_from_gamma:  0.016367111
  weight: 48   
  band:
  - # 1
    frequency:     1.7657869530
  - # 2
    frequency:     1.8259679303
  - # 3
    frequency:     2.5212009776
  - # 4
    frequency:    21.9998547670
  - # 5
    frequency:    22.0235673565
  - # 6
    frequency:    22.1960783510
  - # 7
    frequency:    22.2378669250
  - # 8
    frequency:    22.2671885355
  - # 9
    frequency:    22.3941075963
  - # 10
    frequency:    24.3122263906
  - # 11
    frequency:    24.3414233182
  - # 12
    frequency:    24.4117295559
  - # 13
    frequency:    24.4241090975
  - # 14
    frequency:    24.5745245385
  - # 15
    frequency:    24.5803260773
  - # 16
    frequency:    29.9893453081
  - # 17
    frequency:    30.2764035072
  - # 18
    frequency:    30.5530688044
  - # 19
    frequency:    30.8474900108
  - # 20
    frequency:    31.1209939957
  - # 21
    frequency:    31.4012809448
  - # 22
    frequency:    32.9006234350
  - # 23
    frequency:    32.9036269088
  - # 24
    frequency:    32.9653055504

- q-position: [    0.0729167,    0.0312500,    0.0104167 ]
  distance_from_gamma:  0.021250249
  weight: 48   
  band: