       N       E                     dE             d eps       ncg     rms          rms(c)
DAV:   1     0.495055836744E+03    0.49506E+03   -0.11083E+05  7680   0.104E+03
DAV:   2    -0.537079700254E+03   -0.10321E+04   -0.98063E+03 10272   0.221E+02
DAV:   3    -0.581887261209E+03   -0.44808E+02   -0.44491E+02 10240   0.432E+01
DAV:   4    -0.582513399504E+03   -0.62614E+00   -0.62506E+00 10560   0.546E+00
DAV:   5    -0.582524264364E+03   -0.10865E-01   -0.10861E-01  9568   0.722E-01    0.220E+01
DAV:   6    -0.573820566232E+03    0.87037E+01   -0.59976E+00  9088   0.468E+00    0.125E+01
DAV:   7    -0.570872362201E+03    0.29482E+01   -0.72568E+00  9248   0.531E+00    0.178E+00
DAV:   8    -0.570915593293E+03   -0.43231E-01   -0.17424E-01  9728   0.812E-01    0.193E-01
DAV:   9    -0.570917870913E+03   -0.22776E-02   -0.37436E-03 10112   0.141E-01    0.725E-02
DAV:  10    -0.570918337228E+03   -0.46631E-03   -0.49128E-04  9536   0.554E-02    0.750E-03
DAV:  11    -0.570918338296E+03   -0.10683E-05   -0.11496E-05 10208   0.719E-03    0.192E-03
DAV:  12    -0.570918339149E+03   -0.85240E-06   -0.72207E-07  9792   0.195E-03    0.362E-04
DAV:  13    -0.570918339236E+03   -0.87355E-07   -0.17099E-08  8064   0.283E-04    0.280E-04
DAV:  14    -0.570918339230E+03    0.57262E-08   -0.20950E-09  6848   0.105E-04
   1 F= -.57091834E+03 E0= -.57091834E+03  d E =-.206678E-14
 Linear response reoptimize wavefunctions
DAV:   1    -0.570918339229E+03    0.82127E-09   -0.52149E-10  6208   0.499E-05
DAV:   2    -0.570918339230E+03   -0.59117E-09   -0.12962E-10  5952   0.263E-05
DAV:   3    -0.570918339230E+03    0.77307E-10   -0.30713E-11  5760   0.143E-05
 Linear response DOF=           1
 Linear response progress:
  Degree of freedom:   1/  1
       N       E                     dE             d eps       ncg     rms          rms(c)
RMM:   1    -0.134922410639E+00   -0.13492E+00    0.14528E-02 54625   0.686E-01
RMM:   2    -0.118130964097E+00    0.16791E-01   -0.69690E-03 34338   0.175E-01    0.141E-01
RMM:   3    -0.118127954280E+00    0.30098E-05   -0.53067E-04 35862   0.384E-02    0.752E-02
RMM:   4    -0.118288047937E+00   -0.16009E-03   -0.13241E-04 36188   0.200E-02    0.241E-02
RMM:   5    -0.118334228967E+00   -0.46181E-04   -0.11060E-05 36442   0.608E-03    0.571E-03
RMM:   6    -0.118315216191E+00    0.19013E-04   -0.57177E-06 37203   0.180E-03    0.121E-03
RMM:   7    -0.118307279178E+00    0.79370E-05   -0.64253E-06 37620   0.628E-04    0.339E-04
RMM:   8    -0.118306720412E+00    0.55877E-06   -0.39739E-06 39629   0.295E-04    0.907E-05
RMM:   9    -0.118306568787E+00    0.15163E-06   -0.48031E-06 41718   0.221E-04    0.387E-05
RMM:  10    -0.118306633411E+00   -0.64624E-07   -0.41503E-06 42640   0.210E-04    0.130E-05
RMM:  11    -0.118306703224E+00   -0.69814E-07   -0.48026E-06 42993   0.207E-04    0.520E-06
 Linear response finished
