 vasp.5.4.4.18Apr17-6-g9f103f2a35 (build Mar 12 2022 03:36:41) complex          
  
 executed on IFC19.0.3.199_CrayMP date 2022.12.02  03:11:59
 running on   32 total cores
 distrk:  each k-point on   32 cores,    1 groups
 distr:  one band on NCORES_PER_BAND=   1 cores,   32 groups


--------------------------------------------------------------------------------------------------------


 INCAR:
 POTCAR:   PAW_PBE C 08Apr2002                    

 ----------------------------------------------------------------------------- 
|                                                                             |
|           W    W    AA    RRRRR   N    N  II  N    N   GGGG   !!!           |
|           W    W   A  A   R    R  NN   N  II  NN   N  G    G  !!!           |
|           W    W  A    A  R    R  N N  N  II  N N  N  G       !!!           |
|           W WW W  AAAAAA  RRRRR   N  N N  II  N  N N  G  GGG   !            |
|           WW  WW  A    A  R   R   N   NN  II  N   NN  G    G                |
|           W    W  A    A  R    R  N    N  II  N    N   GGGG   !!!           |
|                                                                             |
|      For optimal performance we recommend to set                            |
|        NCORE= 4 - approx SQRT( number of cores)                             |
|      NCORE specifies how many cores store one orbital (NPAR=cpu/NCORE).     |
|      This setting can  greatly improve the performance of VASP for DFT.     |
|      The default,   NCORE=1            might be grossly inefficient         |
|      on modern multi-core architectures or massively parallel machines.     |
|      Do your own testing !!!!                                               |
|      Unfortunately you need to use the default for GW and RPA calculations. |
|      (for HF NCORE is supported but not extensively tested yet)             |
|                                                                             |
 ----------------------------------------------------------------------------- 

 POTCAR:   PAW_PBE C 08Apr2002                    
   VRHFIN =C: s2p2                                                              
   LEXCH  = PE                                                                  
   EATOM  =   147.1560 eV,   10.8157 Ry                                         
                                                                                
   TITEL  = PAW_PBE C 08Apr2002                                                 
   LULTRA =        F    use ultrasoft PP ?                                      
   IUNSCR =        0    unscreen: 0-lin 1-nonlin 2-no                           
   RPACOR =     .000    partial core radius                                     
   POMASS =   12.011; ZVAL   =    4.000    mass and valenz                      
   RCORE  =    1.500    outmost cutoff radius                                   
   RWIGS  =    1.630; RWIGS  =     .863    wigner-seitz radius (au A)           
   ENMAX  =  400.000; ENMIN  =  300.000 eV                                      
   ICORE  =        2    local potential                                         
   LCOR   =        T    correct aug charges                                     
   LPAW   =        T    paw PP                                                  
   EAUG   =  644.873                                                            
   DEXC   =     .000                                                            
   RMAX   =    2.266    core radius for proj-oper                               
   RAUG   =    1.300    factor for augmentation sphere                          
   RDEP   =    1.501    radius for radial grids                                 
   RDEPT  =    1.300    core radius for aug-charge                              
   QCUT   =   -5.516; QGAM   =   11.032    optimization parameters              
                                                                                
   Description                                                                  
     l     E      TYP  RCUT    TYP  RCUT                                        
     0   .000     23  1.200                                                     
     0   .000     23  1.200                                                     
     1   .000     23  1.500                                                     
     1  2.500     23  1.500                                                     
     2   .000      7  1.500                                                     
  local pseudopotential read in
  atomic valenz-charges read in
  non local Contribution for L=           0  read in
    real space projection operators read in
  non local Contribution for L=           0  read in
    real space projection operators read in
  non local Contribution for L=           1  read in
    real space projection operators read in
  non local Contribution for L=           1  read in
    real space projection operators read in
    PAW grid and wavefunctions read in
 
   number of l-projection  operators is LMAX  =           4
   number of lm-projection operators is LMMAX =           8
 

 ----------------------------------------------------------------------------- 
|                                                                             |
|  ADVICE TO THIS USER RUNNING 'VASP/VAMP'   (HEAR YOUR MASTER'S VOICE ...):  |
|                                                                             |
|      You have a (more or less) 'large supercell' and for larger cells       |
|      it might be more efficient to use real space projection operators      |
|      So try LREAL= Auto  in the INCAR   file.                               |
|      Mind: If you want to do a very accurate calculations keep the          |
|      reciprocal projection scheme          (i.e. LREAL=.FALSE.)             |
|                                                                             |
 ----------------------------------------------------------------------------- 

 PAW_PBE C 08Apr2002                    :
 energy of atom  1       EATOM= -147.1560
 kinetic energy error for atom=    0.0288 (will be added to EATOM!!)
 
 
 POSCAR: generated by phonopy                    
  positions in direct lattice
  No initial velocities read in
 exchange correlation table for  LEXCH =        8
   RHO(1)=    0.500       N(1)  =     2000
   RHO(2)=  100.500       N(2)  =     4000
 


--------------------------------------------------------------------------------------------------------


 ion  position               nearest neighbor table
   1  0.125  0.375  0.125-  11 1.63  25 1.63  43 1.63  57 1.63
   2  0.625  0.375  0.125-  12 1.63  26 1.63  44 1.63  58 1.63
   3  0.125  0.875  0.125-   9 1.63  27 1.63  41 1.63  59 1.63
   4  0.625  0.875  0.125-  10 1.63  28 1.63  42 1.63  60 1.63
   5  0.125  0.375  0.625-  15 1.63  29 1.63  47 1.63  61 1.63
   6  0.625  0.375  0.625-  16 1.63  30 1.63  48 1.63  62 1.63
   7  0.125  0.875  0.625-  13 1.63  31 1.63  45 1.63  63 1.63
   8  0.625  0.875  0.625-  14 1.63  32 1.63  46 1.63  64 1.63
   9  0.000  0.000  0.250-   3 1.63  17 1.63  36 1.63  50 1.63
  10  0.500  0.000  0.250-   4 1.63  18 1.63  35 1.63  49 1.63
  11  0.000  0.500  0.250-   1 1.63  19 1.63  34 1.63  52 1.63
  12  0.500  0.500  0.250-   2 1.63  20 1.63  33 1.63  51 1.63
  13  0.000  0.000  0.750-   7 1.63  21 1.63  40 1.63  54 1.63
  14  0.500  0.000  0.750-   8 1.63  22 1.63  39 1.63  53 1.63
  15  0.000  0.500  0.750-   5 1.63  23 1.63  38 1.63  56 1.63
  16  0.500  0.500  0.750-   6 1.63  24 1.63  37 1.63  55 1.63
  17  0.125  0.125  0.375-   9 1.63  29 1.63  45 1.63  57 1.63
  18  0.625  0.125  0.375-  10 1.63  30 1.63  46 1.63  58 1.63
  19  0.125  0.625  0.375-  11 1.63  31 1.63  47 1.63  59 1.63
  20  0.625  0.625  0.375-  12 1.63  32 1.63  48 1.63  60 1.63
  21  0.125  0.125  0.875-  13 1.63  25 1.63  41 1.63  61 1.63
  22  0.625  0.125  0.875-  14 1.63  26 1.63  42 1.63  62 1.63
  23  0.125  0.625  0.875-  15 1.63  27 1.63  43 1.63  63 1.63
  24  0.625  0.625  0.875-  16 1.63  28 1.63  44 1.63  64 1.63
  25  0.000  0.250  0.000-   1 1.63  21 1.63  38 1.63  50 1.63
  26  0.500  0.250  0.000-   2 1.63  22 1.63  37 1.63  49 1.63
  27  0.000  0.750  0.000-   3 1.63  23 1.63  40 1.63  52 1.63
  28  0.500  0.750  0.000-   4 1.63  24 1.63  39 1.63  51 1.63
  29  0.000  0.250  0.500-   5 1.63  17 1.63  34 1.63  54 1.63
  30  0.500  0.250  0.500-   6 1.63  18 1.63  33 1.63  53 1.63
  31  0.000  0.750  0.500-   7 1.63  19 1.63  36 1.63  56 1.63
  32  0.500  0.750  0.500-   8 1.63  20 1.63  35 1.63  55 1.63
  33  0.375  0.375  0.375-  12 1.63  30 1.63  47 1.63  57 1.63
  34  0.875  0.375  0.375-  11 1.63  29 1.63  48 1.63  58 1.63
  35  0.375  0.875  0.375-  10 1.63  32 1.63  45 1.63  59 1.63
  36  0.875  0.875  0.375-   9 1.63  31 1.63  46 1.63  60 1.63
  37  0.375  0.375  0.875-  16 1.63  26 1.63  43 1.63  61 1.63
  38  0.875  0.375  0.875-  15 1.63  25 1.63  44 1.63  62 1.63
  39  0.375  0.875  0.875-  14 1.63  28 1.63  41 1.63  63 1.63
  40  0.875  0.875  0.875-  13 1.63  27 1.63  42 1.63  64 1.63
  41  0.250  0.000  0.000-   3 1.63  21 1.63  39 1.63  49 1.63
  42  0.750  0.000  0.000-   4 1.63  22 1.63  40 1.63  50 1.63
  43  0.250  0.500  0.000-   1 1.63  23 1.63  37 1.63  51 1.63
  44  0.750  0.500  0.000-   2 1.63  24 1.63  38 1.63  52 1.63
  45  0.250  0.000  0.500-   7 1.63  17 1.63  35 1.63  53 1.63
  46  0.750  0.000  0.500-   8 1.63  18 1.63  36 1.63  54 1.63
  47  0.250  0.500  0.500-   5 1.63  19 1.63  33 1.63  55 1.63
  48  0.750  0.500  0.500-   6 1.63  20 1.63  34 1.63  56 1.63
  49  0.375  0.125  0.125-  10 1.63  26 1.63  41 1.63  57 1.63
  50  0.875  0.125  0.125-   9 1.63  25 1.63  42 1.63  58 1.63
  51  0.375  0.625  0.125-  12 1.63  28 1.63  43 1.63  59 1.63
  52  0.875  0.625  0.125-  11 1.63  27 1.63  44 1.63  60 1.63
  53  0.375  0.125  0.625-  14 1.63  30 1.63  45 1.63  61 1.63
  54  0.875  0.125  0.625-  13 1.63  29 1.63  46 1.63  62 1.63
  55  0.375  0.625  0.625-  16 1.63  32 1.63  47 1.63  63 1.63
  56  0.875  0.625  0.625-  15 1.63  31 1.63  48 1.63  64 1.63
  57  0.250  0.250  0.250-   1 1.63  17 1.63  33 1.63  49 1.63
  58  0.750  0.250  0.250-   2 1.63  18 1.63  34 1.63  50 1.63
  59  0.250  0.750  0.250-   3 1.63  19 1.63  35 1.63  51 1.63
  60  0.750  0.750  0.250-   4 1.63  20 1.63  36 1.63  52 1.63
  61  0.250  0.250  0.750-   5 1.63  21 1.63  37 1.63  53 1.63
  62  0.750  0.250  0.750-   6 1.63  22 1.63  38 1.63  54 1.63
  63  0.250  0.750  0.750-   7 1.63  23 1.63  39 1.63  55 1.63
  64  0.750  0.750  0.750-   8 1.63  24 1.63  40 1.63  56 1.63
 
  LATTYP: Found a simple cubic cell.
 ALAT       =     7.5304468506
  
  Lattice vectors:
  
 A1 = (   7.5304468506,   0.0000000000,   0.0000000000)
 A2 = (   0.0000000000,   7.5304468506,   0.0000000000)
 A3 = (   0.0000000000,   0.0000000000,   7.5304468506)


Analysis of symmetry for initial positions (statically):
=====================================================================
 Subroutine PRICEL returns following result:
 
  LATTYP: Found a face centered cubic cell.
 ALAT       =     3.7652234253
  
  Lattice vectors:
  
 A1 = (   1.8826117127,   1.8826117127,   0.0000000000)
 A2 = (   1.8826117127,   0.0000000000,  -1.8826117127)
 A3 = (   0.0000000000,   1.8826117127,  -1.8826117127)
 
  32 primitive cells build up your supercell.
 

 Routine SETGRP: Setting up the symmetry group for a 
 simple cubic supercell.


 Subroutine GETGRP returns: Found 48 space group operations
 (whereof 24 operations were pure point group operations)
 out of a pool of 48 trial point group operations.


The static configuration has the point symmetry T_d .
 The point group associated with its full space group is O_h .


Analysis of symmetry for dynamics (positions and initial velocities):
=====================================================================
 Subroutine PRICEL returns following result:
 
  LATTYP: Found a face centered cubic cell.
 ALAT       =     3.7652234253
  
  Lattice vectors:
  
 A1 = (   1.8826117127,   1.8826117127,   0.0000000000)
 A2 = (   1.8826117127,   0.0000000000,  -1.8826117127)
 A3 = (   0.0000000000,   1.8826117127,  -1.8826117127)
 
  32 primitive cells build up your supercell.
 

 Routine SETGRP: Setting up the symmetry group for a 
 simple cubic supercell.


 Subroutine GETGRP returns: Found 48 space group operations
 (whereof 24 operations were pure point group operations)
 out of a pool of 48 trial point group operations.


The dynamic configuration has the point symmetry T_d .
 The point group associated with its full space group is O_h .


 Subroutine INISYM returns: Found 48 space group operations
 (whereof 24 operations are pure point group operations),
 and found    32 'primitive' translations

 
 
 KPOINTS: kpt_density=3000                        

Automatic generation of k-mesh.
Space group operators:
 irot       det(A)        alpha          n_x          n_y          n_z        tau_x        tau_y        tau_z
    1     1.000000     0.000000     1.000000     0.000000     0.000000     0.000000     0.000000     0.000000
    2     1.000000   120.000000    -0.577350    -0.577350    -0.577350     0.000000     0.000000     0.000000
    3     1.000000   120.000000     0.577350     0.577350     0.577350     0.000000     0.000000     0.000000
    4    -1.000000    90.000000     0.000000     0.000000    -1.000000     0.000000     0.000000     0.000000
    5    -1.000000   180.000000     0.000000     0.707107     0.707107     0.000000     0.000000     0.000000
    6    -1.000000    90.000000     0.000000     1.000000     0.000000     0.000000     0.000000     0.000000
    7     1.000000   180.000000     0.000000     0.000000     1.000000     0.000000     0.000000     0.000000
    8     1.000000   120.000000    -0.577350     0.577350     0.577350     0.000000     0.000000     0.000000
    9     1.000000   120.000000    -0.577350     0.577350    -0.577350     0.000000     0.000000     0.000000
   10    -1.000000    90.000000     0.000000     0.000000     1.000000     0.000000     0.000000     0.000000
   11    -1.000000    90.000000    -1.000000     0.000000     0.000000     0.000000     0.000000     0.000000
   12    -1.000000   180.000000     0.707107     0.000000     0.707107     0.000000     0.000000     0.000000
   13     1.000000   120.000000     0.577350    -0.577350     0.577350     0.000000     0.000000     0.000000
   14     1.000000   120.000000    -0.577350    -0.577350     0.577350     0.000000     0.000000     0.000000
   15     1.000000   180.000000     1.000000     0.000000     0.000000     0.000000     0.000000     0.000000
   16    -1.000000    90.000000     0.000000    -1.000000     0.000000     0.000000     0.000000     0.000000
   17    -1.000000   180.000000     0.707107     0.707107     0.000000     0.000000     0.000000     0.000000
   18    -1.000000    90.000000     1.000000     0.000000     0.000000     0.000000     0.000000     0.000000
   19     1.000000   120.000000     0.577350    -0.577350    -0.577350     0.000000     0.000000     0.000000
   20     1.000000   180.000000     0.000000     1.000000     0.000000     0.000000     0.000000     0.000000
   21     1.000000   120.000000     0.577350     0.577350    -0.577350     0.000000     0.000000     0.000000
   22    -1.000000   180.000000     0.000000    -0.707107     0.707107     0.000000     0.000000     0.000000
   23    -1.000000   180.000000     0.707107    -0.707107     0.000000     0.000000     0.000000     0.000000
   24    -1.000000   180.000000     0.707107     0.000000    -0.707107     0.000000     0.000000     0.000000
   25    -1.000000     0.000000     1.000000     0.000000     0.000000     0.375000     0.375000    -0.375000
   26    -1.000000   120.000000    -0.577350    -0.577350    -0.577350     0.375000     0.375000    -0.375000
   27    -1.000000   120.000000     0.577350     0.577350     0.577350     0.375000     0.375000    -0.375000
   28     1.000000    90.000000     0.000000     0.000000    -1.000000     0.375000     0.375000    -0.375000
   29     1.000000   180.000000     0.000000     0.707107     0.707107     0.375000     0.375000    -0.375000
   30     1.000000    90.000000     0.000000     1.000000     0.000000     0.375000     0.375000    -0.375000
   31    -1.000000   180.000000     0.000000     0.000000     1.000000     0.375000     0.375000    -0.375000
   32    -1.000000   120.000000    -0.577350     0.577350     0.577350     0.375000     0.375000    -0.375000
   33    -1.000000   120.000000    -0.577350     0.577350    -0.577350     0.375000     0.375000    -0.375000
   34     1.000000    90.000000     0.000000     0.000000     1.000000     0.375000     0.375000    -0.375000
   35     1.000000    90.000000    -1.000000     0.000000     0.000000     0.375000     0.375000    -0.375000
   36     1.000000   180.000000     0.707107     0.000000     0.707107     0.375000     0.375000    -0.375000
   37    -1.000000   120.000000     0.577350    -0.577350     0.577350     0.375000     0.375000    -0.375000
   38    -1.000000   120.000000    -0.577350    -0.577350     0.577350     0.375000     0.375000    -0.375000
   39    -1.000000   180.000000     1.000000     0.000000     0.000000     0.375000     0.375000    -0.375000
   40     1.000000    90.000000     0.000000    -1.000000     0.000000     0.375000     0.375000    -0.375000
   41     1.000000   180.000000     0.707107     0.707107     0.000000     0.375000     0.375000    -0.375000
   42     1.000000    90.000000     1.000000     0.000000     0.000000     0.375000     0.375000    -0.375000
   43    -1.000000   120.000000     0.577350    -0.577350    -0.577350     0.375000     0.375000    -0.375000
   44    -1.000000   180.000000     0.000000     1.000000     0.000000     0.375000     0.375000    -0.375000
   45    -1.000000   120.000000     0.577350     0.577350    -0.577350     0.375000     0.375000    -0.375000
   46     1.000000   180.000000     0.000000    -0.707107     0.707107     0.375000     0.375000    -0.375000
   47     1.000000   180.000000     0.707107    -0.707107     0.000000     0.375000     0.375000    -0.375000
   48     1.000000   180.000000     0.707107     0.000000    -0.707107     0.375000     0.375000    -0.375000
 
 Subroutine IBZKPT returns following result:
 ===========================================
 
 Found     20 irreducible k-points:
 
 Following reciprocal coordinates:
            Coordinates               Weight
  0.000000  0.000000  0.000000      1.000000
  0.166667  0.000000  0.000000      6.000000
  0.333333  0.000000  0.000000      6.000000
  0.500000  0.000000  0.000000      3.000000
  0.166667  0.166667  0.000000     12.000000
  0.333333  0.166667  0.000000     24.000000
  0.500000  0.166667  0.000000     12.000000
  0.333333  0.333333  0.000000     12.000000
  0.500000  0.333333  0.000000     12.000000
  0.500000  0.500000  0.000000      3.000000
  0.166667  0.166667  0.166667      8.000000
  0.333333  0.166667  0.166667     24.000000
  0.500000  0.166667  0.166667     12.000000
  0.333333  0.333333  0.166667     24.000000
  0.500000  0.333333  0.166667     24.000000
  0.500000  0.500000  0.166667      6.000000
  0.333333  0.333333  0.333333      8.000000
  0.500000  0.333333  0.333333     12.000000
  0.500000  0.500000  0.333333      6.000000
  0.500000  0.500000  0.500000      1.000000
 
 Following cartesian coordinates:
            Coordinates               Weight
  0.000000  0.000000  0.000000      1.000000
  0.022132  0.000000  0.000000      6.000000
  0.044265  0.000000  0.000000      6.000000
  0.066397  0.000000  0.000000      3.000000
  0.022132  0.022132  0.000000     12.000000
  0.044265  0.022132  0.000000     24.000000
  0.066397  0.022132  0.000000     12.000000
  0.044265  0.044265  0.000000     12.000000
  0.066397  0.044265  0.000000     12.000000
  0.066397  0.066397  0.000000      3.000000
  0.022132  0.022132  0.022132      8.000000
  0.044265  0.022132  0.022132     24.000000
  0.066397  0.022132  0.022132     12.000000
  0.044265  0.044265  0.022132     24.000000
  0.066397  0.044265  0.022132     24.000000
  0.066397  0.066397  0.022132      6.000000
  0.044265  0.044265  0.044265      8.000000
  0.066397  0.044265  0.044265     12.000000
  0.066397  0.066397  0.044265      6.000000
  0.066397  0.066397  0.066397      1.000000
 
 
 Subroutine IBZKPT_HF returns following result:
 ==============================================
 
 Found    216 k-points in 1st BZ
 the following    216 k-points will be used (e.g. in the exchange kernel)
 Following reciprocal coordinates:   # in IRBZ
  0.000000  0.000000  0.000000    0.00462963   1 t-inv F
  0.166667  0.000000  0.000000    0.00462963   2 t-inv F
  0.333333  0.000000  0.000000    0.00462963   3 t-inv F
  0.500000  0.000000  0.000000    0.00462963   4 t-inv F
  0.166667  0.166667  0.000000    0.00462963   5 t-inv F
  0.333333  0.166667  0.000000    0.00462963   6 t-inv F
  0.500000  0.166667  0.000000    0.00462963   7 t-inv F
  0.333333  0.333333  0.000000    0.00462963   8 t-inv F
  0.500000  0.333333  0.000000    0.00462963   9 t-inv F
  0.500000  0.500000  0.000000    0.00462963  10 t-inv F
  0.166667  0.166667  0.166667    0.00462963  11 t-inv F
  0.333333  0.166667  0.166667    0.00462963  12 t-inv F
  0.500000  0.166667  0.166667    0.00462963  13 t-inv F
  0.333333  0.333333  0.166667    0.00462963  14 t-inv F
  0.500000  0.333333  0.166667    0.00462963  15 t-inv F
  0.500000  0.500000  0.166667    0.00462963  16 t-inv F
  0.333333  0.333333  0.333333    0.00462963  17 t-inv F
  0.500000  0.333333  0.333333    0.00462963  18 t-inv F
  0.500000  0.500000  0.333333    0.00462963  19 t-inv F
  0.500000  0.500000  0.500000    0.00462963  20 t-inv F
  0.000000  0.166667  0.000000    0.00462963   2 t-inv F
  0.000000  0.000000  0.166667    0.00462963   2 t-inv F
  0.000000 -0.166667  0.000000    0.00462963   2 t-inv F
  0.000000  0.000000 -0.166667    0.00462963   2 t-inv F
 -0.166667  0.000000  0.000000    0.00462963   2 t-inv F
  0.000000  0.333333  0.000000    0.00462963   3 t-inv F
  0.000000  0.000000  0.333333    0.00462963   3 t-inv F
  0.000000 -0.333333  0.000000    0.00462963   3 t-inv F
  0.000000  0.000000 -0.333333    0.00462963   3 t-inv F
 -0.333333  0.000000  0.000000    0.00462963   3 t-inv F
  0.000000  0.500000  0.000000    0.00462963   4 t-inv F
  0.000000  0.000000  0.500000    0.00462963   4 t-inv F
  0.000000  0.166667  0.166667    0.00462963   5 t-inv F
  0.166667  0.000000  0.166667    0.00462963   5 t-inv F
  0.166667 -0.166667  0.000000    0.00462963   5 t-inv F
  0.166667  0.000000 -0.166667    0.00462963   5 t-inv F
  0.000000 -0.166667 -0.166667    0.00462963   5 t-inv F
 -0.166667 -0.166667  0.000000    0.00462963   5 t-inv F
  0.000000 -0.166667  0.166667    0.00462963   5 t-inv F
 -0.166667  0.000000  0.166667    0.00462963   5 t-inv F
 -0.166667  0.166667  0.000000    0.00462963   5 t-inv F
 -0.166667  0.000000 -0.166667    0.00462963   5 t-inv F
  0.000000  0.166667 -0.166667    0.00462963   5 t-inv F
  0.000000  0.333333  0.166667    0.00462963   6 t-inv F
  0.166667  0.000000  0.333333    0.00462963   6 t-inv F
  0.166667 -0.333333  0.000000    0.00462963   6 t-inv F
  0.333333  0.000000 -0.166667    0.00462963   6 t-inv F
  0.000000 -0.166667 -0.333333    0.00462963   6 t-inv F
 -0.333333 -0.166667  0.000000    0.00462963   6 t-inv F
  0.000000 -0.333333  0.166667    0.00462963   6 t-inv F
 -0.166667  0.000000  0.333333    0.00462963   6 t-inv F
 -0.166667  0.333333  0.000000    0.00462963   6 t-inv F
 -0.333333  0.000000 -0.166667    0.00462963   6 t-inv F
  0.000000  0.166667 -0.333333    0.00462963   6 t-inv F
  0.000000 -0.333333 -0.166667    0.00462963   6 t-inv F
  0.166667  0.000000 -0.333333    0.00462963   6 t-inv F
  0.333333 -0.166667  0.000000    0.00462963   6 t-inv F
  0.000000 -0.166667  0.333333    0.00462963   6 t-inv F
 -0.166667 -0.333333  0.000000    0.00462963   6 t-inv F
 -0.333333  0.000000  0.166667    0.00462963   6 t-inv F
 -0.166667  0.000000 -0.333333    0.00462963   6 t-inv F
 -0.333333  0.166667  0.000000    0.00462963   6 t-inv F
  0.000000  0.333333 -0.166667    0.00462963   6 t-inv F
  0.333333  0.000000  0.166667    0.00462963   6 t-inv F
  0.166667  0.333333  0.000000    0.00462963   6 t-inv F
  0.000000  0.166667  0.333333    0.00462963   6 t-inv F
  0.000000  0.500000  0.166667    0.00462963   7 t-inv F
  0.166667  0.000000  0.500000    0.00462963   7 t-inv F
  0.166667 -0.500000  0.000000    0.00462963   7 t-inv F
  0.500000  0.000000 -0.166667    0.00462963   7 t-inv F
  0.000000 -0.166667 -0.500000    0.00462963   7 t-inv F
 -0.500000 -0.166667  0.000000    0.00462963   7 t-inv F
 -0.166667  0.000000  0.500000    0.00462963   7 t-inv F
 -0.166667  0.500000  0.000000    0.00462963   7 t-inv F
  0.000000  0.166667 -0.500000    0.00462963   7 t-inv F
  0.000000 -0.500000 -0.166667    0.00462963   7 t-inv F
 -0.500000  0.000000  0.166667    0.00462963   7 t-inv F
  0.000000  0.333333  0.333333    0.00462963   8 t-inv F
  0.333333  0.000000  0.333333    0.00462963   8 t-inv F
  0.333333 -0.333333  0.000000    0.00462963   8 t-inv F
  0.333333  0.000000 -0.333333    0.00462963   8 t-inv F
  0.000000 -0.333333 -0.333333    0.00462963   8 t-inv F
 -0.333333 -0.333333  0.000000    0.00462963   8 t-inv F
  0.000000 -0.333333  0.333333    0.00462963   8 t-inv F
 -0.333333  0.000000  0.333333    0.00462963   8 t-inv F
 -0.333333  0.333333  0.000000    0.00462963   8 t-inv F
 -0.333333  0.000000 -0.333333    0.00462963   8 t-inv F
  0.000000  0.333333 -0.333333    0.00462963   8 t-inv F
  0.000000  0.500000  0.333333    0.00462963   9 t-inv F
  0.333333  0.000000  0.500000    0.00462963   9 t-inv F
  0.333333 -0.500000  0.000000    0.00462963   9 t-inv F
  0.500000  0.000000 -0.333333    0.00462963   9 t-inv F
  0.000000 -0.333333 -0.500000    0.00462963   9 t-inv F
 -0.500000 -0.333333  0.000000    0.00462963   9 t-inv F
 -0.333333  0.000000  0.500000    0.00462963   9 t-inv F
 -0.333333  0.500000  0.000000    0.00462963   9 t-inv F
  0.000000  0.333333 -0.500000    0.00462963   9 t-inv F
  0.000000 -0.500000 -0.333333    0.00462963   9 t-inv F
 -0.500000  0.000000  0.333333    0.00462963   9 t-inv F
  0.000000  0.500000  0.500000    0.00462963  10 t-inv F
  0.500000  0.000000  0.500000    0.00462963  10 t-inv F
  0.166667 -0.166667 -0.166667    0.00462963  11 t-inv F
 -0.166667 -0.166667  0.166667    0.00462963  11 t-inv F
 -0.166667  0.166667 -0.166667    0.00462963  11 t-inv F
 -0.166667 -0.166667 -0.166667    0.00462963  11 t-inv F
 -0.166667  0.166667  0.166667    0.00462963  11 t-inv F
  0.166667  0.166667 -0.166667    0.00462963  11 t-inv F
  0.166667 -0.166667  0.166667    0.00462963  11 t-inv F
  0.166667  0.333333  0.166667    0.00462963  12 t-inv F
  0.166667  0.166667  0.333333    0.00462963  12 t-inv F
  0.166667 -0.333333 -0.166667    0.00462963  12 t-inv F
  0.333333 -0.166667 -0.166667    0.00462963  12 t-inv F
  0.166667 -0.166667 -0.333333    0.00462963  12 t-inv F
 -0.333333 -0.166667  0.166667    0.00462963  12 t-inv F
 -0.166667 -0.333333  0.166667    0.00462963  12 t-inv F
 -0.166667 -0.166667  0.333333    0.00462963  12 t-inv F
 -0.166667  0.333333 -0.166667    0.00462963  12 t-inv F
 -0.333333  0.166667 -0.166667    0.00462963  12 t-inv F
 -0.166667  0.166667 -0.333333    0.00462963  12 t-inv F
 -0.333333 -0.166667 -0.166667    0.00462963  12 t-inv F
 -0.166667 -0.333333 -0.166667    0.00462963  12 t-inv F
 -0.166667 -0.166667 -0.333333    0.00462963  12 t-inv F
 -0.166667  0.333333  0.166667    0.00462963  12 t-inv F
 -0.333333  0.166667  0.166667    0.00462963  12 t-inv F
 -0.166667  0.166667  0.333333    0.00462963  12 t-inv F
  0.333333  0.166667 -0.166667    0.00462963  12 t-inv F
  0.166667  0.333333 -0.166667    0.00462963  12 t-inv F
  0.166667  0.166667 -0.333333    0.00462963  12 t-inv F
  0.166667 -0.333333  0.166667    0.00462963  12 t-inv F
  0.333333 -0.166667  0.166667    0.00462963  12 t-inv F
  0.166667 -0.166667  0.333333    0.00462963  12 t-inv F
  0.166667  0.500000  0.166667    0.00462963  13 t-inv F
  0.166667  0.166667  0.500000    0.00462963  13 t-inv F
  0.166667 -0.500000 -0.166667    0.00462963  13 t-inv F
  0.500000 -0.166667 -0.166667    0.00462963  13 t-inv F
  0.166667 -0.166667 -0.500000    0.00462963  13 t-inv F
 -0.500000 -0.166667  0.166667    0.00462963  13 t-inv F
 -0.166667 -0.500000  0.166667    0.00462963  13 t-inv F
 -0.166667 -0.166667  0.500000    0.00462963  13 t-inv F
 -0.166667  0.500000 -0.166667    0.00462963  13 t-inv F
 -0.500000  0.166667 -0.166667    0.00462963  13 t-inv F
 -0.166667  0.166667 -0.500000    0.00462963  13 t-inv F
  0.166667  0.333333  0.333333    0.00462963  14 t-inv F
  0.333333  0.166667  0.333333    0.00462963  14 t-inv F
  0.333333 -0.333333 -0.166667    0.00462963  14 t-inv F
  0.333333 -0.166667 -0.333333    0.00462963  14 t-inv F
  0.166667 -0.333333 -0.333333    0.00462963  14 t-inv F
 -0.333333 -0.333333  0.166667    0.00462963  14 t-inv F
 -0.166667 -0.333333  0.333333    0.00462963  14 t-inv F
 -0.333333 -0.166667  0.333333    0.00462963  14 t-inv F
 -0.333333  0.333333 -0.166667    0.00462963  14 t-inv F
 -0.333333  0.166667 -0.333333    0.00462963  14 t-inv F
 -0.166667  0.333333 -0.333333    0.00462963  14 t-inv F
 -0.333333 -0.333333 -0.166667    0.00462963  14 t-inv F
 -0.166667 -0.333333 -0.333333    0.00462963  14 t-inv F
 -0.333333 -0.166667 -0.333333    0.00462963  14 t-inv F
 -0.333333  0.333333  0.166667    0.00462963  14 t-inv F
 -0.333333  0.166667  0.333333    0.00462963  14 t-inv F
 -0.166667  0.333333  0.333333    0.00462963  14 t-inv F
  0.333333  0.333333 -0.166667    0.00462963  14 t-inv F
  0.166667  0.333333 -0.333333    0.00462963  14 t-inv F
  0.333333  0.166667 -0.333333    0.00462963  14 t-inv F
  0.333333 -0.333333  0.166667    0.00462963  14 t-inv F
  0.333333 -0.166667  0.333333    0.00462963  14 t-inv F
  0.166667 -0.333333  0.333333    0.00462963  14 t-inv F
  0.166667  0.500000  0.333333    0.00462963  15 t-inv F
  0.333333  0.166667  0.500000    0.00462963  15 t-inv F
  0.333333 -0.500000 -0.166667    0.00462963  15 t-inv F
  0.500000 -0.166667 -0.333333    0.00462963  15 t-inv F
  0.166667 -0.333333 -0.500000    0.00462963  15 t-inv F
 -0.500000 -0.333333  0.166667    0.00462963  15 t-inv F
 -0.166667 -0.500000  0.333333    0.00462963  15 t-inv F
 -0.333333 -0.166667  0.500000    0.00462963  15 t-inv F
 -0.333333  0.500000 -0.166667    0.00462963  15 t-inv F
 -0.500000  0.166667 -0.333333    0.00462963  15 t-inv F
 -0.166667  0.333333 -0.500000    0.00462963  15 t-inv F
  0.166667 -0.500000 -0.333333    0.00462963  15 t-inv F
  0.333333 -0.166667 -0.500000    0.00462963  15 t-inv F
  0.500000 -0.333333 -0.166667    0.00462963  15 t-inv F
 -0.166667 -0.333333  0.500000    0.00462963  15 t-inv F
 -0.333333 -0.500000  0.166667    0.00462963  15 t-inv F
 -0.500000 -0.166667  0.333333    0.00462963  15 t-inv F
 -0.333333  0.166667 -0.500000    0.00462963  15 t-inv F
 -0.500000  0.333333 -0.166667    0.00462963  15 t-inv F
 -0.166667  0.500000 -0.333333    0.00462963  15 t-inv F
  0.500000  0.166667  0.333333    0.00462963  15 t-inv F
  0.333333  0.500000  0.166667    0.00462963  15 t-inv F
  0.166667  0.333333  0.500000    0.00462963  15 t-inv F
  0.166667  0.500000  0.500000    0.00462963  16 t-inv F
  0.500000  0.166667  0.500000    0.00462963  16 t-inv F
  0.500000 -0.500000 -0.166667    0.00462963  16 t-inv F
  0.500000 -0.166667 -0.500000    0.00462963  16 t-inv F
 -0.166667 -0.500000  0.500000    0.00462963  16 t-inv F
  0.333333 -0.333333 -0.333333    0.00462963  17 t-inv F
 -0.333333 -0.333333  0.333333    0.00462963  17 t-inv F
 -0.333333  0.333333 -0.333333    0.00462963  17 t-inv F
 -0.333333 -0.333333 -0.333333    0.00462963  17 t-inv F
 -0.333333  0.333333  0.333333    0.00462963  17 t-inv F
  0.333333  0.333333 -0.333333    0.00462963  17 t-inv F
  0.333333 -0.333333  0.333333    0.00462963  17 t-inv F
  0.333333  0.500000  0.333333    0.00462963  18 t-inv F
  0.333333  0.333333  0.500000    0.00462963  18 t-inv F
  0.333333 -0.500000 -0.333333    0.00462963  18 t-inv F
  0.500000 -0.333333 -0.333333    0.00462963  18 t-inv F
  0.333333 -0.333333 -0.500000    0.00462963  18 t-inv F
 -0.500000 -0.333333  0.333333    0.00462963  18 t-inv F
 -0.333333 -0.500000  0.333333    0.00462963  18 t-inv F
 -0.333333 -0.333333  0.500000    0.00462963  18 t-inv F
 -0.333333  0.500000 -0.333333    0.00462963  18 t-inv F
 -0.500000  0.333333 -0.333333    0.00462963  18 t-inv F
 -0.333333  0.333333 -0.500000    0.00462963  18 t-inv F
  0.333333  0.500000  0.500000    0.00462963  19 t-inv F
  0.500000  0.333333  0.500000    0.00462963  19 t-inv F
  0.500000 -0.500000 -0.333333    0.00462963  19 t-inv F
  0.500000 -0.333333 -0.500000    0.00462963  19 t-inv F
 -0.333333 -0.500000  0.500000    0.00462963  19 t-inv F


--------------------------------------------------------------------------------------------------------




 Dimension of arrays:
   k-points           NKPTS =     20   k-points in BZ     NKDIM =     20   number of bands    NBANDS=    192
   number of dos      NEDOS =    301   number of ions     NIONS =     64
   non local maximal  LDIM  =      4   non local SUM 2l+1 LMDIM =      8
   total plane-waves  NPLWV = 125000
   max r-space proj   IRMAX =      1   max aug-charges    IRDMAX=  27831
   dimension x,y,z NGX =    50 NGY =   50 NGZ =   50
   dimension x,y,z NGXF=   100 NGYF=  100 NGZF=  100
   support grid    NGXF=   200 NGYF=  200 NGZF=  200
   ions per type =              64
   NGX,Y,Z   is equivalent  to a cutoff of  11.04, 11.04, 11.04 a.u.
   NGXF,Y,Z  is equivalent  to a cutoff of  22.08, 22.08, 22.08 a.u.

 SYSTEM =  unknown system                          
 POSCAR =  generated by phonopy                    

 Startparameter for this run:
   NWRITE =      2    write-flag & timer
   PREC   = accura    normal or accurate (medium, high low for compatibility)
   ISTART =      0    job   : 0-new  1-cont  2-samecut
   ICHARG =      2    charge: 1-file 2-atom 10-const
   ISPIN  =      1    spin polarized calculation?
   LNONCOLLINEAR =      F non collinear calculations
   LSORBIT =      F    spin-orbit coupling
   INIWAV =      1    electr: 0-lowe 1-rand  2-diag
   LASPH  =      F    aspherical Exc in radial PAW
   METAGGA=      F    non-selfconsistent MetaGGA calc.

 Electronic Relaxation 1
   ENCUT  =  400.0 eV  29.40 Ry    5.42 a.u.  12.28 12.28 12.28*2*pi/ulx,y,z
   ENINI  =  400.0     initial cutoff
   ENAUG  =  644.9 eV  augmentation charge cutoff
   NELM   =     60;   NELMIN=  2; NELMDL= -5     # of ELM steps 
   EDIFF  = 0.1E-07   stopping-criterion for ELM
   LREAL  =      F    real-space projection
   NLSPLINE    = F    spline interpolate recip. space projectors
   LCOMPAT=      F    compatible to vasp.4.4
   GGA_COMPAT  = T    GGA compatible to vasp.4.4-vasp.4.6
   LMAXPAW     = -100 max onsite density
   LMAXMIX     =    2 max onsite mixed and CHGCAR
   VOSKOWN=      0    Vosko Wilk Nusair interpolation
   ROPT   =    0.00000
 Ionic relaxation
   EDIFFG = 0.1E-06   stopping-criterion for IOM
   NSW    =      1    number of steps for IOM
   NBLOCK =      1;   KBLOCK =      1    inner block; outer block 
   IBRION =      8    ionic relax: 0-MD 1-quasi-New 2-CG
   NFREE  =      0    steps in history (QN), initial steepest desc. (CG)
   ISIF   =      2    stress and relaxation
   IWAVPR =     11    prediction:  0-non 1-charg 2-wave 3-comb
   ISYM   =      2    0-nonsym 1-usesym 2-fastsym
   LCORR  =      T    Harris-Foulkes like correction to forces

   POTIM  = 0.5000    time-step for ionic-motion
   TEIN   =    0.0    initial temperature
   TEBEG  =    0.0;   TEEND  =   0.0 temperature during run
   SMASS  =  -3.00    Nose mass-parameter (am)
   estimated Nose-frequenzy (Omega)   =  0.10E-29 period in steps =****** mass=  -0.130E-26a.u.
   SCALEE = 1.0000    scale energy and forces
   NPACO  =    256;   APACO  = 16.0  distance and # of slots for P.C.
   PSTRESS=    0.0 pullay stress

  Mass of Ions in am
   POMASS =  12.01
  Ionic Valenz
   ZVAL   =   4.00
  Atomic Wigner-Seitz radii
   RWIGS  =  -1.00
  virtual crystal weights 
   VCA    =   1.00
   NELECT =     256.0000    total number of electrons
   NUPDOWN=      -1.0000    fix difference up-down

 DOS related values:
   EMIN   =  10.00;   EMAX   =-10.00  energy-range for DOS
   EFERMI =   0.00
   ISMEAR =     0;   SIGMA  =   0.06  broadening in eV -4-tet -1-fermi 0-gaus

 Electronic relaxation 2 (details)
   IALGO  =     38    algorithm
   LDIAG  =      T    sub-space diagonalisation (order eigenvalues)
   LSUBROT=      F    optimize rotation matrix (better conditioning)
   TURBO    =      0    0=normal 1=particle mesh
   IRESTART =      0    0=no restart 2=restart with 2 vectors
   NREBOOT  =      0    no. of reboots
   NMIN     =      0    reboot dimension
   EREF     =   0.00    reference energy to select bands
   IMIX   =      4    mixing-type and parameters
     AMIX     =   0.40;   BMIX     =  1.00
     AMIX_MAG =   1.60;   BMIX_MAG =  1.00
     AMIN     =   0.10
     WC   =   100.;   INIMIX=   1;  MIXPRE=   1;  MAXMIX= -45

 Intra band minimization:
   WEIMIN = 0.0010     energy-eigenvalue tresh-hold
   EBREAK =  0.13E-10  absolut break condition
   DEPER  =   0.30     relativ break condition  

   TIME   =   0.40     timestep for ELM

  volume/ion in A,a.u.               =       6.67        45.03
  Fermi-wavevector in a.u.,A,eV,Ry     =   1.380387  2.608552 25.925455  1.905467
  Thomas-Fermi vector in A             =   2.505268
 
 Write flags
   LWAVE        =      F    write WAVECAR
   LDOWNSAMPLE  =      F    k-point downsampling of WAVECAR
   LCHARG       =      F    write CHGCAR
   LVTOT        =      F    write LOCPOT, total local potential
   LVHAR        =      F    write LOCPOT, Hartree potential only
   LELF         =      F    write electronic localiz. function (ELF)
   LORBIT       =      0    0 simple, 1 ext, 2 COOP (PROOUT), +10 PAW based schemes


 Dipole corrections
   LMONO  =      F    monopole corrections only (constant potential shift)
   LDIPOL =      F    correct potential (dipole corrections)
   IDIPOL =      0    1-x, 2-y, 3-z, 4-all directions 
   EPSILON=  1.0000000 bulk dielectric constant

 Exchange correlation treatment:
   GGA     =    --    GGA type
   LEXCH   =     8    internal setting for exchange type
   VOSKOWN=      0    Vosko Wilk Nusair interpolation
   LHFCALC =     F    Hartree Fock is set to
   LHFONE  =     F    Hartree Fock one center treatment
   AEXX    =    0.0000 exact exchange contribution

 Linear response parameters
   LEPSILON=     F    determine dielectric tensor
   LRPA    =     F    only Hartree local field effects (RPA)
   LNABLA  =     F    use nabla operator in PAW spheres
   LVEL    =     F    velocity operator in full k-point grid
   LINTERFAST=   F  fast interpolation
   KINTER  =     0    interpolate to denser k-point grid
   CSHIFT  =0.1000    complex shift for real part using Kramers Kronig
   OMEGAMAX=  -1.0    maximum frequency
   DEG_THRESHOLD= 0.2000000E-02 threshold for treating states as degnerate
   RTIME   =   -0.100 relaxation time in fs
  (WPLASMAI=    0.000 imaginary part of plasma frequency in eV, 0.658/RTIME)
   DFIELD  = 0.0000000 0.0000000 0.0000000 field for delta impulse in time
 
 Orbital magnetization related:
   ORBITALMAG=     F  switch on orbital magnetization
   LCHIMAG   =     F  perturbation theory with respect to B field
   DQ        =  0.001000  dq finite difference perturbation B field
   LLRAUG    =     F  two centre corrections for induced B field



--------------------------------------------------------------------------------------------------------


 linear response using symmetry
 charge density and potential will be updated during run
 non-spin polarized calculation
 Variant of blocked Davidson
 Davidson routine will perform the subspace rotation
 perform sub-space diagonalisation
    after iterative eigenvector-optimisation
 modified Broyden-mixing scheme, WC =      100.0
 initial mixing is a Kerker type mixing with AMIX =  0.4000 and BMIX =      1.0000
 Hartree-type preconditioning will be used
 using additional bands           64
 reciprocal scheme for non local part
 calculate Harris-corrections to forces 
   (improved forces if not selfconsistent)
 use gradient corrections 
 use of overlap-Matrix (Vanderbilt PP)
 Gauss-broadening in eV      SIGMA  =   0.06


--------------------------------------------------------------------------------------------------------


  energy-cutoff  :      400.00
  volume of cell :      427.03
      direct lattice vectors                 reciprocal lattice vectors
     7.530446851  0.000000000  0.000000000     0.132794244  0.000000000  0.000000000
     0.000000000  7.530446851  0.000000000     0.000000000  0.132794244  0.000000000
     0.000000000  0.000000000  7.530446851     0.000000000  0.000000000  0.132794244

  length of vectors
     7.530446851  7.530446851  7.530446851     0.132794244  0.132794244  0.132794244


 
 k-points in units of 2pi/SCALE and weight: kpt_density=3000                        
   0.00000000  0.00000000  0.00000000       0.005
   0.02213237  0.00000000  0.00000000       0.028
   0.04426475  0.00000000  0.00000000       0.028
   0.06639712  0.00000000  0.00000000       0.014
   0.02213237  0.02213237  0.00000000       0.056
   0.04426475  0.02213237  0.00000000       0.111
   0.06639712  0.02213237  0.00000000       0.056
   0.04426475  0.04426475  0.00000000       0.056
   0.06639712  0.04426475  0.00000000       0.056
   0.06639712  0.06639712  0.00000000       0.014
   0.02213237  0.02213237  0.02213237       0.037
   0.04426475  0.02213237  0.02213237       0.111
   0.06639712  0.02213237  0.02213237       0.056
   0.04426475  0.04426475  0.02213237       0.111
   0.06639712  0.04426475  0.02213237       0.111
   0.06639712  0.06639712  0.02213237       0.028
   0.04426475  0.04426475  0.04426475       0.037
   0.06639712  0.04426475  0.04426475       0.056
   0.06639712  0.06639712  0.04426475       0.028
   0.06639712  0.06639712  0.06639712       0.005
 
 k-points in reciprocal lattice and weights: kpt_density=3000                        
   0.00000000  0.00000000  0.00000000       0.005
   0.16666667  0.00000000  0.00000000       0.028
   0.33333333  0.00000000  0.00000000       0.028
   0.50000000  0.00000000  0.00000000       0.014
   0.16666667  0.16666667  0.00000000       0.056
   0.33333333  0.16666667  0.00000000       0.111
   0.50000000  0.16666667  0.00000000       0.056
   0.33333333  0.33333333  0.00000000       0.056
   0.50000000  0.33333333  0.00000000       0.056
   0.50000000  0.50000000  0.00000000       0.014
   0.16666667  0.16666667  0.16666667       0.037
   0.33333333  0.16666667  0.16666667       0.111
   0.50000000  0.16666667  0.16666667       0.056
   0.33333333  0.33333333  0.16666667       0.111
   0.50000000  0.33333333  0.16666667       0.111
   0.50000000  0.50000000  0.16666667       0.028
   0.33333333  0.33333333  0.33333333       0.037
   0.50000000  0.33333333  0.33333333       0.056
   0.50000000  0.50000000  0.33333333       0.028
   0.50000000  0.50000000  0.50000000       0.005
 
 position of ions in fractional coordinates (direct lattice) 
   0.12500000  0.37500000  0.12500000
   0.62500000  0.37500000  0.12500000
   0.12500000  0.87500000  0.12500000
   0.62500000  0.87500000  0.12500000
   0.12500000  0.37500000  0.62500000
   0.62500000  0.37500000  0.62500000
   0.12500000  0.87500000  0.62500000
   0.62500000  0.87500000  0.62500000
   0.00000000  0.00000000  0.25000000
   0.50000000  0.00000000  0.25000000
   0.00000000  0.50000000  0.25000000
   0.50000000  0.50000000  0.25000000
   0.00000000  0.00000000  0.75000000
   0.50000000  0.00000000  0.75000000
   0.00000000  0.50000000  0.75000000
   0.50000000  0.50000000  0.75000000
   0.12500000  0.12500000  0.37500000
   0.62500000  0.12500000  0.37500000
   0.12500000  0.62500000  0.37500000
   0.62500000  0.62500000  0.37500000
   0.12500000  0.12500000  0.87500000
   0.62500000  0.12500000  0.87500000
   0.12500000  0.62500000  0.87500000
   0.62500000  0.62500000  0.87500000
   0.00000000  0.25000000  0.00000000
   0.50000000  0.25000000  0.00000000
   0.00000000  0.75000000  0.00000000
   0.50000000  0.75000000  0.00000000
   0.00000000  0.25000000  0.50000000
   0.50000000  0.25000000  0.50000000
   0.00000000  0.75000000  0.50000000
   0.50000000  0.75000000  0.50000000
   0.37500000  0.37500000  0.37500000
   0.87500000  0.37500000  0.37500000
   0.37500000  0.87500000  0.37500000
   0.87500000  0.87500000  0.37500000
   0.37500000  0.37500000  0.87500000
   0.87500000  0.37500000  0.87500000
   0.37500000  0.87500000  0.87500000
   0.87500000  0.87500000  0.87500000
   0.25000000  0.00000000  0.00000000
   0.75000000  0.00000000  0.00000000
   0.25000000  0.50000000  0.00000000
   0.75000000  0.50000000  0.00000000
   0.25000000  0.00000000  0.50000000
   0.75000000  0.00000000  0.50000000
   0.25000000  0.50000000  0.50000000
   0.75000000  0.50000000  0.50000000
   0.37500000  0.12500000  0.12500000
   0.87500000  0.12500000  0.12500000
   0.37500000  0.62500000  0.12500000
   0.87500000  0.62500000  0.12500000
   0.37500000  0.12500000  0.62500000
   0.87500000  0.12500000  0.62500000
   0.37500000  0.62500000  0.62500000
   0.87500000  0.62500000  0.62500000
   0.25000000  0.25000000  0.25000000
   0.75000000  0.25000000  0.25000000
   0.25000000  0.75000000  0.25000000
   0.75000000  0.75000000  0.25000000
   0.25000000  0.25000000  0.75000000
   0.75000000  0.25000000  0.75000000
   0.25000000  0.75000000  0.75000000
   0.75000000  0.75000000  0.75000000
 
 position of ions in cartesian coordinates  (Angst):
   0.94130586  2.82391757  0.94130586
   4.70652928  2.82391757  0.94130586
   0.94130586  6.58914099  0.94130586
   4.70652928  6.58914099  0.94130586
   0.94130586  2.82391757  4.70652928
   4.70652928  2.82391757  4.70652928
   0.94130586  6.58914099  4.70652928
   4.70652928  6.58914099  4.70652928
   0.00000000  0.00000000  1.88261171
   3.76522343  0.00000000  1.88261171
   0.00000000  3.76522343  1.88261171
   3.76522343  3.76522343  1.88261171
   0.00000000  0.00000000  5.64783514
   3.76522343  0.00000000  5.64783514
   0.00000000  3.76522343  5.64783514
   3.76522343  3.76522343  5.64783514
   0.94130586  0.94130586  2.82391757
   4.70652928  0.94130586  2.82391757
   0.94130586  4.70652928  2.82391757
   4.70652928  4.70652928  2.82391757
   0.94130586  0.94130586  6.58914099
   4.70652928  0.94130586  6.58914099
   0.94130586  4.70652928  6.58914099
   4.70652928  4.70652928  6.58914099
   0.00000000  1.88261171  0.00000000
   3.76522343  1.88261171  0.00000000
   0.00000000  5.64783514  0.00000000
   3.76522343  5.64783514  0.00000000
   0.00000000  1.88261171  3.76522343
   3.76522343  1.88261171  3.76522343
   0.00000000  5.64783514  3.76522343
   3.76522343  5.64783514  3.76522343
   2.82391757  2.82391757  2.82391757
   6.58914099  2.82391757  2.82391757
   2.82391757  6.58914099  2.82391757
   6.58914099  6.58914099  2.82391757
   2.82391757  2.82391757  6.58914099
   6.58914099  2.82391757  6.58914099
   2.82391757  6.58914099  6.58914099
   6.58914099  6.58914099  6.58914099
   1.88261171  0.00000000  0.00000000
   5.64783514  0.00000000  0.00000000
   1.88261171  3.76522343  0.00000000
   5.64783514  3.76522343  0.00000000
   1.88261171  0.00000000  3.76522343
   5.64783514  0.00000000  3.76522343
   1.88261171  3.76522343  3.76522343
   5.64783514  3.76522343  3.76522343
   2.82391757  0.94130586  0.94130586
   6.58914099  0.94130586  0.94130586
   2.82391757  4.70652928  0.94130586
   6.58914099  4.70652928  0.94130586
   2.82391757  0.94130586  4.70652928
   6.58914099  0.94130586  4.70652928
   2.82391757  4.70652928  4.70652928
   6.58914099  4.70652928  4.70652928
   1.88261171  1.88261171  1.88261171
   5.64783514  1.88261171  1.88261171
   1.88261171  5.64783514  1.88261171
   5.64783514  5.64783514  1.88261171
   1.88261171  1.88261171  5.64783514
   5.64783514  1.88261171  5.64783514
   1.88261171  5.64783514  5.64783514
   5.64783514  5.64783514  5.64783514
 


--------------------------------------------------------------------------------------------------------


 k-point  1 :   0.0000 0.0000 0.0000  plane waves:    7809
 k-point  2 :   0.1667 0.0000 0.0000  plane waves:    7777
 k-point  3 :   0.3333 0.0000 0.0000  plane waves:    7788
 k-point  4 :   0.5000 0.0000 0.0000  plane waves:    7752
 k-point  5 :   0.1667 0.1667 0.0000  plane waves:    7777
 k-point  6 :   0.3333 0.1667 0.0000  plane waves:    7743
 k-point  7 :   0.5000 0.1667 0.0000  plane waves:    7754
 k-point  8 :   0.3333 0.3333 0.0000  plane waves:    7730
 k-point  9 :   0.5000 0.3333 0.0000  plane waves:    7754
 k-point 10 :   0.5000 0.5000 0.0000  plane waves:    7788
 k-point 11 :   0.1667 0.1667 0.1667  plane waves:    7763
 k-point 12 :   0.3333 0.1667 0.1667  plane waves:    7732
 k-point 13 :   0.5000 0.1667 0.1667  plane waves:    7746
 k-point 14 :   0.3333 0.3333 0.1667  plane waves:    7762
 k-point 15 :   0.5000 0.3333 0.1667  plane waves:    7764
 k-point 16 :   0.5000 0.5000 0.1667  plane waves:    7772
 k-point 17 :   0.3333 0.3333 0.3333  plane waves:    7766
 k-point 18 :   0.5000 0.3333 0.3333  plane waves:    7758
 k-point 19 :   0.5000 0.5000 0.3333  plane waves:    7756
 k-point 20 :   0.5000 0.5000 0.5000  plane waves:    7784

 maximum and minimum number of plane-waves per node :      7809     7730

 maximum number of plane-waves:      7809
 maximum index in each direction: 
   IXMAX=   12   IYMAX=   12   IZMAX=   12
   IXMIN=  -12   IYMIN=  -12   IZMIN=  -12


 serial   3D FFT for wavefunctions
 parallel 3D FFT for charge:
    minimum data exchange during FFTs selected (reduces bandwidth)


 total amount of memory used by VASP MPI-rank0    76886. kBytes
=======================================================================

   base      :      30000. kBytes
   nonl-proj :      18063. kBytes
   fftplans  :       5607. kBytes
   grid      :       6985. kBytes
   one-center:        196. kBytes
   wavefun   :      16035. kBytes
 
     INWAV:  cpu time    0.0003: real time    0.0005
 Broyden mixing: mesh for mixing (old mesh)
   NGX = 25   NGY = 25   NGZ = 25
  (NGX  =100   NGY  =100   NGZ  =100)
  gives a total of  15625 points

 initial charge density was supplied:
 charge density of overlapping atoms calculated
 number of electron     256.0000000 magnetization 
 keeping initial charge density in first step


--------------------------------------------------------------------------------------------------------


 Maximum index for augmentation-charges         1962 (set IRDMAX)


--------------------------------------------------------------------------------------------------------


 First call to EWALD:  gamma=   0.235
 Maximum number of real-space cells 3x 3x 3
 Maximum number of reciprocal cells 3x 3x 3

    FEWALD:  cpu time    0.0086: real time    0.0086


--------------------------------------- Iteration      1(   1)  ---------------------------------------


    POTLOK:  cpu time    0.0827: real time    0.1510
    SETDIJ:  cpu time    0.0474: real time    0.0476
     EDDAV:  cpu time   15.7411: real time   15.7562
       DOS:  cpu time    0.0055: real time    0.0055
    --------------------------------------------
      LOOP:  cpu time   15.8768: real time   15.9603

 eigenvalue-minimisations  :  7680
 total energy-change (2. order) : 0.4950558E+03  (-0.1108251E+05)
 number of electron     256.0000000 magnetization 
 augmentation part      256.0000000 magnetization 

 Free energy of the ion-electron system (eV)
  ---------------------------------------------------
  alpha Z        PSCENC =       781.53710078
  Ewald energy   TEWEN  =    -10547.90119799
  -Hartree energ DENC   =      -683.74830912
  -exchange      EXHF   =         0.00000000
  -V(xc)+E(xc)   XCENC  =       883.78790939
  PAW double counting   =      2421.21235816    -2494.84305711
  entropy T*S    EENTRO =        -0.01717415
  eigenvalues    EBANDS =       718.88587901
  atomic energy  EATOM  =      9416.14232778
  Solvation  Ediel_sol  =         0.00000000
  ---------------------------------------------------
  free energy    TOTEN  =       495.05583674 eV

  energy without entropy =      495.07301090  energy(sigma->0) =      495.06442382


--------------------------------------------------------------------------------------------------------




--------------------------------------- Iteration      1(   2)  ---------------------------------------


     EDDAV:  cpu time   18.4917: real time   18.4936
       DOS:  cpu time    0.0032: real time    0.0032
    --------------------------------------------
      LOOP:  cpu time   18.4949: real time   18.4968

 eigenvalue-minimisations  : 10272
 total energy-change (2. order) :-0.1032136E+04  (-0.9806298E+03)
 number of electron     256.0000000 magnetization 
 augmentation part      256.0000000 magnetization 

 Free energy of the ion-electron system (eV)
  ---------------------------------------------------
  alpha Z        PSCENC =       781.53710078
  Ewald energy   TEWEN  =    -10547.90119799
  -Hartree energ DENC   =      -683.74830912
  -exchange      EXHF   =         0.00000000
  -V(xc)+E(xc)   XCENC  =       883.78790939
  PAW double counting   =      2421.21235816    -2494.84305711
  entropy T*S    EENTRO =        -0.00000000
  eigenvalues    EBANDS =      -313.26683214
  atomic energy  EATOM  =      9416.14232778
  Solvation  Ediel_sol  =         0.00000000
  ---------------------------------------------------
  free energy    TOTEN  =      -537.07970025 eV

  energy without entropy =     -537.07970025  energy(sigma->0) =     -537.07970025


--------------------------------------------------------------------------------------------------------




--------------------------------------- Iteration      1(   3)  ---------------------------------------


     EDDAV:  cpu time   19.0779: real time   19.0799
       DOS:  cpu time    0.0061: real time    0.0061
    --------------------------------------------
      LOOP:  cpu time   19.0840: real time   19.0860

 eigenvalue-minimisations  : 10240
 total energy-change (2. order) :-0.4480756E+02  (-0.4449088E+02)
 number of electron     256.0000000 magnetization 
 augmentation part      256.0000000 magnetization 

 Free energy of the ion-electron system (eV)
  ---------------------------------------------------
  alpha Z        PSCENC =       781.53710078
  Ewald energy   TEWEN  =    -10547.90119799
  -Hartree energ DENC   =      -683.74830912
  -exchange      EXHF   =         0.00000000
  -V(xc)+E(xc)   XCENC  =       883.78790939
  PAW double counting   =      2421.21235816    -2494.84305711
  entropy T*S    EENTRO =        -0.00000000
  eigenvalues    EBANDS =      -358.07439310
  atomic energy  EATOM  =      9416.14232778
  Solvation  Ediel_sol  =         0.00000000
  ---------------------------------------------------
  free energy    TOTEN  =      -581.88726121 eV

  energy without entropy =     -581.88726121  energy(sigma->0) =     -581.88726121


--------------------------------------------------------------------------------------------------------




--------------------------------------- Iteration      1(   4)  ---------------------------------------


     EDDAV:  cpu time   19.0136: real time   19.0156
       DOS:  cpu time    0.0029: real time    0.0029
    --------------------------------------------
      LOOP:  cpu time   19.0166: real time   19.0185

 eigenvalue-minimisations  : 10560
 total energy-change (2. order) :-0.6261383E+00  (-0.6250579E+00)
 number of electron     256.0000000 magnetization 
 augmentation part      256.0000000 magnetization 

 Free energy of the ion-electron system (eV)
  ---------------------------------------------------
  alpha Z        PSCENC =       781.53710078
  Ewald energy   TEWEN  =    -10547.90119799
  -Hartree energ DENC   =      -683.74830912
  -exchange      EXHF   =         0.00000000
  -V(xc)+E(xc)   XCENC  =       883.78790939
  PAW double counting   =      2421.21235816    -2494.84305711
  entropy T*S    EENTRO =        -0.00000000
  eigenvalues    EBANDS =      -358.70053139
  atomic energy  EATOM  =      9416.14232778
  Solvation  Ediel_sol  =         0.00000000
  ---------------------------------------------------
  free energy    TOTEN  =      -582.51339950 eV

  energy without entropy =     -582.51339950  energy(sigma->0) =     -582.51339950


--------------------------------------------------------------------------------------------------------




--------------------------------------- Iteration      1(   5)  ---------------------------------------


     EDDAV:  cpu time   19.3029: real time   19.3049
       DOS:  cpu time    0.0027: real time    0.0027
    CHARGE:  cpu time    0.5881: real time    0.5881
    MIXING:  cpu time    0.0044: real time    0.0044
    --------------------------------------------
      LOOP:  cpu time   19.8982: real time   19.9002

 eigenvalue-minimisations  :  9568
 total energy-change (2. order) :-0.1086486E-01  (-0.1086126E-01)
 number of electron     256.0000000 magnetization 
 augmentation part        5.2916486 magnetization 

 Broyden mixing:
  rms(total) = 0.22045E+01    rms(broyden)= 0.22042E+01
  rms(prec ) = 0.31396E+01
  weight for this iteration     100.00

 Free energy of the ion-electron system (eV)
  ---------------------------------------------------
  alpha Z        PSCENC =       781.53710078
  Ewald energy   TEWEN  =    -10547.90119799
  -Hartree energ DENC   =      -683.74830912
  -exchange      EXHF   =         0.00000000
  -V(xc)+E(xc)   XCENC  =       883.78790939
  PAW double counting   =      2421.21235816    -2494.84305711
  entropy T*S    EENTRO =        -0.00000000
  eigenvalues    EBANDS =      -358.71139625
  atomic energy  EATOM  =      9416.14232778
  Solvation  Ediel_sol  =         0.00000000
  ---------------------------------------------------
  free energy    TOTEN  =      -582.52426436 eV

  energy without entropy =     -582.52426436  energy(sigma->0) =     -582.52426436


--------------------------------------------------------------------------------------------------------




--------------------------------------- Iteration      1(   6)  ---------------------------------------


    POTLOK:  cpu time    0.0730: real time    0.0735
    SETDIJ:  cpu time    0.0451: real time    0.0451
     EDDAV:  cpu time   16.6489: real time   16.6504
       DOS:  cpu time    0.0028: real time    0.0028
    CHARGE:  cpu time    0.5872: real time    0.5872
    MIXING:  cpu time    0.0078: real time    0.0078
    --------------------------------------------
      LOOP:  cpu time   17.3649: real time   17.3669

 eigenvalue-minimisations  :  9088
 total energy-change (2. order) : 0.8703698E+01  (-0.5997645E+00)
 number of electron     256.0000000 magnetization 
 augmentation part        5.1880678 magnetization 

 Broyden mixing:
  rms(total) = 0.12465E+01    rms(broyden)= 0.12465E+01
  rms(prec ) = 0.17532E+01
  weight for this iteration     100.00

 eigenvalues of (default mixing * dielectric matrix)
  average eigenvalue GAMMA=   2.2414
  2.2414

 Free energy of the ion-electron system (eV)
  ---------------------------------------------------
  alpha Z        PSCENC =       781.53710078
  Ewald energy   TEWEN  =    -10547.90119799
  -Hartree energ DENC   =      -785.97897839
  -exchange      EXHF   =         0.00000000
  -V(xc)+E(xc)   XCENC  =       893.17967480
  PAW double counting   =      2931.19795494    -3007.61380255
  entropy T*S    EENTRO =        -0.00000000
  eigenvalues    EBANDS =      -254.38364561
  atomic energy  EATOM  =      9416.14232778
  Solvation  Ediel_sol  =         0.00000000
  ---------------------------------------------------
  free energy    TOTEN  =      -573.82056623 eV

  energy without entropy =     -573.82056623  energy(sigma->0) =     -573.82056623


--------------------------------------------------------------------------------------------------------




--------------------------------------- Iteration      1(   7)  ---------------------------------------


    POTLOK:  cpu time    0.0742: real time    0.0745
    SETDIJ:  cpu time    0.0452: real time    0.0452
     EDDAV:  cpu time   17.6337: real time   17.6351
       DOS:  cpu time    0.0055: real time    0.0055
    CHARGE:  cpu time    0.6015: real time    0.6016
    MIXING:  cpu time    0.0073: real time    0.0073
    --------------------------------------------
      LOOP:  cpu time   18.3673: real time   18.3692

 eigenvalue-minimisations  :  9248
 total energy-change (2. order) : 0.2948204E+01  (-0.7256834E+00)
 number of electron     256.0000000 magnetization 
 augmentation part        5.0800170 magnetization 

 Broyden mixing:
  rms(total) = 0.17795E+00    rms(broyden)= 0.17780E+00
  rms(prec ) = 0.21844E+00
  weight for this iteration     100.00

 eigenvalues of (default mixing * dielectric matrix)
  average eigenvalue GAMMA=   2.2650
  2.0010  2.5289

 Free energy of the ion-electron system (eV)
  ---------------------------------------------------
  alpha Z        PSCENC =       781.53710078
  Ewald energy   TEWEN  =    -10547.90119799
  -Hartree energ DENC   =      -919.19632164
  -exchange      EXHF   =         0.00000000
  -V(xc)+E(xc)   XCENC  =       905.65998868
  PAW double counting   =      3613.94691077    -3692.97676595
  entropy T*S    EENTRO =        -0.00000000
  eigenvalues    EBANDS =      -128.08440464
  atomic energy  EATOM  =      9416.14232778
  Solvation  Ediel_sol  =         0.00000000
  ---------------------------------------------------
  free energy    TOTEN  =      -570.87236220 eV

  energy without entropy =     -570.87236220  energy(sigma->0) =     -570.87236220


--------------------------------------------------------------------------------------------------------




--------------------------------------- Iteration      1(   8)  ---------------------------------------


    POTLOK:  cpu time    0.1108: real time    0.1112
    SETDIJ:  cpu time    0.0502: real time    0.0502
     EDDAV:  cpu time   17.6298: real time   17.6313
       DOS:  cpu time    0.0031: real time    0.0031
    CHARGE:  cpu time    0.5965: real time    0.5965
    MIXING:  cpu time    0.0051: real time    0.0051
    --------------------------------------------
      LOOP:  cpu time   18.3954: real time   18.3973

 eigenvalue-minimisations  :  9728
 total energy-change (2. order) :-0.4323109E-01  (-0.1742419E-01)
 number of electron     256.0000000 magnetization 
 augmentation part        5.0914364 magnetization 

 Broyden mixing:
  rms(total) = 0.19327E-01    rms(broyden)= 0.19294E-01
  rms(prec ) = 0.23775E-01
  weight for this iteration     100.00

 eigenvalues of (default mixing * dielectric matrix)
  average eigenvalue GAMMA=   2.1077
  1.4524  2.6842  2.1866

 Free energy of the ion-electron system (eV)
  ---------------------------------------------------
  alpha Z        PSCENC =       781.53710078
  Ewald energy   TEWEN  =    -10547.90119799
  -Hartree energ DENC   =      -920.43367160
  -exchange      EXHF   =         0.00000000
  -V(xc)+E(xc)   XCENC  =       905.77976140
  PAW double counting   =      3631.21649419    -3709.32123246
  entropy T*S    EENTRO =        -0.00000000
  eigenvalues    EBANDS =      -127.93517539
  atomic energy  EATOM  =      9416.14232778
  Solvation  Ediel_sol  =         0.00000000
  ---------------------------------------------------
  free energy    TOTEN  =      -570.91559329 eV

  energy without entropy =     -570.91559329  energy(sigma->0) =     -570.91559329


--------------------------------------------------------------------------------------------------------




--------------------------------------- Iteration      1(   9)  ---------------------------------------


    POTLOK:  cpu time    0.0739: real time    0.0742
    SETDIJ:  cpu time    0.0476: real time    0.0476
     EDDAV:  cpu time   18.3199: real time   18.3216
       DOS:  cpu time    0.0034: real time    0.0034
    CHARGE:  cpu time    0.5892: real time    0.5892
    MIXING:  cpu time    0.0055: real time    0.0055
    --------------------------------------------
      LOOP:  cpu time   19.0395: real time   19.0415

 eigenvalue-minimisations  : 10112
 total energy-change (2. order) :-0.2277620E-02  (-0.3743552E-03)
 number of electron     256.0000000 magnetization 
 augmentation part        5.0904348 magnetization 

 Broyden mixing:
  rms(total) = 0.72465E-02    rms(broyden)= 0.72447E-02
  rms(prec ) = 0.93872E-02
  weight for this iteration     100.00

 eigenvalues of (default mixing * dielectric matrix)
  average eigenvalue GAMMA=   2.0582
  0.9644  2.7920  2.5036  1.9727

 Free energy of the ion-electron system (eV)
  ---------------------------------------------------
  alpha Z        PSCENC =       781.53710078
  Ewald energy   TEWEN  =    -10547.90119799
  -Hartree energ DENC   =      -919.96169783
  -exchange      EXHF   =         0.00000000
  -V(xc)+E(xc)   XCENC  =       905.73314058
  PAW double counting   =      3625.64914975    -3703.66495005
  entropy T*S    EENTRO =        -0.00000000
  eigenvalues    EBANDS =      -128.45174395
  atomic energy  EATOM  =      9416.14232778
  Solvation  Ediel_sol  =         0.00000000
  ---------------------------------------------------
  free energy    TOTEN  =      -570.91787091 eV

  energy without entropy =     -570.91787091  energy(sigma->0) =     -570.91787091


--------------------------------------------------------------------------------------------------------




--------------------------------------- Iteration      1(  10)  ---------------------------------------


    POTLOK:  cpu time    0.0736: real time    0.0740
    SETDIJ:  cpu time    0.0452: real time    0.0452
     EDDAV:  cpu time   17.4607: real time   17.4622
       DOS:  cpu time    0.0034: real time    0.0034
    CHARGE:  cpu time    0.5879: real time    0.5879
    MIXING:  cpu time    0.0052: real time    0.0052
    --------------------------------------------
      LOOP:  cpu time   18.1760: real time   18.1780

 eigenvalue-minimisations  :  9536
 total energy-change (2. order) :-0.4663146E-03  (-0.4912825E-04)
 number of electron     256.0000000 magnetization 
 augmentation part        5.0901165 magnetization 

 Broyden mixing:
  rms(total) = 0.75014E-03    rms(broyden)= 0.74762E-03
  rms(prec ) = 0.11132E-02
  weight for this iteration     100.00

 eigenvalues of (default mixing * dielectric matrix)
  average eigenvalue GAMMA=   1.9795
  2.9943  2.5572  2.0773  0.9717  1.2970

 Free energy of the ion-electron system (eV)
  ---------------------------------------------------
  alpha Z        PSCENC =       781.53710078
  Ewald energy   TEWEN  =    -10547.90119799
  -Hartree energ DENC   =      -920.41317848
  -exchange      EXHF   =         0.00000000
  -V(xc)+E(xc)   XCENC  =       905.77364627
  PAW double counting   =      3623.22435813    -3701.25897202
  entropy T*S    EENTRO =        -0.00000000
  eigenvalues    EBANDS =      -128.02242169
  atomic energy  EATOM  =      9416.14232778
  Solvation  Ediel_sol  =         0.00000000
  ---------------------------------------------------
  free energy    TOTEN  =      -570.91833723 eV

  energy without entropy =     -570.91833723  energy(sigma->0) =     -570.91833723


--------------------------------------------------------------------------------------------------------




--------------------------------------- Iteration      1(  11)  ---------------------------------------


    POTLOK:  cpu time    0.0892: real time    0.0922
    SETDIJ:  cpu time    0.0444: real time    0.0444
     EDDAV:  cpu time   18.4411: real time   18.4428
       DOS:  cpu time    0.0028: real time    0.0028
    CHARGE:  cpu time    0.6003: real time    0.6004
    MIXING:  cpu time    0.0054: real time    0.0054
    --------------------------------------------
      LOOP:  cpu time   19.1832: real time   19.1879

 eigenvalue-minimisations  : 10208
 total energy-change (2. order) :-0.1068327E-05  (-0.1149647E-05)
 number of electron     256.0000000 magnetization 
 augmentation part        5.0899045 magnetization 

 Broyden mixing:
  rms(total) = 0.19186E-03    rms(broyden)= 0.18879E-03
  rms(prec ) = 0.25446E-03
  weight for this iteration     100.00

 eigenvalues of (default mixing * dielectric matrix)
  average eigenvalue GAMMA=   2.0084
  3.0165  2.6023  2.4110  2.0213  0.9996  0.9996

 Free energy of the ion-electron system (eV)
  ---------------------------------------------------
  alpha Z        PSCENC =       781.53710078
  Ewald energy   TEWEN  =    -10547.90119799
  -Hartree energ DENC   =      -920.53143070
  -exchange      EXHF   =         0.00000000
  -V(xc)+E(xc)   XCENC  =       905.78481467
  PAW double counting   =      3623.67690674    -3701.71587220
  entropy T*S    EENTRO =        -0.00000000
  eigenvalues    EBANDS =      -127.91098738
  atomic energy  EATOM  =      9416.14232778
  Solvation  Ediel_sol  =         0.00000000
  ---------------------------------------------------
  free energy    TOTEN  =      -570.91833830 eV

  energy without entropy =     -570.91833830  energy(sigma->0) =     -570.91833830


--------------------------------------------------------------------------------------------------------




--------------------------------------- Iteration      1(  12)  ---------------------------------------


    POTLOK:  cpu time    0.0792: real time    0.0795
    SETDIJ:  cpu time    0.0452: real time    0.0452
     EDDAV:  cpu time   17.9179: real time   17.9195
       DOS:  cpu time    0.0028: real time    0.0028
    CHARGE:  cpu time    0.5851: real time    0.5851
    MIXING:  cpu time    0.0053: real time    0.0053
    --------------------------------------------
      LOOP:  cpu time   18.6357: real time   18.6375

 eigenvalue-minimisations  :  9792
 total energy-change (2. order) :-0.8524021E-06  (-0.7220699E-07)
 number of electron     256.0000000 magnetization 
 augmentation part        5.0899306 magnetization 

 Broyden mixing:
  rms(total) = 0.36186E-04    rms(broyden)= 0.23258E-04
  rms(prec ) = 0.30781E-04
  weight for this iteration     100.00
  WARNING: grid for Broyden might be to small

 eigenvalues of (default mixing * dielectric matrix)
  average eigenvalue GAMMA=   1.8892
  2.9742  2.6600  2.5068  2.0279  0.9687  1.0434  1.0434

 Free energy of the ion-electron system (eV)
  ---------------------------------------------------
  alpha Z        PSCENC =       781.53710078
  Ewald energy   TEWEN  =    -10547.90119799
  -Hartree energ DENC   =      -920.51237165
  -exchange      EXHF   =         0.00000000
  -V(xc)+E(xc)   XCENC  =       905.78305309
  PAW double counting   =      3623.72253637    -3701.75927036
  entropy T*S    EENTRO =        -0.00000000
  eigenvalues    EBANDS =      -127.93051718
  atomic energy  EATOM  =      9416.14232778
  Solvation  Ediel_sol  =         0.00000000
  ---------------------------------------------------
  free energy    TOTEN  =      -570.91833915 eV

  energy without entropy =     -570.91833915  energy(sigma->0) =     -570.91833915


--------------------------------------------------------------------------------------------------------




--------------------------------------- Iteration      1(  13)  ---------------------------------------


    POTLOK:  cpu time    0.0741: real time    0.0745
    SETDIJ:  cpu time    0.0448: real time    0.0448
     EDDAV:  cpu time   16.8727: real time   16.8741
       DOS:  cpu time    0.0042: real time    0.0042
    CHARGE:  cpu time    0.5893: real time    0.5894
    MIXING:  cpu time    0.0071: real time    0.0071
    --------------------------------------------
      LOOP:  cpu time   17.5921: real time   17.5940

 eigenvalue-minimisations  :  8064
 total energy-change (2. order) :-0.8735515E-07  (-0.1709913E-08)
 number of electron     256.0000000 magnetization 
 augmentation part        5.0899239 magnetization 

 Broyden mixing:
  rms(total) = 0.27982E-04    rms(broyden)= 0.44590E-05
  rms(prec ) = 0.56207E-05
  weight for this iteration     100.00
  WARNING: grid for Broyden might be to small

 eigenvalues of (default mixing * dielectric matrix)
  average eigenvalue GAMMA=   2.0185
  2.0296  2.9620  2.9620  2.6735  2.5125  1.0188  1.0188  0.9706

 Free energy of the ion-electron system (eV)
  ---------------------------------------------------
  alpha Z        PSCENC =       781.53710078
  Ewald energy   TEWEN  =    -10547.90119799
  -Hartree energ DENC   =      -920.51437192
  -exchange      EXHF   =         0.00000000
  -V(xc)+E(xc)   XCENC  =       905.78324408
  PAW double counting   =      3623.73263435    -3701.76949428
  entropy T*S    EENTRO =        -0.00000000
  eigenvalues    EBANDS =      -127.92858203
  atomic energy  EATOM  =      9416.14232778
  Solvation  Ediel_sol  =         0.00000000
  ---------------------------------------------------
  free energy    TOTEN  =      -570.91833924 eV

  energy without entropy =     -570.91833924  energy(sigma->0) =     -570.91833924


--------------------------------------------------------------------------------------------------------




--------------------------------------- Iteration      1(  14)  ---------------------------------------


    POTLOK:  cpu time    0.0838: real time    0.0842
    SETDIJ:  cpu time    0.0471: real time    0.0471
     EDDAV:  cpu time   14.1140: real time   14.1152
       DOS:  cpu time    0.0029: real time    0.0029
    --------------------------------------------
      LOOP:  cpu time   14.2481: real time   14.2496

 eigenvalue-minimisations  :  6848
 total energy-change (2. order) : 0.5726179E-08  (-0.2095042E-09)
 number of electron     256.0000000 magnetization 
 augmentation part        5.0899239 magnetization 

 Free energy of the ion-electron system (eV)
  ---------------------------------------------------
  alpha Z        PSCENC =       781.53710078
  Ewald energy   TEWEN  =    -10547.90119799
  -Hartree energ DENC   =      -920.51394745
  -exchange      EXHF   =         0.00000000
  -V(xc)+E(xc)   XCENC  =       905.78320364
  PAW double counting   =      3623.72606399    -3701.76292944
  entropy T*S    EENTRO =        -0.00000000
  eigenvalues    EBANDS =      -127.92896055
  atomic energy  EATOM  =      9416.14232778
  Solvation  Ediel_sol  =         0.00000000
  ---------------------------------------------------
  free energy    TOTEN  =      -570.91833923 eV

  energy without entropy =     -570.91833923  energy(sigma->0) =     -570.91833923


--------------------------------------------------------------------------------------------------------




 average (electrostatic) potential at core
  the test charge radii are     0.6991
  (the norm of the test charge is              1.0000)
       1 -47.6638       2 -47.6638       3 -47.6638       4 -47.6638       5 -47.6638
       6 -47.6638       7 -47.6638       8 -47.6638       9 -47.6639      10 -47.6639
      11 -47.6639      12 -47.6639      13 -47.6639      14 -47.6639      15 -47.6639
      16 -47.6639      17 -47.6638      18 -47.6638      19 -47.6638      20 -47.6638
      21 -47.6638      22 -47.6638      23 -47.6638      24 -47.6638      25 -47.6639
      26 -47.6639      27 -47.6639      28 -47.6639      29 -47.6639      30 -47.6639
      31 -47.6639      32 -47.6639      33 -47.6638      34 -47.6638      35 -47.6638
      36 -47.6638      37 -47.6638      38 -47.6638      39 -47.6638      40 -47.6638
      41 -47.6639      42 -47.6639      43 -47.6639      44 -47.6639      45 -47.6639
      46 -47.6639      47 -47.6639      48 -47.6639      49 -47.6638      50 -47.6638
      51 -47.6638      52 -47.6638      53 -47.6638      54 -47.6638      55 -47.6638
      56 -47.6638      57 -47.6639      58 -47.6639      59 -47.6639      60 -47.6639
      61 -47.6639      62 -47.6639      63 -47.6639      64 -47.6639
 
 
 
 E-fermi :   7.8460     XC(G=0): -12.4252     alpha+bet :-15.0455


 k-point     1 :       0.0000    0.0000    0.0000
  band No.  band energies     occupation 
      1     -11.8777      2.00000
      2      -9.8444      2.00000
      3      -9.8444      2.00000
      4      -9.8444      2.00000
      5      -9.8444      2.00000
      6      -9.8444      2.00000
      7      -9.8444      2.00000
      8      -7.9359      2.00000
      9      -7.9359      2.00000
     10      -7.9359      2.00000
     11      -7.9359      2.00000
     12      -7.9359      2.00000
     13      -7.9359      2.00000
     14      -7.9359      2.00000
     15      -7.9359      2.00000
     16      -7.9359      2.00000
     17      -7.9359      2.00000
     18      -7.9359      2.00000
     19      -7.9359      2.00000
     20      -6.9750      2.00000
     21      -6.9750      2.00000
     22      -6.9750      2.00000
     23      -6.9750      2.00000
     24      -4.1655      2.00000
     25      -4.1655      2.00000
     26      -4.1655      2.00000
     27      -4.1655      2.00000
     28      -4.1629      2.00000
     29      -4.1629      2.00000
     30      -4.1629      2.00000
     31      -4.1629      2.00000
     32      -4.1629      2.00000
     33      -4.1629      2.00000
     34      -3.6035      2.00000
     35      -3.6035      2.00000
     36      -3.6035      2.00000
     37      -3.6035      2.00000
     38      -3.6035      2.00000
     39      -3.6035      2.00000
     40      -3.6035      2.00000
     41      -3.6035      2.00000
     42      -3.6035      2.00000
     43      -3.6035      2.00000
     44      -3.6035      2.00000
     45      -3.6035      2.00000
     46      -0.4249      2.00000
     47      -0.4249      2.00000
     48      -0.4249      2.00000
     49      -0.4249      2.00000
     50      -0.4249      2.00000
     51      -0.4249      2.00000
     52      -0.4249      2.00000
     53      -0.4249      2.00000
     54      -0.4249      2.00000
     55      -0.4249      2.00000
     56      -0.4249      2.00000
     57      -0.4249      2.00000
     58       0.5260      2.00000
     59       0.5260      2.00000
     60       0.5260      2.00000
     61       0.5260      2.00000
     62       0.5260      2.00000
     63       0.5260      2.00000
     64       0.5260      2.00000
     65       0.5260      2.00000
     66       0.5260      2.00000
     67       0.5260      2.00000
     68       0.5260      2.00000
     69       0.5260      2.00000
     70       1.0035      2.00000
     71       1.0035      2.00000
     72       1.0035      2.00000
     73       1.0035      2.00000
     74       1.0035      2.00000
     75       1.0035      2.00000
     76       1.0035      2.00000
     77       1.0035      2.00000
     78       1.0035      2.00000
     79       1.0035      2.00000
     80       1.0035      2.00000
     81       1.0035      2.00000
     82       2.1718      2.00000
     83       2.1718      2.00000
     84       2.1718      2.00000
     85       2.1718      2.00000
     86       2.1718      2.00000
     87       2.1718      2.00000
     88       3.1831      2.00000
     89       3.1831      2.00000
     90       3.1831      2.00000
     91       3.1831      2.00000
     92       3.1831      2.00000
     93       3.1831      2.00000
     94       4.0582      2.00000
     95       4.0582      2.00000
     96       4.0582      2.00000
     97       4.0582      2.00000
     98       4.0582      2.00000
     99       4.0582      2.00000
    100       4.0582      2.00000
    101       4.0582      2.00000
    102       4.0582      2.00000
    103       4.0582      2.00000
    104       4.0582      2.00000
    105       4.0582      2.00000
    106       4.9726      2.00000
    107       4.9726      2.00000
    108       4.9726      2.00000
[...]
      4.706529  0.941306  6.589141     0.011789   -0.064819    0.021553  
      0.941306  4.706529  6.589141    -0.008750    0.209250   -0.021553  
      4.706529  4.706529  6.589141    -0.008750   -0.064819   -0.045485  
      0.000000  1.882612  0.000000     0.064595    0.110106    0.012639  
      3.765223  1.882612  0.000000     0.064595   -0.045497   -0.015767  
      0.000000  5.647835  0.000000     0.011828    0.110106    0.015767  
      3.765223  5.647835  0.000000     0.011828   -0.045497   -0.012639  
      0.000000  1.882612  3.765223    -0.011828    0.045497    0.012639  
      3.765223  1.882612  3.765223    -0.011828   -0.110106   -0.015767  
      0.000000  5.647835  3.765223    -0.064595    0.045497    0.015767  
      3.765223  5.647835  3.765223    -0.064595   -0.110106   -0.012639  
      2.823918  2.823918  2.823918     0.023604   -0.045230   -0.048051  
      6.589141  2.823918  2.823918     0.023604   -0.099201   -0.022578  
      2.823918  6.589141  2.823918    -0.026643   -0.045230    0.022578  
      6.589141  6.589141  2.823918    -0.026643   -0.099201    0.048051  
      2.823918  2.823918  6.589141     0.026643    0.099201   -0.048051  
      6.589141  2.823918  6.589141     0.026643    0.045230   -0.022578  
      2.823918  6.589141  6.589141    -0.023604    0.099201    0.022578  
      6.589141  6.589141  6.589141    -0.023604    0.045230    0.048051  
      1.882612  0.000000  0.000000     0.027748    0.148729    0.049592  
      5.647835  0.000000  0.000000     0.027748   -0.084120    0.046309  
      1.882612  3.765223  0.000000     0.048675    0.148729   -0.046309  
      5.647835  3.765223  0.000000     0.048675   -0.084120   -0.049592  
      1.882612  0.000000  3.765223    -0.048675    0.084120    0.049592  
      5.647835  0.000000  3.765223    -0.048675   -0.148729    0.046309  
      1.882612  3.765223  3.765223    -0.027748    0.084120   -0.046309  
      5.647835  3.765223  3.765223    -0.027748   -0.148729   -0.049592  
      2.823918  0.941306  0.941306     0.060074    0.001830    0.020783  
      6.589141  0.941306  0.941306     0.060074   -0.052141    0.046255  
      2.823918  4.706529  0.941306     0.039535    0.001830   -0.046255  
      6.589141  4.706529  0.941306     0.039535   -0.052141   -0.020783  
      2.823918  0.941306  4.706529    -0.039535    0.052141    0.020783  
      6.589141  0.941306  4.706529    -0.039535   -0.001830    0.046255  
      2.823918  4.706529  4.706529    -0.060074    0.052141   -0.046255  
      6.589141  4.706529  4.706529    -0.060074   -0.001830   -0.020783  
      1.882612  1.882612  1.882612     0.061448    0.048619    0.000078  
      5.647835  1.882612  1.882612     0.061448   -0.184229   -0.003205  
      1.882612  5.647835  1.882612     0.008680    0.048619    0.003205  
      5.647835  5.647835  1.882612     0.008680   -0.184229   -0.000078  
      1.882612  1.882612  5.647835    -0.008680    0.184229    0.000078  
      5.647835  1.882612  5.647835    -0.008680   -0.048619   -0.003205  
      1.882612  5.647835  5.647835    -0.061448    0.184229    0.003205  
      5.647835  5.647835  5.647835    -0.061448   -0.048619   -0.000078  
 
 190 f  =    0.000004 THz     0.000024 2PiTHz    0.000125 cm-1     0.000015 meV
             X         Y         Z           dx          dy          dz
      0.941306  2.823918  0.941306     0.086569   -0.090131    0.002687  
      4.706529  2.823918  0.941306     0.086569   -0.090131    0.002687  
      0.941306  6.589141  0.941306     0.086569   -0.090131    0.002687  
      4.706529  6.589141  0.941306     0.086569   -0.090131    0.002687  
      0.941306  2.823918  4.706529     0.086569   -0.090131    0.002687  
      4.706529  2.823918  4.706529     0.086569   -0.090131    0.002687  
      0.941306  6.589141  4.706529     0.086569   -0.090131    0.002687  
      4.706529  6.589141  4.706529     0.086569   -0.090131    0.002687  
      0.000000  0.000000  1.882612     0.086569   -0.090131    0.002687  
      3.765223  0.000000  1.882612     0.086569   -0.090131    0.002687  
      0.000000  3.765223  1.882612     0.086569   -0.090131    0.002687  
      3.765223  3.765223  1.882612     0.086569   -0.090131    0.002687  
      0.000000  0.000000  5.647835     0.086569   -0.090131    0.002687  
      3.765223  0.000000  5.647835     0.086569   -0.090131    0.002687  
      0.000000  3.765223  5.647835     0.086569   -0.090131    0.002687  
      3.765223  3.765223  5.647835     0.086569   -0.090131    0.002687  
      0.941306  0.941306  2.823918     0.086569   -0.090131    0.002687  
      4.706529  0.941306  2.823918     0.086569   -0.090131    0.002687  
      0.941306  4.706529  2.823918     0.086569   -0.090131    0.002687  
      4.706529  4.706529  2.823918     0.086569   -0.090131    0.002687  
      0.941306  0.941306  6.589141     0.086569   -0.090131    0.002687  
      4.706529  0.941306  6.589141     0.086569   -0.090131    0.002687  
      0.941306  4.706529  6.589141     0.086569   -0.090131    0.002687  
      4.706529  4.706529  6.589141     0.086569   -0.090131    0.002687  
      0.000000  1.882612  0.000000     0.086569   -0.090131    0.002687  
      3.765223  1.882612  0.000000     0.086569   -0.090131    0.002687  
      0.000000  5.647835  0.000000     0.086569   -0.090131    0.002687  
      3.765223  5.647835  0.000000     0.086569   -0.090131    0.002687  
      0.000000  1.882612  3.765223     0.086569   -0.090131    0.002687  
      3.765223  1.882612  3.765223     0.086569   -0.090131    0.002687  
      0.000000  5.647835  3.765223     0.086569   -0.090131    0.002687  
      3.765223  5.647835  3.765223     0.086569   -0.090131    0.002687  
      2.823918  2.823918  2.823918     0.086569   -0.090131    0.002687  
      6.589141  2.823918  2.823918     0.086569   -0.090131    0.002687  
      2.823918  6.589141  2.823918     0.086569   -0.090131    0.002687  
      6.589141  6.589141  2.823918     0.086569   -0.090131    0.002687  
      2.823918  2.823918  6.589141     0.086569   -0.090131    0.002687  
      6.589141  2.823918  6.589141     0.086569   -0.090131    0.002687  
      2.823918  6.589141  6.589141     0.086569   -0.090131    0.002687  
      6.589141  6.589141  6.589141     0.086569   -0.090131    0.002687  
      1.882612  0.000000  0.000000     0.086569   -0.090131    0.002687  
      5.647835  0.000000  0.000000     0.086569   -0.090131    0.002687  
      1.882612  3.765223  0.000000     0.086569   -0.090131    0.002687  
      5.647835  3.765223  0.000000     0.086569   -0.090131    0.002687  
      1.882612  0.000000  3.765223     0.086569   -0.090131    0.002687  
      5.647835  0.000000  3.765223     0.086569   -0.090131    0.002687  
      1.882612  3.765223  3.765223     0.086569   -0.090131    0.002687  
      5.647835  3.765223  3.765223     0.086569   -0.090131    0.002687  
      2.823918  0.941306  0.941306     0.086569   -0.090131    0.002687  
      6.589141  0.941306  0.941306     0.086569   -0.090131    0.002687  
      2.823918  4.706529  0.941306     0.086569   -0.090131    0.002687  
      6.589141  4.706529  0.941306     0.086569   -0.090131    0.002687  
      2.823918  0.941306  4.706529     0.086569   -0.090131    0.002687  
      6.589141  0.941306  4.706529     0.086569   -0.090131    0.002687  
      2.823918  4.706529  4.706529     0.086569   -0.090131    0.002687  
      6.589141  4.706529  4.706529     0.086569   -0.090131    0.002687  
      1.882612  1.882612  1.882612     0.086569   -0.090131    0.002687  
      5.647835  1.882612  1.882612     0.086569   -0.090131    0.002687  
      1.882612  5.647835  1.882612     0.086569   -0.090131    0.002687  
      5.647835  5.647835  1.882612     0.086569   -0.090131    0.002687  
      1.882612  1.882612  5.647835     0.086569   -0.090131    0.002687  
      5.647835  1.882612  5.647835     0.086569   -0.090131    0.002687  
      1.882612  5.647835  5.647835     0.086569   -0.090131    0.002687  
      5.647835  5.647835  5.647835     0.086569   -0.090131    0.002687  
 
 191 f  =    0.000004 THz     0.000023 2PiTHz    0.000124 cm-1     0.000015 meV
             X         Y         Z           dx          dy          dz
      0.941306  2.823918  0.941306     0.090159    0.086579   -0.000611  
      4.706529  2.823918  0.941306     0.090159    0.086579   -0.000611  
      0.941306  6.589141  0.941306     0.090159    0.086579   -0.000611  
      4.706529  6.589141  0.941306     0.090159    0.086579   -0.000611  
      0.941306  2.823918  4.706529     0.090159    0.086579   -0.000611  
      4.706529  2.823918  4.706529     0.090159    0.086579   -0.000611  
      0.941306  6.589141  4.706529     0.090159    0.086579   -0.000611  
      4.706529  6.589141  4.706529     0.090159    0.086579   -0.000611  
      0.000000  0.000000  1.882612     0.090159    0.086579   -0.000611  
      3.765223  0.000000  1.882612     0.090159    0.086579   -0.000611  
      0.000000  3.765223  1.882612     0.090159    0.086579   -0.000611  
      3.765223  3.765223  1.882612     0.090159    0.086579   -0.000611  
      0.000000  0.000000  5.647835     0.090159    0.086579   -0.000611  
      3.765223  0.000000  5.647835     0.090159    0.086579   -0.000611  
      0.000000  3.765223  5.647835     0.090159    0.086579   -0.000611  
      3.765223  3.765223  5.647835     0.090159    0.086579   -0.000611  
      0.941306  0.941306  2.823918     0.090159    0.086579   -0.000611  
      4.706529  0.941306  2.823918     0.090159    0.086579   -0.000611  
      0.941306  4.706529  2.823918     0.090159    0.086579   -0.000611  
      4.706529  4.706529  2.823918     0.090159    0.086579   -0.000611  
      0.941306  0.941306  6.589141     0.090159    0.086579   -0.000611  
      4.706529  0.941306  6.589141     0.090159    0.086579   -0.000611  
      0.941306  4.706529  6.589141     0.090159    0.086579   -0.000611  
      4.706529  4.706529  6.589141     0.090159    0.086579   -0.000611  
      0.000000  1.882612  0.000000     0.090159    0.086579   -0.000611  
      3.765223  1.882612  0.000000     0.090159    0.086579   -0.000611  
      0.000000  5.647835  0.000000     0.090159    0.086579   -0.000611  
      3.765223  5.647835  0.000000     0.090159    0.086579   -0.000611  
      0.000000  1.882612  3.765223     0.090159    0.086579   -0.000611  
      3.765223  1.882612  3.765223     0.090159    0.086579   -0.000611  
      0.000000  5.647835  3.765223     0.090159    0.086579   -0.000611  
      3.765223  5.647835  3.765223     0.090159    0.086579   -0.000611  
      2.823918  2.823918  2.823918     0.090159    0.086579   -0.000611  
      6.589141  2.823918  2.823918     0.090159    0.086579   -0.000611  
      2.823918  6.589141  2.823918     0.090159    0.086579   -0.000611  
      6.589141  6.589141  2.823918     0.090159    0.086579   -0.000611  
      2.823918  2.823918  6.589141     0.090159    0.086579   -0.000611  
      6.589141  2.823918  6.589141     0.090159    0.086579   -0.000611  
      2.823918  6.589141  6.589141     0.090159    0.086579   -0.000611  
      6.589141  6.589141  6.589141     0.090159    0.086579   -0.000611  
      1.882612  0.000000  0.000000     0.090159    0.086579   -0.000611  
      5.647835  0.000000  0.000000     0.090159    0.086579   -0.000611  
      1.882612  3.765223  0.000000     0.090159    0.086579   -0.000611  
      5.647835  3.765223  0.000000     0.090159    0.086579   -0.000611  
      1.882612  0.000000  3.765223     0.090159    0.086579   -0.000611  
      5.647835  0.000000  3.765223     0.090159    0.086579   -0.000611  
      1.882612  3.765223  3.765223     0.090159    0.086579   -0.000611  
      5.647835  3.765223  3.765223     0.090159    0.086579   -0.000611  
      2.823918  0.941306  0.941306     0.090159    0.086579   -0.000611  
      6.589141  0.941306  0.941306     0.090159    0.086579   -0.000611  
      2.823918  4.706529  0.941306     0.090159    0.086579   -0.000611  
      6.589141  4.706529  0.941306     0.090159    0.086579   -0.000611  
      2.823918  0.941306  4.706529     0.090159    0.086579   -0.000611  
      6.589141  0.941306  4.706529     0.090159    0.086579   -0.000611  
      2.823918  4.706529  4.706529     0.090159    0.086579   -0.000611  
      6.589141  4.706529  4.706529     0.090159    0.086579   -0.000611  
      1.882612  1.882612  1.882612     0.090159    0.086579   -0.000611  
      5.647835  1.882612  1.882612     0.090159    0.086579   -0.000611  
      1.882612  5.647835  1.882612     0.090159    0.086579   -0.000611  
      5.647835  5.647835  1.882612     0.090159    0.086579   -0.000611  
      1.882612  1.882612  5.647835     0.090159    0.086579   -0.000611  
      5.647835  1.882612  5.647835     0.090159    0.086579   -0.000611  
      1.882612  5.647835  5.647835     0.090159    0.086579   -0.000611  
      5.647835  5.647835  5.647835     0.090159    0.086579   -0.000611  
 
 192 f  =    0.000004 THz     0.000023 2PiTHz    0.000121 cm-1     0.000015 meV
             X         Y         Z           dx          dy          dz
      0.941306  2.823918  0.941306     0.001421   -0.002362   -0.124970  
      4.706529  2.823918  0.941306     0.001421   -0.002362   -0.124970  
      0.941306  6.589141  0.941306     0.001421   -0.002362   -0.124970  
      4.706529  6.589141  0.941306     0.001421   -0.002362   -0.124970  
      0.941306  2.823918  4.706529     0.001421   -0.002362   -0.124970  
      4.706529  2.823918  4.706529     0.001421   -0.002362   -0.124970  
      0.941306  6.589141  4.706529     0.001421   -0.002362   -0.124970  
      4.706529  6.589141  4.706529     0.001421   -0.002362   -0.124970  
      0.000000  0.000000  1.882612     0.001421   -0.002362   -0.124970  
      3.765223  0.000000  1.882612     0.001421   -0.002362   -0.124970  
      0.000000  3.765223  1.882612     0.001421   -0.002362   -0.124970  
      3.765223  3.765223  1.882612     0.001421   -0.002362   -0.124970  
      0.000000  0.000000  5.647835     0.001421   -0.002362   -0.124970  
      3.765223  0.000000  5.647835     0.001421   -0.002362   -0.124970  
      0.000000  3.765223  5.647835     0.001421   -0.002362   -0.124970  
      3.765223  3.765223  5.647835     0.001421   -0.002362   -0.124970  
      0.941306  0.941306  2.823918     0.001421   -0.002362   -0.124970  
      4.706529  0.941306  2.823918     0.001421   -0.002362   -0.124970  
      0.941306  4.706529  2.823918     0.001421   -0.002362   -0.124970  
      4.706529  4.706529  2.823918     0.001421   -0.002362   -0.124970  
      0.941306  0.941306  6.589141     0.001421   -0.002362   -0.124970  
      4.706529  0.941306  6.589141     0.001421   -0.002362   -0.124970  
      0.941306  4.706529  6.589141     0.001421   -0.002362   -0.124970  
      4.706529  4.706529  6.589141     0.001421   -0.002362   -0.124970  
      0.000000  1.882612  0.000000     0.001421   -0.002362   -0.124970  
      3.765223  1.882612  0.000000     0.001421   -0.002362   -0.124970  
      0.000000  5.647835  0.000000     0.001421   -0.002362   -0.124970  
      3.765223  5.647835  0.000000     0.001421   -0.002362   -0.124970  
      0.000000  1.882612  3.765223     0.001421   -0.002362   -0.124970  
      3.765223  1.882612  3.765223     0.001421   -0.002362   -0.124970  
      0.000000  5.647835  3.765223     0.001421   -0.002362   -0.124970  
      3.765223  5.647835  3.765223     0.001421   -0.002362   -0.124970  
      2.823918  2.823918  2.823918     0.001421   -0.002362   -0.124970  
      6.589141  2.823918  2.823918     0.001421   -0.002362   -0.124970  
      2.823918  6.589141  2.823918     0.001421   -0.002362   -0.124970  
      6.589141  6.589141  2.823918     0.001421   -0.002362   -0.124970  
      2.823918  2.823918  6.589141     0.001421   -0.002362   -0.124970  
      6.589141  2.823918  6.589141     0.001421   -0.002362   -0.124970  
      2.823918  6.589141  6.589141     0.001421   -0.002362   -0.124970  
      6.589141  6.589141  6.589141     0.001421   -0.002362   -0.124970  
      1.882612  0.000000  0.000000     0.001421   -0.002362   -0.124970  
      5.647835  0.000000  0.000000     0.001421   -0.002362   -0.124970  
      1.882612  3.765223  0.000000     0.001421   -0.002362   -0.124970  
      5.647835  3.765223  0.000000     0.001421   -0.002362   -0.124970  
      1.882612  0.000000  3.765223     0.001421   -0.002362   -0.124970  
      5.647835  0.000000  3.765223     0.001421   -0.002362   -0.124970  
      1.882612  3.765223  3.765223     0.001421   -0.002362   -0.124970  
      5.647835  3.765223  3.765223     0.001421   -0.002362   -0.124970  
      2.823918  0.941306  0.941306     0.001421   -0.002362   -0.124970  
      6.589141  0.941306  0.941306     0.001421   -0.002362   -0.124970  
      2.823918  4.706529  0.941306     0.001421   -0.002362   -0.124970  
      6.589141  4.706529  0.941306     0.001421   -0.002362   -0.124970  
      2.823918  0.941306  4.706529     0.001421   -0.002362   -0.124970  
      6.589141  0.941306  4.706529     0.001421   -0.002362   -0.124970  
      2.823918  4.706529  4.706529     0.001421   -0.002362   -0.124970  
      6.589141  4.706529  4.706529     0.001421   -0.002362   -0.124970  
      1.882612  1.882612  1.882612     0.001421   -0.002362   -0.124970  
      5.647835  1.882612  1.882612     0.001421   -0.002362   -0.124970  
      1.882612  5.647835  1.882612     0.001421   -0.002362   -0.124970  
      5.647835  5.647835  1.882612     0.001421   -0.002362   -0.124970  
      1.882612  1.882612  5.647835     0.001421   -0.002362   -0.124970  
      5.647835  1.882612  5.647835     0.001421   -0.002362   -0.124970  
      1.882612  5.647835  5.647835     0.001421   -0.002362   -0.124970  
      5.647835  5.647835  5.647835     0.001421   -0.002362   -0.124970  
 


--------------------------------------------------------------------------------------------------------



 ELASTIC MODULI CONTR FROM IONIC RELAXATION (kBar)
 Direction    XX          YY          ZZ          XY          YZ          ZX
 --------------------------------------------------------------------------------
 XX          -0.0000      0.0000     -0.0000     -0.0000      0.0000      0.0000
 YY           0.0000     -0.0000      0.0000     -0.0000     -0.0000     -0.0000
 ZZ          -0.0000      0.0000     -0.0000      0.0000     -0.0000      0.0000
 XY          -0.0000     -0.0000      0.0000    -84.7659     -0.0000      0.0000
 YZ           0.0000     -0.0000     -0.0000     -0.0000    -84.7659      0.0000
 ZX           0.0000     -0.0000      0.0000     -0.0000      0.0000    -84.7659
 --------------------------------------------------------------------------------



--------------------------------------------------------------------------------------------------------


     LOOP+:  cpu time  983.0703: real time  984.7881
    4ORBIT:  cpu time    0.0000: real time    0.0000

 total amount of memory used by VASP MPI-rank0    76886. kBytes
=======================================================================

   base      :      30000. kBytes
   nonl-proj :      18063. kBytes
   fftplans  :       5607. kBytes
   grid      :       6985. kBytes
   one-center:        196. kBytes
   wavefun   :      16035. kBytes
 
  
  
 General timing and accounting informations for this job:
 ========================================================
  
                  Total CPU time used (sec):      992.598
                            User time (sec):      988.022
                          System time (sec):        4.576
                         Elapsed time (sec):      994.432
  
                   Maximum memory used (kb):      425132.
                   Average memory used (kb):           0.
  
                          Minor page faults:        39550
                          Major page faults:           35
                 Voluntary context switches:          851
