# Thermal properties / unit cell (natom)

unit:
  temperature:   K
  free_energy:   kJ/mol
  entropy:       J/K/mol
  heat_capacity: J/K/mol

natom: 8    
cutoff_frequency:    0.000
num_modes: 2654208
num_integrated_modes: 2654208

zero_point_energy:     117.5280502
high_T_entropy:        464.9665870

thermal_properties:
- temperature:         0.0000000
  free_energy:       117.5280502
  entropy:             0.0000000
  heat_capacity:       0.0000000
  energy:            117.5280502

- temperature:         2.0000000
  free_energy:       117.5280502
  entropy:             0.0000000
  heat_capacity:       0.0000000
  energy:            117.5280502

- temperature:         4.0000000
  free_energy:       117.5280502
  entropy:             0.0000161
  heat_capacity:       0.0000929
  energy:            117.5280503

- temperature:         6.0000000
  free_energy:       117.5280501
  entropy:             0.0001146
  heat_capacity:       0.0004699
  energy:            117.5280508

- temperature:         8.0000000
  free_energy:       117.5280497
  entropy:             0.0003389
  heat_capacity:       0.0011872
  energy:            117.5280524

- temperature:        10.0000000
  free_energy:       117.5280487
  entropy:             0.0007188
  heat_capacity:       0.0023439
  energy:            117.5280558

- temperature:        12.0000000
  free_energy:       117.5280467
  entropy:             0.0012885
  heat_capacity:       0.0040604
  energy:            117.5280621

- temperature:        14.0000000
  free_energy:       117.5280433
  entropy:             0.0020848
  heat_capacity:       0.0064561
  energy:            117.5280725

- temperature:        16.0000000
  free_energy:       117.5280382
  entropy:             0.0031458
  heat_capacity:       0.0096491
  energy:            117.5280885

- temperature:        18.0000000
  free_energy:       117.5280306
  entropy:             0.0045100
  heat_capacity:       0.0137577
  energy:            117.5281117

- temperature:        20.0000000
  free_energy:       117.5280199
  entropy:             0.0062161
  heat_capacity:       0.0189015
  energy:            117.5281442

- temperature:        22.0000000
  free_energy:       117.5280054
  entropy:             0.0083034
  heat_capacity:       0.0252019
  energy:            117.5281881

- temperature:        24.0000000
  free_energy:       117.5279864
  entropy:             0.0108116
  heat_capacity:       0.0327825
  energy:            117.5282459

- temperature:        26.0000000
  free_energy:       117.5279619
  entropy:             0.0137806
  heat_capacity:       0.0417693
  energy:            117.5283202

- temperature:        28.0000000
  free_energy:       117.5279309
  entropy:             0.0172513
  heat_capacity:       0.0522916
  energy:            117.5284140

- temperature:        30.0000000
  free_energy:       117.5278925
  entropy:             0.0212647
  heat_capacity:       0.0644819
  energy:            117.5285305

- temperature:        32.0000000
  free_energy:       117.5278455
  entropy:             0.0258629
  heat_capacity:       0.0784765
  energy:            117.5286731

- temperature:        34.0000000
  free_energy:       117.5277887
  entropy:             0.0310887
  heat_capacity:       0.0944165
  energy:            117.5288457

- temperature:        36.0000000
  free_energy:       117.5277207
  entropy:             0.0369855
  heat_capacity:       0.1124482
  energy:            117.5290522

- temperature:        38.0000000
  free_energy:       117.5276402
  entropy:             0.0435979
  heat_capacity:       0.1327240
  energy:            117.5292970

- temperature:        40.0000000
  free_energy:       117.5275458
  entropy:             0.0509719
  heat_capacity:       0.1554036
  energy:            117.5295847

- temperature:        42.0000000
  free_energy:       117.5274358
  entropy:             0.0591542
  heat_capacity:       0.1806547
  energy:            117.5299203

- temperature:        44.0000000
  free_energy:       117.5273086
  entropy:             0.0681935
  heat_capacity:       0.2086548
  energy:            117.5303091

- temperature:        46.0000000
  free_energy:       117.5271624
  entropy:             0.0781398
  heat_capacity:       0.2395919
  energy:            117.5307569

- temperature:        48.0000000
  free_energy:       117.5269954
  entropy:             0.0890452
  heat_capacity:       0.2736659
  energy:            117.5312696

- temperature:        50.0000000
  free_energy:       117.5268056
  entropy:             0.1009637
  heat_capacity:       0.3110897
  energy:            117.5318538

- temperature:        52.0000000
  free_energy:       117.5265908
  entropy:             0.1139516
  heat_capacity:       0.3520900
  energy:            117.5325163

- temperature:        54.0000000
  free_energy:       117.5263490
  entropy:             0.1280676
  heat_capacity:       0.3969081
  energy:            117.5332647

- temperature:        56.0000000
  free_energy:       117.5260778
  entropy:             0.1433731
  heat_capacity:       0.4457997
  energy:            117.5341067

- temperature:        58.0000000
  free_energy:       117.5257747
  entropy:             0.1599323
  heat_capacity:       0.4990354
  energy:            117.5350508

- temperature:        60.0000000
  free_energy:       117.5254372
  entropy:             0.1778121
  heat_capacity:       0.5569000
  energy:            117.5361059

- temperature:        62.0000000
  free_energy:       117.5250625
  entropy:             0.1970828
  heat_capacity:       0.6196918
  energy:            117.5372816

- temperature:        64.0000000
  free_energy:       117.5246479
  entropy:             0.2178171
  heat_capacity:       0.6877214
  energy:            117.5385882

- temperature:        66.0000000
  free_energy:       117.5241902
  entropy:             0.2400912
  heat_capacity:       0.7613104
  energy:            117.5400362

- temperature:        68.0000000
  free_energy:       117.5236864
  entropy:             0.2639839
  heat_capacity:       0.8407900
  energy:            117.5416373

- temperature:        70.0000000
  free_energy:       117.5231331
  entropy:             0.2895771
  heat_capacity:       0.9264988
  energy:            117.5434035

- temperature:        72.0000000
  free_energy:       117.5225269
  entropy:             0.3169553
  heat_capacity:       1.0187809
  energy:            117.5453477

- temperature:        74.0000000
  free_energy:       117.5218641
  entropy:             0.3462055
  heat_capacity:       1.1179841
  energy:            117.5474833

- temperature:        76.0000000
  free_energy:       117.5211408
  entropy:             0.3774170
  heat_capacity:       1.2244577
  energy:            117.5498245

- temperature:        78.0000000
  free_energy:       117.5203530
  entropy:             0.4106814
  heat_capacity:       1.3385504
  energy:            117.5523862

- temperature:        80.0000000
  free_energy:       117.5194966
  entropy:             0.4460920
  heat_capacity:       1.4606082
  energy:            117.5551840

- temperature:        82.0000000
  free_energy:       117.5185672
  entropy:             0.4837437
  heat_capacity:       1.5909727
  energy:            117.5582342

- temperature:        84.0000000
  free_energy:       117.5175601
  entropy:             0.5237327
  heat_capacity:       1.7299790
  energy:            117.5615537

- temperature:        86.0000000
  free_energy:       117.5164706
  entropy:             0.5661562
  heat_capacity:       1.8779544
  energy:            117.5651601

- temperature:        88.0000000
  free_energy:       117.5152938
  entropy:             0.6111122
  heat_capacity:       2.0352164
  energy:            117.5690717

- temperature:        90.0000000
  free_energy:       117.5140244
  entropy:             0.6586989
  heat_capacity:       2.2020713
  energy:            117.5733073

- temperature:        92.0000000
  free_energy:       117.5126572
  entropy:             0.7090148
  heat_capacity:       2.3788136
  energy:            117.5778865

- temperature:        94.0000000
  free_energy:       117.5111865
  entropy:             0.7621583
  heat_capacity:       2.5657240
  energy:            117.5828294

- temperature:        96.0000000
  free_energy:       117.5096066
  entropy:             0.8182271
  heat_capacity:       2.7630691
  energy:            117.5881564

- temperature:        98.0000000
  free_energy:       117.5079116
  entropy:             0.8773184
  heat_capacity:       2.9711002
  energy:            117.5938888

- temperature:       100.0000000
  free_energy:       117.5060952
  entropy:             0.9395283
  heat_capacity:       3.1900530
  energy:            117.6000481

- temperature:       102.0000000
  free_energy:       117.5041513
  entropy:             1.0049519
  heat_capacity:       3.4201468
  energy:            117.6066564

- temperature:       104.0000000
  free_energy:       117.5020732
  entropy:             1.0736827
  heat_capacity:       3.6615841
  energy:            117.6137362

- temperature:       106.0000000
  free_energy:       117.4998543
  entropy:             1.1458124
  heat_capacity:       3.9145502
  energy:            117.6213104

- temperature:       108.0000000
  free_energy:       117.4974876
  entropy:             1.2214312
  heat_capacity:       4.1792134
  energy:            117.6294022

- temperature:       110.0000000
  free_energy:       117.4949662
  entropy:             1.3006271
  heat_capacity:       4.4557243
  energy:            117.6380352

- temperature:       112.0000000
  free_energy:       117.4922827
  entropy:             1.3834858
  heat_capacity:       4.7442163
  energy:            117.6472331

- temperature:       114.0000000
  free_energy:       117.4894298
  entropy:             1.4700908
  heat_capacity:       5.0448052
  energy:            117.6570201

- temperature:       116.0000000
  free_energy:       117.4863998
  entropy:             1.5605230
  heat_capacity:       5.3575895
  energy:            117.6674205

- temperature:       118.0000000
  free_energy:       117.4831851
  entropy:             1.6548609
  heat_capacity:       5.6826508
  energy:            117.6784586

- temperature:       120.0000000
  free_energy:       117.4797777
  entropy:             1.7531800
  heat_capacity:       6.0200532
  energy:            117.6901593

- temperature:       122.0000000
  free_energy:       117.4761696
  entropy:             1.8555531
  heat_capacity:       6.3698447
  energy:            117.7025471

- temperature:       124.0000000
  free_energy:       117.4723527
  entropy:             1.9620502
  heat_capacity:       6.7320564
  energy:            117.7156469

- temperature:       126.0000000
  free_energy:       117.4683186
  entropy:             2.0727380
  heat_capacity:       7.1067035
  energy:            117.7294836

- temperature:       128.0000000
  free_energy:       117.4640589
  entropy:             2.1876806
  heat_capacity:       7.4937857
  energy:            117.7440821

- temperature:       130.0000000
  free_energy:       117.4595650
  entropy:             2.3069386
  heat_capacity:       7.8932869
  energy:            117.7594671

- temperature:       132.0000000
  free_energy:       117.4548283
  entropy:             2.4305696
  heat_capacity:       8.3051764
  energy:            117.7756635

- temperature:       134.0000000
  free_energy:       117.4498398
  entropy:             2.5586282
  heat_capacity:       8.7294090
  energy:            117.7926960

- temperature:       136.0000000
  free_energy:       117.4445908
  entropy:             2.6911656
  heat_capacity:       9.1659252
  energy:            117.8105893

- temperature:       138.0000000
  free_energy:       117.4390721
  entropy:             2.8282297
  heat_capacity:       9.6146521
  energy:            117.8293678

- temperature:       140.0000000
  free_energy:       117.4332748
  entropy:             2.9698655
  heat_capacity:      10.0755037
  energy:            117.8490560

- temperature:       142.0000000
  free_energy:       117.4271896
  entropy:             3.1161146
  heat_capacity:      10.5483813
  energy:            117.8696779

- temperature:       144.0000000
  free_energy:       117.4208072
  entropy:             3.2670153
  heat_capacity:      11.0331741
  energy:            117.8912574

- temperature:       146.0000000
  free_energy:       117.4141184
  entropy:             3.4226029
  heat_capacity:      11.5297598
  energy:            117.9138184

- temperature:       148.0000000
  free_energy:       117.4071137
  entropy:             3.5829093
  heat_capacity:      12.0380048
  energy:            117.9373843

- temperature:       150.0000000
  free_energy:       117.3997836
  entropy:             3.7479634
  heat_capacity:      12.5577652
  energy:            117.9619781

- temperature:       152.0000000
  free_energy:       117.3921186
  entropy:             3.9177911
  heat_capacity:      13.0888867
  energy:            117.9876229

- temperature:       154.0000000
  free_energy:       117.3841092
  entropy:             4.0924149
  heat_capacity:      13.6312057
  energy:            118.0143411

- temperature:       156.0000000
  free_energy:       117.3757458
  entropy:             4.2718544
  heat_capacity:      14.1845494
  energy:            118.0421551

- temperature:       158.0000000
  free_energy:       117.3670186
  entropy:             4.4561263
  heat_capacity:      14.7487368
  energy:            118.0710866

- temperature:       160.0000000
  free_energy:       117.3579180
  entropy:             4.6452442
  heat_capacity:      15.3235787
  energy:            118.1011571

- temperature:       162.0000000
  free_energy:       117.3484344
  entropy:             4.8392189
  heat_capacity:      15.9088784
  energy:            118.1323878

- temperature:       164.0000000
  free_energy:       117.3385579
  entropy:             5.0380582
  heat_capacity:      16.5044324
  energy:            118.1647995

- temperature:       166.0000000
  free_energy:       117.3282789
  entropy:             5.2417672
  heat_capacity:      17.1100307
  energy:            118.1984123

- temperature:       168.0000000
  free_energy:       117.3175876
  entropy:             5.4503484
  heat_capacity:      17.7254573
  energy:            118.2332461

- temperature:       170.0000000
  free_energy:       117.3064743
  entropy:             5.6638014
  heat_capacity:      18.3504907
  energy:            118.2693205

- temperature:       172.0000000
  free_energy:       117.2949292
  entropy:             5.8821233
  heat_capacity:      18.9849046
  energy:            118.3066544

- temperature:       174.0000000
  free_energy:       117.2829425
  entropy:             6.1053086
  heat_capacity:      19.6284682
  energy:            118.3452662

- temperature:       176.0000000
  free_energy:       117.2705047
  entropy:             6.3333494
  heat_capacity:      20.2809463
  energy:            118.3851742

- temperature:       178.0000000
  free_energy:       117.2576059
  entropy:             6.5662353
  heat_capacity:      20.9421006
  energy:            118.4263958

- temperature:       180.0000000
  free_energy:       117.2442365
  entropy:             6.8039538
  heat_capacity:      21.6116893
  energy:            118.4689482

- temperature:       182.0000000
  free_energy:       117.2303869
  entropy:             7.0464897
  heat_capacity:      22.2894680
  energy:            118.5128480

- temperature:       184.0000000
  free_energy:       117.2160474
  entropy:             7.2938261
  heat_capacity:      22.9751901
  energy:            118.5581114

- temperature:       186.0000000
  free_energy:       117.2012084
  entropy:             7.5459436
  heat_capacity:      23.6686069
  energy:            118.6047539

- temperature:       188.0000000
  free_energy:       117.1858604
  entropy:             7.8028210
  heat_capacity:      24.3694684
  energy:            118.6527908

- temperature:       190.0000000
  free_energy:       117.1699939
  entropy:             8.0644349
  heat_capacity:      25.0775232
  energy:            118.7022366

- temperature:       192.0000000
  free_energy:       117.1535995
  entropy:             8.3307601
  heat_capacity:      25.7925194
  energy:            118.7531055

- temperature:       194.0000000
  free_energy:       117.1366678
  entropy:             8.6017697
  heat_capacity:      26.5142045
  energy:            118.8054111

- temperature:       196.0000000
  free_energy:       117.1191894
  entropy:             8.8774349
  heat_capacity:      27.2423260
  energy:            118.8591666

- temperature:       198.0000000
  free_energy:       117.1011550
  entropy:             9.1577251
  heat_capacity:      27.9766317
  energy:            118.9143845

- temperature:       200.0000000
  free_energy:       117.0825554
  entropy:             9.4426084
  heat_capacity:      28.7168696
  energy:            118.9710771

- temperature:       202.0000000
  free_energy:       117.0633815
  entropy:             9.7320511
  heat_capacity:      29.4627890
  energy:            119.0292558

- temperature:       204.0000000
  free_energy:       117.0436242
  entropy:            10.0260180
  heat_capacity:      30.2141400
  energy:            119.0889318

- temperature:       206.0000000
  free_energy:       117.0232744
  entropy:            10.3244728
  heat_capacity:      30.9706742
  energy:            119.1501158

- temperature:       208.0000000
  free_energy:       117.0023233
  entropy:            10.6273775
  heat_capacity:      31.7321447
  energy:            119.2128178

- temperature:       210.0000000
  free_energy:       116.9807620
  entropy:            10.9346931
  heat_capacity:      32.4983065
  energy:            119.2770475

- temperature:       212.0000000
  free_energy:       116.9585816
  entropy:            11.2463792
  heat_capacity:      33.2689168
  energy:            119.3428140

- temperature:       214.0000000
  free_energy:       116.9357736
  entropy:            11.5623945
  heat_capacity:      34.0437350
  energy:            119.4101260

- temperature:       216.0000000
  free_energy:       116.9123292
  entropy:            11.8826964
  heat_capacity:      34.8225228
  energy:            119.4789916

- temperature:       218.0000000
  free_energy:       116.8882400
  entropy:            12.2072414
  heat_capacity:      35.6050449
  energy:            119.5494186

- temperature:       220.0000000
  free_energy:       116.8634974
  entropy:            12.5359850
  heat_capacity:      36.3910686
  energy:            119.6214141

- temperature:       222.0000000
  free_energy:       116.8380932
  entropy:            12.8688819
  heat_capacity:      37.1803643
  energy:            119.6949850

- temperature:       224.0000000
  free_energy:       116.8120192
  entropy:            13.2058860
  heat_capacity:      37.9727054
  energy:            119.7701376

- temperature:       226.0000000
  free_energy:       116.7852670
  entropy:            13.5469502
  heat_capacity:      38.7678686
  energy:            119.8468777

- temperature:       228.0000000
  free_energy:       116.7578287
  entropy:            13.8920269
  heat_capacity:      39.5656343
  energy:            119.9252108

- temperature:       230.0000000
  free_energy:       116.7296962
  entropy:            14.2410679
  heat_capacity:      40.3657859
  energy:            120.0051419

- temperature:       232.0000000
  free_energy:       116.7008618
  entropy:            14.5940242
  heat_capacity:      41.1681107
  energy:            120.0866754

- temperature:       234.0000000
  free_energy:       116.6713176
  entropy:            14.9508463
  heat_capacity:      41.9723997
  energy:            120.1698156

- temperature:       236.0000000
  free_energy:       116.6410559
  entropy:            15.3114844
  heat_capacity:      42.7784476
  energy:            120.2545662

- temperature:       238.0000000
  free_energy:       116.6100691
  entropy:            15.6758879
  heat_capacity:      43.5860529
  energy:            120.3409304

- temperature:       240.0000000
  free_energy:       116.5783498
  entropy:            16.0440061
  heat_capacity:      44.3950181
  energy:            120.4289113

- temperature:       242.0000000
  free_energy:       116.5458907
  entropy:            16.4157878
  heat_capacity:      45.2051496
  energy:            120.5185113

- temperature:       244.0000000
  free_energy:       116.5126843
  entropy:            16.7911814
  heat_capacity:      46.0162578
  energy:            120.6097326

- temperature:       246.0000000
  free_energy:       116.4787236
  entropy:            17.1701353
  heat_capacity:      46.8281573
  energy:            120.7025769

- temperature:       248.0000000
  free_energy:       116.4440014
  entropy:            17.5525975
  heat_capacity:      47.6406665
  energy:            120.7970456

- temperature:       250.0000000
  free_energy:       116.4085109
  entropy:            17.9385158
  heat_capacity:      48.4536081
  energy:            120.8931398

- temperature:       252.0000000
  free_energy:       116.3722451
  entropy:            18.3278378
  heat_capacity:      49.2668088
  energy:            120.9908602

- temperature:       254.0000000
  free_energy:       116.3351973
  entropy:            18.7205111
  heat_capacity:      50.0800996
  energy:            121.0902071

- temperature:       256.0000000
  free_energy:       116.2973608
  entropy:            19.1164833
  heat_capacity:      50.8933153
  energy:            121.1911805

- temperature:       258.0000000
  free_energy:       116.2587292
  entropy:            19.5157016
  heat_capacity:      51.7062952
  energy:            121.2937802

- temperature:       260.0000000
  free_energy:       116.2192959
  entropy:            19.9181137
  heat_capacity:      52.5188824
  energy:            121.3980055

- temperature:       262.0000000
  free_energy:       116.1790546
  entropy:            20.3236669
  heat_capacity:      53.3309243
  energy:            121.5038554

- temperature:       264.0000000
  free_energy:       116.1379992
  entropy:            20.7323088
  heat_capacity:      54.1422723
  energy:            121.6113287

- temperature:       266.0000000
  free_energy:       116.0961234
  entropy:            21.1439870
  heat_capacity:      54.9527818
  energy:            121.7204239

- temperature:       268.0000000
  free_energy:       116.0534212
  entropy:            21.5586490
  heat_capacity:      55.7623124
  energy:            121.8311392

- temperature:       270.0000000
  free_energy:       116.0098868
  entropy:            21.9762429
  heat_capacity:      56.5707276
  energy:            121.9434724

- temperature:       272.0000000
  free_energy:       115.9655143
  entropy:            22.3967166
  heat_capacity:      57.3778949
  energy:            122.0574212

- temperature:       274.0000000
  free_energy:       115.9202981
  entropy:            22.8200182
  heat_capacity:      58.1836856
  energy:            122.1729831

- temperature:       276.0000000
  free_energy:       115.8742324
  entropy:            23.2460963
  heat_capacity:      58.9879751
  energy:            122.2901550

- temperature:       278.0000000
  free_energy:       115.8273119
  entropy:            23.6748994
  heat_capacity:      59.7906426
  energy:            122.4089339

- temperature:       280.0000000
  free_energy:       115.7795310
  entropy:            24.1063763
  heat_capacity:      60.5915711
  energy:            122.5293164

- temperature:       282.0000000
  free_energy:       115.7308846
  entropy:            24.5404763
  heat_capacity:      61.3906471
  energy:            122.6512989

- temperature:       284.0000000
  free_energy:       115.6813674
  entropy:            24.9771488
  heat_capacity:      62.1877613
  energy:            122.7748777

- temperature:       286.0000000
  free_energy:       115.6309743
  entropy:            25.4163436
  heat_capacity:      62.9828076
  energy:            122.9000486

- temperature:       288.0000000
  free_energy:       115.5797004
  entropy:            25.8580107
  heat_capacity:      63.7756837
  energy:            123.0268075

- temperature:       290.0000000
  free_energy:       115.5275407
  entropy:            26.3021005
  heat_capacity:      64.5662909
  energy:            123.1551498

- temperature:       292.0000000
  free_energy:       115.4744904
  entropy:            26.7485639
  heat_capacity:      65.3545339
  energy:            123.2850711

- temperature:       294.0000000
  free_energy:       115.4205449
  entropy:            27.1973519
  heat_capacity:      66.1403208
  energy:            123.4165663

- temperature:       296.0000000
  free_energy:       115.3656995
  entropy:            27.6484161
  heat_capacity:      66.9235631
  energy:            123.5496306

- temperature:       298.0000000
  free_energy:       115.3099497
  entropy:            28.1017084
  heat_capacity:      67.7041757
  energy:            123.6842588

- temperature:       300.0000000
  free_energy:       115.2532912
  entropy:            28.5571811
  heat_capacity:      68.4820766
  energy:            123.8204455

- temperature:       302.0000000
  free_energy:       115.1957196
  entropy:            29.0147871
  heat_capacity:      69.2571871
  energy:            123.9581853

- temperature:       304.0000000
  free_energy:       115.1372307
  entropy:            29.4744793
  heat_capacity:      70.0294316
  energy:            124.0974724

- temperature:       306.0000000
  free_energy:       115.0778203
  entropy:            29.9362116
  heat_capacity:      70.7987374
  energy:            124.2383010

- temperature:       308.0000000
  free_energy:       115.0174845
  entropy:            30.3999378
  heat_capacity:      71.5650351
  energy:            124.3806653

- temperature:       310.0000000
  free_energy:       114.9562192
  entropy:            30.8656125
  heat_capacity:      72.3282581
  energy:            124.5245591

- temperature:       312.0000000
  free_energy:       114.8940208
  entropy:            31.3331907
  heat_capacity:      73.0883425
  energy:            124.6699763

- temperature:       314.0000000
  free_energy:       114.8308852
  entropy:            31.8026278
  heat_capacity:      73.8452275
  energy:            124.8169104

- temperature:       316.0000000
  free_energy:       114.7668090
  entropy:            32.2738796
  heat_capacity:      74.5988548
  energy:            124.9653550

- temperature:       318.0000000
  free_energy:       114.7017885
  entropy:            32.7469026
  heat_capacity:      75.3491689
  energy:            125.1153036

- temperature:       320.0000000
  free_energy:       114.6358203
  entropy:            33.2216536
  heat_capacity:      76.0961171
  energy:            125.2667494

- temperature:       322.0000000
  free_energy:       114.5689008
  entropy:            33.6980899
  heat_capacity:      76.8396488
  energy:            125.4196858

- temperature:       324.0000000
  free_energy:       114.5010268
  entropy:            34.1761694
  heat_capacity:      77.5797164
  energy:            125.5741057

- temperature:       326.0000000
  free_energy:       114.4321951
  entropy:            34.6558504
  heat_capacity:      78.3162744
  energy:            125.7300023

- temperature:       328.0000000
  free_energy:       114.3624024
  entropy:            35.1370916
  heat_capacity:      79.0492799
  energy:            125.8873684

- temperature:       330.0000000
  free_energy:       114.2916457
  entropy:            35.6198525
  heat_capacity:      79.7786920
  energy:            126.0461970

- temperature:       332.0000000
  free_energy:       114.2199220
  entropy:            36.1040928
  heat_capacity:      80.5044725
  energy:            126.2064808

- temperature:       334.0000000
  free_energy:       114.1472284
  entropy:            36.5897728
  heat_capacity:      81.2265849
  energy:            126.3682125

- temperature:       336.0000000
  free_energy:       114.0735620
  entropy:            37.0768533
  heat_capacity:      81.9449954
  energy:            126.5313847

- temperature:       338.0000000
  free_energy:       113.9989200
  entropy:            37.5652956
  heat_capacity:      82.6596717
  energy:            126.6959899

- temperature:       340.0000000
  free_energy:       113.9232999
  entropy:            38.0550616
  heat_capacity:      83.3705840
  energy:            126.8620208

- temperature:       342.0000000
  free_energy:       113.8466989
  entropy:            38.5461135
  heat_capacity:      84.0777042
  energy:            127.0294698

- temperature:       344.0000000
  free_energy:       113.7691146
  entropy:            39.0384142
  heat_capacity:      84.7810062
  energy:            127.1983291

- temperature:       346.0000000
  free_energy:       113.6905445
  entropy:            39.5319270
  heat_capacity:      85.4804657
  energy:            127.3685912

- temperature:       348.0000000
  free_energy:       113.6109861
  entropy:            40.0266157
  heat_capacity:      86.1760604
  energy:            127.5402484

- temperature:       350.0000000
  free_energy:       113.5304372
  entropy:            40.5224447
  heat_capacity:      86.8677695
  energy:            127.7132929

- temperature:       352.0000000
  free_energy:       113.4488956
  entropy:            41.0193786
  heat_capacity:      87.5555741
  energy:            127.8877169

- temperature:       354.0000000
  free_energy:       113.3663590
  entropy:            41.5173829
  heat_capacity:      88.2394568
  energy:            128.0635126

- temperature:       356.0000000
  free_energy:       113.2828254
  entropy:            42.0164233