<?xml version="1.0" encoding="ISO-8859-1"?>
<modeling>
 <generator>
  <i name="program" type="string">vasp </i>
  <i name="version" type="string">5.4.4.18Apr17-6-g9f103f2a35  </i>
  <i name="subversion" type="string">(build Mar 12 2022 03:36:41) complex            parallel </i>
  <i name="platform" type="string">IFC19.0.3.199_CrayMPICH7.7.19 </i>
  <i name="date" type="string">2022 12 02 </i>
  <i name="time" type="string">03:11:59 </i>
 </generator>
 <incar>
  <i type="string" name="PREC">accurate</i>
  <i type="int" name="IALGO">    38</i>
  <i type="logical" name="ADDGRID"> T  </i>
  <i type="int" name="IBRION">     8</i>
  <i name="EDIFF">      0.00000001</i>
  <i type="logical" name="LREAL"> F  </i>
  <i type="int" name="ISMEAR">     0</i>
  <i name="SIGMA">      0.06000000</i>
  <i type="logical" name="LWAVE"> F  </i>
  <i type="logical" name="LCHARG"> F  </i>
  <v type="int" name="KPOINT_BSE">    -1     0     0     0</v>
 </incar>
 <structure name="primitive_cell" >
  <crystal>
   <varray name="basis" >
    <v>       1.88261171       1.88261171       0.00000000 </v>
    <v>       1.88261171       0.00000000      -1.88261171 </v>
    <v>       0.00000000       1.88261171      -1.88261171 </v>
   </varray>
   <i name="volume">     13.34480600 </i>
   <varray name="rec_basis" >
    <v>       0.26558849       0.26558849       0.26558849 </v>
    <v>       0.26558849      -0.26558849      -0.26558849 </v>
    <v>      -0.26558849       0.26558849      -0.26558849 </v>
   </varray>
  </crystal>
  <varray name="positions" >
   <v>       0.25000000       0.25000000       0.25000000 </v>
   <v>      -0.50000000      -0.50000000      -0.50000000 </v>
  </varray>
 </structure>
 <varray name="primitive_index" >
  <v type="int" >        1 </v>
  <v type="int" >       11 </v>
 </varray>
 <kpoints>
  <generation param="Gamma">
   <v type="int" name="divisions">       6        6        6 </v>
   <v name="usershift">      0.00000000       0.00000000       0.00000000 </v>
   <v name="genvec1">      0.16666667       0.00000000       0.00000000 </v>
   <v name="genvec2">      0.00000000       0.16666667       0.00000000 </v>
   <v name="genvec3">      0.00000000       0.00000000       0.16666667 </v>
   <v name="shift">      0.00000000       0.00000000       0.00000000 </v>
  </generation>
  <varray name="kpointlist" >
   <v>       0.00000000       0.00000000       0.00000000 </v>
   <v>       0.16666667       0.00000000       0.00000000 </v>
   <v>       0.33333333       0.00000000       0.00000000 </v>
   <v>       0.50000000       0.00000000       0.00000000 </v>
   <v>       0.16666667       0.16666667       0.00000000 </v>
   <v>       0.33333333       0.16666667       0.00000000 </v>
   <v>       0.50000000       0.16666667       0.00000000 </v>
   <v>       0.33333333       0.33333333       0.00000000 </v>
   <v>       0.50000000       0.33333333       0.00000000 </v>
   <v>       0.50000000       0.50000000       0.00000000 </v>
   <v>       0.16666667       0.16666667       0.16666667 </v>
   <v>       0.33333333       0.16666667       0.16666667 </v>
   <v>       0.50000000       0.16666667       0.16666667 </v>
   <v>       0.33333333       0.33333333       0.16666667 </v>
   <v>       0.50000000       0.33333333       0.16666667 </v>
   <v>       0.50000000       0.50000000       0.16666667 </v>
   <v>       0.33333333       0.33333333       0.33333333 </v>
   <v>       0.50000000       0.33333333       0.33333333 </v>
   <v>       0.50000000       0.50000000       0.33333333 </v>
   <v>       0.50000000       0.50000000       0.50000000 </v>
  </varray>
  <varray name="weights" >
   <v>       0.00462963 </v>
   <v>       0.02777778 </v>
   <v>       0.02777778 </v>
   <v>       0.01388889 </v>
   <v>       0.05555556 </v>
   <v>       0.11111111 </v>
   <v>       0.05555556 </v>
   <v>       0.05555556 </v>
   <v>       0.05555556 </v>
   <v>       0.01388889 </v>
   <v>       0.03703704 </v>
   <v>       0.11111111 </v>
   <v>       0.05555556 </v>
   <v>       0.11111111 </v>
   <v>       0.11111111 </v>
   <v>       0.02777778 </v>
   <v>       0.03703704 </v>
   <v>       0.05555556 </v>
   <v>       0.02777778 </v>
   <v>       0.00462963 </v>
  </varray>
 </kpoints>
 <parameters>
  <separator name="general" >
   <i type="string" name="SYSTEM">unknown system</i>
   <i type="logical" name="LCOMPAT"> F  </i>
  </separator>
  <separator name="electronic" >
   <i type="string" name="PREC">accura</i>
   <i name="ENMAX">    400.00000000</i>
   <i name="ENAUG">    644.87300000</i>
   <i name="EDIFF">      0.00000001</i>
   <i type="int" name="IALGO">    38</i>
   <i type="int" name="IWAVPR">    11</i>
   <i type="int" name="NBANDS">   192</i>
   <i name="NELECT">    256.00000000</i>
   <i type="int" name="TURBO">     0</i>
   <i type="int" name="IRESTART">     0</i>
   <i type="int" name="NREBOOT">     0</i>
   <i type="int" name="NMIN">     0</i>
   <i name="EREF">      0.00000000</i>
   <separator name="electronic smearing" >
    <i type="int" name="ISMEAR">     0</i>
    <i name="SIGMA">      0.06000000</i>
    <i name="KSPACING">      0.50000000</i>
    <i type="logical" name="KGAMMA"> T  </i>
   </separator>
   <separator name="electronic projectors" >
    <i type="logical" name="LREAL"> F  </i>
    <v name="ROPT">      0.00000000</v>
    <i type="int" name="LMAXPAW">  -100</i>
    <i type="int" name="LMAXMIX">     2</i>
    <i type="logical" name="NLSPLINE"> F  </i>
   </separator>
   <separator name="electronic startup" >
    <i type="int" name="ISTART">     0</i>
    <i type="int" name="ICHARG">     2</i>
    <i type="int" name="INIWAV">     1</i>
   </separator>
   <separator name="electronic spin" >
    <i type="int" name="ISPIN">     1</i>
    <i type="logical" name="LNONCOLLINEAR"> F  </i>
    <v name="MAGMOM">      1.00000000      1.00000000      1.00000000      1.00000000      1.00000000      1.00000000      1.00000000      1.00000000      1.00000000      1.00000000      1.00000000      1.00000000      1.00000000      1.00000000      1.00000000      1.00000000      1.00000000      1.00000000      1.00000000      1.00000000
      1.00000000      1.00000000      1.00000000      1.00000000      1.00000000      1.00000000      1.00000000      1.00000000      1.00000000      1.00000000      1.00000000      1.00000000      1.00000000      1.00000000      1.00000000      1.00000000      1.00000000      1.00000000      1.00000000      1.00000000
      1.00000000      1.00000000      1.00000000      1.00000000      1.00000000      1.00000000      1.00000000      1.00000000      1.00000000      1.00000000      1.00000000      1.00000000      1.00000000      1.00000000      1.00000000      1.00000000      1.00000000      1.00000000      1.00000000      1.00000000
      1.00000000      1.00000000      1.00000000      1.00000000</v>
    <i name="NUPDOWN">     -1.00000000</i>
    <i type="logical" name="LSORBIT"> F  </i>
    <v name="SAXIS">      0.00000000      0.00000000      1.00000000</v>
    <i type="logical" name="LSPIRAL"> F  </i>
    <v name="QSPIRAL">      0.00000000      0.00000000      0.00000000</v>
    <i type="logical" name="LZEROZ"> F  </i>
   </separator>
   <separator name="electronic exchange-correlation" >
    <i type="logical" name="LASPH"> F  </i>
    <i type="logical" name="LMETAGGA"> F  </i>
   </separator>
   <separator name="electronic convergence" >
    <i type="int" name="NELM">    60</i>
    <i type="int" name="NELMDL">    -5</i>
    <i type="int" name="NELMIN">     2</i>
    <i name="ENINI">    400.00000000</i>
    <separator name="electronic convergence detail" >
     <i type="logical" name="LDIAG"> T  </i>
     <i type="logical" name="LSUBROT"> F  </i>
     <i name="WEIMIN">      0.00100000</i>
     <i name="EBREAK">      0.00000000</i>
     <i name="DEPER">      0.30000000</i>
     <i type="int" name="NRMM">     4</i>
     <i name="TIME">      0.40000000</i>
    </separator>
   </separator>
   <separator name="electronic mixer" >
    <i name="AMIX">      0.40000000</i>
    <i name="BMIX">      1.00000000</i>
    <i name="AMIN">      0.10000000</i>
    <i name="AMIX_MAG">      1.60000000</i>
    <i name="BMIX_MAG">      1.00000000</i>
    <separator name="electronic mixer details" >
     <i type="int" name="IMIX">     4</i>
     <i type="logical" name="MIXFIRST"> F  </i>
     <i type="int" name="MAXMIX">   -45</i>
     <i name="WC">    100.00000000</i>
     <i type="int" name="INIMIX">     1</i>
     <i type="int" name="MIXPRE">     1</i>
     <i type="int" name="MREMOVE">     5</i>
    </separator>
   </separator>
   <separator name="electronic dipolcorrection" >
    <i type="logical" name="LDIPOL"> F  </i>
    <i type="logical" name="LMONO"> F  </i>
    <i type="int" name="IDIPOL">     0</i>
    <i name="EPSILON">      1.00000000</i>
    <v name="DIPOL">   -100.00000000   -100.00000000   -100.00000000</v>
    <i name="EFIELD">      0.00000000</i>
   </separator>
  </separator>
  <separator name="grids" >
   <i type="int" name="NGX">    50</i>
   <i type="int" name="NGY">    50</i>
   <i type="int" name="NGZ">    50</i>
   <i type="int" name="NGXF">   100</i>
   <i type="int" name="NGYF">   100</i>
   <i type="int" name="NGZF">   100</i>
   <i type="logical" name="ADDGRID"> T  </i>
  </separator>
  <separator name="ionic" >
   <i type="int" name="NSW">     1</i>
   <i type="int" name="IBRION">     8</i>
   <i type="int" name="MDALGO">     0</i>
   <i type="int" name="ISIF">     2</i>
   <i name="PSTRESS">      0.00000000</i>
   <i name="EDIFFG">      0.00000010</i>
   <i type="int" name="NFREE">     0</i>
   <i name="POTIM">      0.50000000</i>
   <i name="SMASS">     -3.00000000</i>
   <i name="SCALEE">      1.00000000</i>
  </separator>
  <separator name="ionic md" >
   <i name="TEBEG">      0.00010000</i>
   <i name="TEEND">      0.00010000</i>
   <i type="int" name="NBLOCK">     1</i>
   <i type="int" name="KBLOCK">     1</i>
   <i type="int" name="NPACO">   256</i>
   <i name="APACO">     16.00000000</i>
  </separator>
  <separator name="symmetry" >
   <i type="int" name="ISYM">     2</i>
   <i name="SYMPREC">      0.00001000</i>
  </separator>
  <separator name="dos" >
   <i type="int" name="LORBIT">     0</i>
   <v name="RWIGS">     -1.00000000</v>
   <i type="int" name="NEDOS">   301</i>
   <i name="EMIN">     10.00000000</i>
   <i name="EMAX">    -10.00000000</i>
   <i name="EFERMI">      0.00000000</i>
  </separator>
  <separator name="writing" >
   <i type="int" name="NWRITE">     2</i>
   <i type="logical" name="LWAVE"> F  </i>
   <i type="logical" name="LDOWNSAMPLE"> F  </i>
   <i type="logical" name="LCHARG"> F  </i>
   <i type="logical" name="LPARD"> F  </i>
   <i type="logical" name="LVTOT"> F  </i>
   <i type="logical" name="LVHAR"> F  </i>
   <i type="logical" name="LELF"> F  </i>
   <i type="logical" name="LOPTICS"> F  </i>
   <v name="STM">      0.00000000      0.00000000      0.00000000      0.00000000      0.00000000      0.00000000      0.00000000</v>
  </separator>
  <separator name="performance" >
   <i type="int" name="NPAR">    32</i>
   <i type="int" name="NSIM">     4</i>
   <i type="int" name="NBLK">    -1</i>
   <i type="logical" name="LPLANE"> T  </i>
   <i type="logical" name="LSCALAPACK"> T  </i>
   <i type="logical" name="LSCAAWARE"> F  </i>
   <i type="logical" name="LSCALU"> F  </i>
   <i type="logical" name="LASYNC"> F  </i>
   <i type="logical" name="LORBITALREAL"> F  </i>
  </separator>
  <separator name="miscellaneous" >
   <i type="int" name="IDIOT">     3</i>
   <i type="int" name="ISPECIAL">     0</i>
   <i type="logical" name="LMUSIC"> F  </i>
   <v name="POMASS">     12.01100000</v>
   <v name="DARWINR">      0.00000000</v>
   <v name="DARWINV">      1.00000000</v>
   <i type="logical" name="LCORR"> T  </i>
  </separator>
  <i type="logical" name="GGA_COMPAT"> T  </i>
  <i type="logical" name="LBERRY"> F  </i>
  <i type="int" name="ICORELEVEL">     0</i>
  <i type="logical" name="LDAU"> F  </i>
  <i type="int" name="I_CONSTRAINED_M">     0</i>
  <separator name="electronic exchange-correlation" >
   <i type="string" name="GGA">--</i>
   <i type="int" name="VOSKOWN">     0</i>
   <i type="logical" name="LHFCALC"> F  </i>
   <i type="string" name="PRECFOCK"></i>
   <i type="logical" name="LSYMGRAD"> F  </i>
   <i type="logical" name="LHFONE"> F  </i>
   <i type="logical" name="LRHFCALC"> F  </i>
   <i type="logical" name="LTHOMAS"> F  </i>
   <i type="logical" name="LMODELHF"> F  </i>
   <i name="ENCUT4O">     -1.00000000</i>
   <i type="int" name="EXXOEP">     0</i>
   <i type="int" name="FOURORBIT">     0</i>
   <i name="AEXX">      0.00000000</i>
   <i name="HFALPHA">      0.00000000</i>
   <i name="MCALPHA">      0.00000000</i>
   <i name="ALDAX">      1.00000000</i>
   <i name="AGGAX">      1.00000000</i>
   <i name="ALDAC">      1.00000000</i>
   <i name="AGGAC">      1.00000000</i>
   <i type="int" name="NKREDX">     1</i>
   <i type="int" name="NKREDY">     1</i>
   <i type="int" name="NKREDZ">     1</i>
   <i type="logical" name="SHIFTRED"> F  </i>
   <i type="logical" name="ODDONLY"> F  </i>
   <i type="logical" name="EVENONLY"> F  </i>
   <i type="int" name="LMAXFOCK">     0</i>
   <i type="int" name="NMAXFOCKAE">     0</i>
   <i type="logical" name="LFOCKAEDFT"> F  </i>
   <i name="HFSCREEN">      0.00000000</i>
   <i name="HFSCREENC">      0.00000000</i>
   <i type="int" name="NBANDSGWLOW">     0</i>
  </separator>
  <separator name="vdW DFT" >
   <i type="logical" name="LUSE_VDW"> F  </i>
   <i name="Zab_VDW">     -0.84910000</i>
   <i name="PARAM1">      0.12340000</i>
   <i name="PARAM2">      1.00000000</i>
   <i name="PARAM3">      0.00000000</i>
  </separator>
  <separator name="model GW" >
   <i type="int" name="MODEL_GW">     0</i>
   <i name="MODEL_EPS0">      4.00344180</i>
   <i name="MODEL_ALPHA">      1.00000000</i>
  </separator>
  <separator name="linear response parameters" >
   <i type="logical" name="LEPSILON"> F  </i>
   <i type="logical" name="LRPA"> F  </i>
   <i type="logical" name="LNABLA"> F  </i>
   <i type="logical" name="LVEL"> F  </i>
   <i type="int" name="KINTER">     0</i>
   <i name="CSHIFT">      0.10000000</i>
   <i name="OMEGAMAX">     -1.00000000</i>
   <i name="DEG_THRESHOLD">      0.00200000</i>
   <i name="RTIME">     -0.10000000</i>
   <i name="WPLASMAI">      0.00000000</i>
   <v name="DFIELD">      0.00000000      0.00000000      0.00000000</v>
   <v name="WPLASMA">      0.00000000      0.00000000      0.00000000      0.00000000      0.00000000      0.00000000      0.00000000      0.00000000      0.00000000</v>
  </separator>
  <separator name="orbital magnetization" >
   <i type="logical" name="NUCIND"> F  </i>
   <v name="MAGPOS">      0.00000000      0.00000000      0.00000000</v>
   <i type="logical" name="LNICSALL"> T  </i>
   <i type="logical" name="ORBITALMAG"> F  </i>
   <i type="logical" name="LMAGBLOCH"> F  </i>
   <i type="logical" name="LCHIMAG"> F  </i>
   <i type="logical" name="LGAUGE"> T  </i>
   <i type="int" name="MAGATOM">     0</i>
   <v name="MAGDIPOL">      0.00000000      0.00000000      0.00000000</v>
   <v name="AVECCONST">      0.00000000      0.00000000      0.00000000</v>
  </separator>
  <separator name="response functions" >
   <i type="logical" name="LADDER"> F  </i>
   <i type="logical" name="LRPAFORCE"> F  </i>
   <i type="logical" name="LFXC"> F  </i>
   <i type="logical" name="LHARTREE"> T  </i>
   <i type="int" name="IBSE">     0</i>
   <v type="int" name="KPOINT">    -1     0     0     0</v>
   <i type="logical" name="LTCTE"> F  </i>
   <i type="logical" name="LTETE"> F  </i>
   <i type="logical" name="LTRIPLET"> F  </i>
   <i type="logical" name="LFXCEPS"> F  </i>
   <i type="logical" name="LFXHEG"> F  </i>
   <i type="int" name="NATURALO">     2</i>
   <i type="logical" name="L2ORDER"> F  </i>
   <i type="logical" name="LMP2LT"> F  </i>
   <i type="logical" name="LUSEW"> F  </i>
   <i name="ENCUTGW">     -2.00000000</i>
   <i name="ENCUTGWSOFT">     -2.00000000</i>
   <i name="ENCUTLF">     -1.00000000</i>
   <i type="int" name="LMAXMP2">    -1</i>
   <i name="SCISSOR">      0.00000000</i>
   <i type="int" name="NOMEGA">     0</i>
   <i type="int" name="NOMEGAR">     0</i>
   <i type="int" name="NBANDSGW">    -1</i>
   <i type="int" name="NBANDSO">    -1</i>
   <i type="int" name="NBANDSV">    -1</i>
   <i type="int" name="NELM">     1</i>
   <i type="int" name="NELMHF">     1</i>
   <i type="int" name="DIM">     3</i>
   <i type="int" name="ANTIRES">     0</i>
   <i name="OMEGAMAX">    -30.00000000</i>
   <i name="OMEGAMIN">    -30.00000000</i>
   <i name="OMEGATL">   -200.00000000</i>
   <i type="int" name="OMEGAGRID">   140</i>
   <i name="CSHIFT">     -0.10000000</i>
   <i type="logical" name="SELFENERGY"> F  </i>
   <i type="logical" name="LSPECTRAL"> F  </i>
   <i type="logical" name="LSPECTRALGW"> F  </i>
   <i type="logical" name="LSINGLES"> F  </i>
   <i type="logical" name="LFERMIGW"> F  </i>
   <i type="logical" name="ODDONLYGW"> F  </i>
   <i type="logical" name="EVENONLYGW"> F  </i>
   <i type="int" name="NKREDLFX">     1</i>
   <i type="int" name="NKREDLFY">     1</i>
   <i type="int" name="NKREDLFZ">     1</i>
   <i type="int" name="MAXMEM">  2800</i>
   <i type="int" name="TELESCOPE">     0</i>
   <i type="int" name="TAUPAR">     1</i>
   <i type="int" name="OMEGAPAR">    -1</i>
   <i name="LAMBDA">      1.00000000</i>
  </separator>
  <separator name="External order field" >
   <i name="OFIELD_KAPPA">      0.00000000</i>
   <v name="OFIELD_K">      0.00000000      0.00000000      0.00000000</v>
   <i name="OFIELD_Q6_NEAR">      0.00000000</i>
   <i name="OFIELD_Q6_FAR">      0.00000000</i>
   <i name="OFIELD_A">      0.00000000</i>
  </separator>
 </parameters>
 <atominfo>
  <atoms>      64 </atoms>
  <types>       1 </types>
  <array name="atoms" >
   <dimension dim="1">ion</dimension>
   <field type="string">element</field>
   <field type="int">atomtype</field>
   <set>
    <rc><c>C </c><c>   1</c></rc>
    <rc><c>C </c><c>   1</c></rc>
    <rc><c>C </c><c>   1</c></rc>
    <rc><c>C </c><c>   1</c></rc>
    <rc><c>C </c><c>   1</c></rc>
    <rc><c>C </c><c>   1</c></rc>
    <rc><c>C </c><c>   1</c></rc>
    <rc><c>C </c><c>   1</c></rc>
    <rc><c>C </c><c>   1</c></rc>
    <rc><c>C </c><c>   1</c></rc>
    <rc><c>C </c><c>   1</c></rc>
    <rc><c>C </c><c>   1</c></rc>
    <rc><c>C </c><c>   1</c></rc>
    <rc><c>C </c><c>   1</c></rc>
    <rc><c>C </c><c>   1</c></rc>
    <rc><c>C </c><c>   1</c></rc>
    <rc><c>C </c><c>   1</c></rc>
    <rc><c>C </c><c>   1</c></rc>
    <rc><c>C </c><c>   1</c></rc>
    <rc><c>C </c><c>   1</c></rc>
    <rc><c>C </c><c>   1</c></rc>
    <rc><c>C </c><c>   1</c></rc>
    <rc><c>C </c><c>   1</c></rc>
    <rc><c>C </c><c>   1</c></rc>
    <rc><c>C </c><c>   1</c></rc>
    <rc><c>C </c><c>   1</c></rc>
    <rc><c>C </c><c>   1</c></rc>
    <rc><c>C </c><c>   1</c></rc>
    <rc><c>C </c><c>   1</c></rc>
    <rc><c>C </c><c>   1</c></rc>
    <rc><c>C </c><c>   1</c></rc>
    <rc><c>C </c><c>   1</c></rc>
    <rc><c>C </c><c>   1</c></rc>
    <rc><c>C </c><c>   1</c></rc>
    <rc><c>C </c><c>   1</c></rc>
    <rc><c>C </c><c>   1</c></rc>
    <rc><c>C </c><c>   1</c></rc>
    <rc><c>C </c><c>   1</c></rc>
    <rc><c>C </c><c>   1</c></rc>
    <rc><c>C </c><c>   1</c></rc>
    <rc><c>C </c><c>   1</c></rc>
    <rc><c>C </c><c>   1</c></rc>
    <rc><c>C </c><c>   1</c></rc>
    <rc><c>C </c><c>   1</c></rc>
    <rc><c>C </c><c>   1</c></rc>
    <rc><c>C </c><c>   1</c></rc>
    <rc><c>C </c><c>   1</c></rc>
    <rc><c>C </c><c>   1</c></rc>
    <rc><c>C </c><c>   1</c></rc>
    <rc><c>C </c><c>   1</c></rc>
    <rc><c>C </c><c>   1</c></rc>
    <rc><c>C </c><c>   1</c></rc>
    <rc><c>C </c><c>   1</c></rc>
    <rc><c>C </c><c>   1</c></rc>
    <rc><c>C </c><c>   1</c></rc>
    <rc><c>C </c><c>   1</c></rc>
    <rc><c>C </c><c>   1</c></rc>
    <rc><c>C </c><c>   1</c></rc>
    <rc><c>C </c><c>   1</c></rc>
    <rc><c>C </c><c>   1</c></rc>
    <rc><c>C </c><c>   1</c></rc>
    <rc><c>C </c><c>   1</c></rc>
    <rc><c>C </c><c>   1</c></rc>
    <rc><c>C </c><c>   1</c></rc>
   </set>
  </array>
  <array name="atomtypes" >
   <dimension dim="1">type</dimension>
   <field type="int">atomspertype</field>
   <field type="string">element</field>
   <field>mass</field>
   <field>valence</field>
   <field type="string">pseudopotential</field>
   <set>
    <rc><c>  64</c><c>C </c><c>     12.01100000</c><c>      4.00000000</c><c> PAW_PBE C 08Apr2002                    </c></rc>
   </set>
  </array>
 </atominfo>
 <structure name="initialpos" >
  <crystal>
   <varray name="basis" >
    <v>       7.53044685       0.00000000       0.00000000 </v>
    <v>       0.00000000       7.53044685       0.00000000 </v>
    <v>       0.00000000       0.00000000       7.53044685 </v>
   </varray>
   <i name="volume">    427.03379201 </i>
   <varray name="rec_basis" >
    <v>       0.13279424       0.00000000       0.00000000 </v>
    <v>       0.00000000       0.13279424       0.00000000 </v>
    <v>       0.00000000       0.00000000       0.13279424 </v>
   </varray>
  </crystal>
  <varray name="positions" >
   <v>       0.12500000       0.37500000       0.12500000 </v>
   <v>       0.62500000       0.37500000       0.12500000 </v>
   <v>       0.12500000       0.87500000       0.12500000 </v>
   <v>       0.62500000       0.87500000       0.12500000 </v>
   <v>       0.12500000       0.37500000       0.62500000 </v>
   <v>       0.62500000       0.37500000       0.62500000 </v>
   <v>       0.12500000       0.87500000       0.62500000 </v>
   <v>       0.62500000       0.87500000       0.62500000 </v>
   <v>       0.00000000       0.00000000       0.25000000 </v>
   <v>       0.50000000       0.00000000       0.25000000 </v>
   <v>       0.00000000       0.50000000       0.25000000 </v>
   <v>       0.50000000       0.50000000       0.25000000 </v>
   <v>       0.00000000       0.00000000       0.75000000 </v>
   <v>       0.50000000       0.00000000       0.75000000 </v>
   <v>       0.00000000       0.50000000       0.75000000 </v>
   <v>       0.50000000       0.50000000       0.75000000 </v>
   <v>       0.12500000       0.12500000       0.37500000 </v>
   <v>       0.62500000       0.12500000       0.37500000 </v>
   <v>       0.12500000       0.62500000       0.37500000 </v>
   <v>       0.62500000       0.62500000       0.37500000 </v>
   <v>       0.12500000       0.12500000       0.87500000 </v>
   <v>       0.62500000       0.12500000       0.87500000 </v>
   <v>       0.12500000       0.62500000       0.87500000 </v>
   <v>       0.62500000       0.62500000       0.87500000 </v>
   <v>       0.00000000       0.25000000       0.00000000 </v>
   <v>       0.50000000       0.25000000       0.00000000 </v>
   <v>       0.00000000       0.75000000       0.00000000 </v>
   <v>       0.50000000       0.75000000       0.00000000 </v>
   <v>       0.00000000       0.25000000       0.50000000 </v>
   <v>       0.50000000       0.25000000       0.50000000 </v>
   <v>       0.00000000       0.75000000       0.50000000 </v>
   <v>       0.50000000       0.75000000       0.50000000 </v>
   <v>       0.37500000       0.37500000       0.37500000 </v>
   <v>       0.87500000       0.37500000       0.37500000 </v>
   <v>       0.37500000       0.87500000       0.37500000 </v>
   <v>       0.87500000       0.87500000       0.37500000 </v>
   <v>       0.37500000       0.37500000       0.87500000 </v>
   <v>       0.87500000       0.37500000       0.87500000 </v>
   <v>       0.37500000       0.87500000       0.87500000 </v>
   <v>       0.87500000       0.87500000       0.87500000 </v>
   <v>       0.25000000       0.00000000       0.00000000 </v>
   <v>       0.75000000       0.00000000       0.00000000 </v>
   <v>       0.25000000       0.50000000       0.00000000 </v>
   <v>       0.75000000       0.50000000       0.00000000 </v>
   <v>       0.25000000       0.00000000       0.50000000 </v>
   <v>       0.75000000       0.00000000       0.50000000 </v>
   <v>       0.25000000       0.50000000       0.50000000 </v>
   <v>       0.75000000       0.50000000       0.50000000 </v>
   <v>       0.37500000       0.12500000       0.12500000 </v>
   <v>       0.87500000       0.12500000       0.12500000 </v>
   <v>       0.37500000       0.62500000       0.12500000 </v>
   <v>       0.87500000       0.62500000       0.12500000 </v>
   <v>       0.37500000       0.12500000       0.62500000 </v>
   <v>       0.87500000       0.12500000       0.62500000 </v>
   <v>       0.37500000       0.62500000       0.62500000 </v>
   <v>       0.87500000       0.62500000       0.62500000 </v>
   <v>       0.25000000       0.25000000       0.25000000 </v>
   <v>       0.75000000       0.25000000       0.25000000 </v>
   <v>       0.25000000       0.75000000       0.25000000 </v>
   <v>       0.75000000       0.75000000       0.25000000 </v>
   <v>       0.25000000       0.25000000       0.75000000 </v>
   <v>       0.75000000       0.25000000       0.75000000 </v>
   <v>       0.25000000       0.75000000       0.75000000 </v>
   <v>       0.75000000       0.75000000       0.75000000 </v>
  </varray>
 </structure>
 <calculation>
  <scstep>
   <time name="dav">   15.74   15.76</time>
   <time name="total">   15.88   15.96</time>
   <energy>
    <i name="alphaZ">    781.53710078 </i>
    <i name="ewald"> -10547.90119799 </i>
    <i name="hartreedc">   -683.74830912 </i>
    <i name="XCdc">    883.78790939 </i>
    <i name="pawpsdc">   2421.21235816 </i>
    <i name="pawaedc">  -2494.84305711 </i>
    <i name="eentropy">     -0.01717415 </i>
    <i name="bandstr">    718.88587901 </i>
    <i name="atom">   9416.14232778 </i>
    <i name="e_fr_energy">    495.05583674 </i>
    <i name="e_wo_entrp">    495.07301090 </i>
    <i name="e_0_energy">    495.06442382 </i>
   </energy>
  </scstep>
  <scstep>
   <time name="dav">   18.49   18.49</time>
   <time name="total">   18.49   18.50</time>
   <energy>
    <i name="e_fr_energy">   -537.07970025 </i>
    <i name="e_wo_entrp">   -537.07970025 </i>
    <i name="e_0_energy">   -537.07970025 </i>
   </energy>
  </scstep>
  <scstep>
   <time name="dav">   19.08   19.08</time>
   <time name="total">   19.08   19.09</time>
   <energy>
    <i name="e_fr_energy">   -581.88726121 </i>
    <i name="e_wo_entrp">   -581.88726121 </i>
    <i name="e_0_energy">   -581.88726121 </i>
   </energy>
  </scstep>
  <scstep>
   <time name="dav">   19.01   19.02</time>
   <time name="total">   19.02   19.02</time>
   <energy>
    <i name="e_fr_energy">   -582.51339950 </i>
    <i name="e_wo_entrp">   -582.51339950 </i>
    <i name="e_0_energy">   -582.51339950 </i>
   </energy>
  </scstep>
  <scstep>
   <time name="dav">   19.30   19.30</time>
   <time name="total">   19.90   19.90</time>
   <energy>
    <i name="e_fr_energy">   -582.52426436 </i>
    <i name="e_wo_entrp">   -582.52426436 </i>
    <i name="e_0_energy">   -582.52426436 </i>
   </energy>
  </scstep>
  <scstep>
   <time name="dav">   16.65   16.65</time>
   <time name="total">   17.36   17.37</time>
   <energy>
    <i name="e_fr_energy">   -573.82056623 </i>
    <i name="e_wo_entrp">   -573.82056623 </i>
    <i name="e_0_energy">   -573.82056623 </i>
   </energy>
  </scstep>
  <scstep>
   <time name="dav">   17.63   17.64</time>
   <time name="total">   18.37   18.37</time>
   <energy>
    <i name="e_fr_energy">   -570.87236220 </i>
    <i name="e_wo_entrp">   -570.87236220 </i>
    <i name="e_0_energy">   -570.87236220 </i>
   </energy>
  </scstep>
  <scstep>
   <time name="dav">   17.63   17.63</time>
   <time name="total">   18.40   18.40</time>
   <energy>
    <i name="e_fr_energy">   -570.91559329 </i>
    <i name="e_wo_entrp">   -570.91559329 </i>
    <i name="e_0_energy">   -570.91559329 </i>
   </energy>
  </scstep>
  <scstep>
   <time name="dav">   18.32   18.32</time>
   <time name="total">   19.04   19.04</time>
   <energy>
    <i name="e_fr_energy">   -570.91787091 </i>
    <i name="e_wo_entrp">   -570.91787091 </i>
    <i name="e_0_energy">   -570.91787091 </i>
   </energy>
  </scstep>
  <scstep>
   <time name="dav">   17.46   17.46</time>
   <time name="total">   18.18   18.18</time>
   <energy>
    <i name="e_fr_energy">   -570.91833723 </i>
    <i name="e_wo_entrp">   -570.91833723 </i>
    <i name="e_0_energy">   -570.91833723 </i>
   </energy>
  </scstep>
  <scstep>
   <time name="dav">   18.44   18.44</time>
   <time name="total">   19.18   19.19</time>
   <energy>
    <i name="e_fr_energy">   -570.91833830 </i>
    <i name="e_wo_entrp">   -570.91833830 </i>
    <i name="e_0_energy">   -570.91833830 </i>
   </energy>
  </scstep>
  <scstep>
   <time name="dav">   17.92   17.92</time>
   <time name="total">   18.64   18.64</time>
   <energy>
    <i name="e_fr_energy">   -570.91833915 </i>
    <i name="e_wo_entrp">   -570.91833915 </i>
    <i name="e_0_energy">   -570.91833915 </i>
   </energy>
  </scstep>
  <scstep>
   <time name="dav">   16.87   16.87</time>
   <time name="total">   17.59   17.59</time>
   <energy>
    <i name="e_fr_energy">   -570.91833924 </i>
    <i name="e_wo_entrp">   -570.91833924 </i>
    <i name="e_0_energy">   -570.91833924 </i>
   </energy>
  </scstep>
  <scstep>
   <time name="dav">   14.11   14.12</time>
   <time name="total">   14.25   14.25</time>
   <energy>
    <i name="alphaZ">    781.53710078 </i>
    <i name="ewald"> -10547.90119799 </i>
    <i name="hartreedc">   -920.51394745 </i>
    <i name="XCdc">    905.78320364 </i>
    <i name="pawpsdc">   3623.72606399 </i>
    <i name="pawaedc">  -3701.76292944 </i>
    <i name="eentropy">     -0.00000000 </i>
    <i name="bandstr">   -127.92896055 </i>
    <i name="atom">   9416.14232778 </i>
    <i name="e_fr_energy">   -570.91833923 </i>
    <i name="e_wo_entrp">   -570.91833923 </i>
    <i name="e_0_energy">   -570.91833923 </i>
   </energy>
  </scstep>
  <structure>
   <crystal>
    <varray name="basis" >
     <v>       7.53044685       0.00000000       0.00000000 </v>
     <v>       0.00000000       7.53044685       0.00000000 </v>
     <v>       0.00000000       0.00000000       7.53044685 </v>
    </varray>
    <i name="volume">    427.03379201 </i>
    <varray name="rec_basis" >
     <v>       0.13279424       0.00000000       0.00000000 </v>
     <v>       0.00000000       0.13279424       0.00000000 </v>
     <v>       0.00000000       0.00000000       0.13279424 </v>
    </varray>
   </crystal>
   <varray name="positions" >
    <v>       0.12500000       0.37500000       0.12500000 </v>
    <v>       0.62500000       0.37500000       0.12500000 </v>
    <v>       0.12500000       0.87500000       0.12500000 </v>
    <v>       0.62500000       0.87500000       0.12500000 </v>
    <v>       0.12500000       0.37500000       0.62500000 </v>
    <v>       0.62500000       0.37500000       0.62500000 </v>
    <v>       0.12500000       0.87500000       0.62500000 </v>
    <v>       0.62500000       0.87500000       0.62500000 </v>
    <v>       0.00000000       0.00000000       0.25000000 </v>
    <v>       0.50000000       0.00000000       0.25000000 </v>
    <v>       0.00000000       0.50000000       0.25000000 </v>
    <v>       0.50000000       0.50000000       0.25000000 </v>
    <v>       0.00000000       0.00000000       0.75000000 </v>
    <v>       0.50000000       0.00000000       0.75000000 </v>
    <v>       0.00000000       0.50000000       0.75000000 </v>
    <v>       0.50000000       0.50000000       0.75000000 </v>
    <v>       0.12500000       0.12500000       0.37500000 </v>
    <v>       0.62500000       0.12500000       0.37500000 </v>
    <v>       0.12500000       0.62500000       0.37500000 </v>
    <v>       0.62500000       0.62500000       0.37500000 </v>
    <v>       0.12500000       0.12500000       0.87500000 </v>
    <v>       0.62500000       0.12500000       0.87500000 </v>
    <v>       0.12500000       0.62500000       0.87500000 </v>
    <v>       0.62500000       0.62500000       0.87500000 </v>
    <v>       0.00000000       0.25000000       0.00000000 </v>
    <v>       0.50000000       0.25000000       0.00000000 </v>
    <v>       0.00000000       0.75000000       0.00000000 </v>
    <v>       0.50000000       0.75000000       0.00000000 </v>
    <v>       0.00000000       0.25000000       0.50000000 </v>
    <v>       0.50000000       0.25000000       0.50000000 </v>
    <v>       0.00000000       0.75000000       0.50000000 </v>
    <v>       0.50000000       0.75000000       0.50000000 </v>
    <v>       0.37500000       0.37500000       0.37500000 </v>
    <v>       0.87500000       0.37500000       0.37500000 </v>
    <v>       0.37500000       0.87500000       0.37500000 </v>
    <v>       0.87500000       0.87500000       0.37500000 </v>
    <v>       0.37500000       0.37500000       0.87500000 </v>
    <v>       0.87500000       0.37500000       0.87500000 </v>
    <v>       0.37500000       0.87500000       0.87500000 </v>
    <v>       0.87500000       0.87500000       0.87500000 </v>
    <v>       0.25000000       0.00000000       0.00000000 </v>
    <v>       0.75000000       0.00000000       0.00000000 </v>
    <v>       0.25000000       0.50000000       0.00000000 </v>
    <v>       0.75000000       0.50000000       0.00000000 </v>
    <v>       0.25000000       0.00000000       0.50000000 </v>
    <v>       0.75000000       0.00000000       0.50000000 </v>
    <v>       0.25000000       0.50000000       0.50000000 </v>
    <v>       0.75000000       0.50000000       0.50000000 </v>
    <v>       0.37500000       0.12500000       0.12500000 </v>
    <v>       0.87500000       0.12500000       0.12500000 </v>
    <v>       0.37500000       0.62500000       0.12500000 </v>
    <v>       0.87500000       0.62500000       0.12500000 </v>
    <v>       0.37500000       0.12500000       0.62500000 </v>
    <v>       0.87500000       0.12500000       0.62500000 </v>
    <v>       0.37500000       0.62500000       0.62500000 </v>
    <v>       0.87500000       0.62500000       0.62500000 </v>
    <v>       0.25000000       0.25000000       0.25000000 </v>
    <v>       0.75000000       0.25000000       0.25000000 </v>
    <v>       0.25000000       0.75000000       0.25000000 </v>
    <v>       0.75000000       0.75000000       0.25000000 </v>
    <v>       0.25000000       0.25000000       0.75000000 </v>
    <v>       0.75000000       0.25000000       0.75000000 </v>
    <v>       0.25000000       0.75000000       0.75000000 </v>
    <v>       0.75000000       0.75000000       0.75000000 </v>
   </varray>
  </structure>
  <varray name="forces" >
   <v>      -0.00000000      -0.00000000      -0.00000000 </v>
   <v>      -0.00000000      -0.00000000      -0.00000000 </v>
   <v>      -0.00000000      -0.00000000      -0.00000000 </v>
   <v>      -0.00000000      -0.00000000      -0.00000000 </v>
   <v>      -0.00000000      -0.00000000      -0.00000000 </v>
   <v>      -0.00000000      -0.00000000      -0.00000000 </v>
   <v>      -0.00000000      -0.00000000      -0.00000000 </v>
   <v>       0.00000000      -0.00000000      -0.00000000 </v>
   <v>       0.00000000      -0.00000000       0.00000000 </v>
   <v>       0.00000000      -0.00000000       0.00000000 </v>
   <v>       0.00000000      -0.00000000       0.00000000 </v>
   <v>       0.00000000       0.00000000       0.00000000 </v>
   <v>       0.00000000       0.00000000       0.00000000 </v>
   <v>      -0.00000000       0.00000000       0.00000000 </v>
   <v>      -0.00000000       0.00000000       0.00000000 </v>
   <v>       0.00000000       0.00000000       0.00000000 </v>
   <v>       0.00000000      -0.00000000      -0.00000000 </v>
   <v>      -0.00000000      -0.00000000      -0.00000000 </v>
   <v>      -0.00000000      -0.00000000      -0.00000000 </v>
   <v>      -0.00000000      -0.00000000      -0.00000000 </v>
   <v>      -0.00000000       0.00000000      -0.00000000 </v>
   <v>      -0.00000000      -0.00000000      -0.00000000 </v>
   <v>      -0.00000000      -0.00000000      -0.00000000 </v>
   <v>      -0.00000000      -0.00000000      -0.00000000 </v>
   <v>       0.00000000       0.00000000       0.00000000 </v>
   <v>      -0.00000000       0.00000000       0.00000000 </v>
   <v>       0.00000000       0.00000000       0.00000000 </v>
   <v>       0.00000000       0.00000000       0.00000000 </v>
   <v>       0.00000000       0.00000000       0.00000000 </v>
   <v>       0.00000000       0.00000000       0.00000000 </v>
   <v>      -0.00000000       0.00000000       0.00000000 </v>
   <v>       0.00000000       0.00000000       0.00000000 </v>
   <v>       0.00000000      -0.00000000      -0.00000000 </v>
   <v>      -0.00000000      -0.00000000      -0.00000000 </v>
   <v>      -0.00000000      -0.00000000      -0.00000000 </v>
   <v>      -0.00000000      -0.00000000      -0.00000000 </v>
   <v>      -0.00000000      -0.00000000      -0.00000000 </v>
   <v>      -0.00000000      -0.00000000      -0.00000000 </v>
   <v>      -0.00000000      -0.00000000      -0.00000000 </v>
   <v>      -0.00000000      -0.00000000      -0.00000000 </v>
   <v>       0.00000000       0.00000000       0.00000000 </v>
   <v>       0.00000000       0.00000000       0.00000000 </v>
   <v>       0.00000000      -0.00000000       0.00000000 </v>
   <v>       0.00000000       0.00000000       0.00000000 </v>
   <v>      -0.00000000       0.00000000       0.00000000 </v>
   <v>       0.00000000       0.00000000       0.00000000 </v>
   <v>       0.00000000       0.00000000       0.00000000 </v>
   <v>       0.00000000       0.00000000       0.00000000 </v>
   <v>      -0.00000000      -0.00000000      -0.00000000 </v>
   <v>      -0.00000000       0.00000000      -0.00000000 </v>
   <v>      -0.00000000      -0.00000000      -0.00000000 </v>
   <v>      -0.00000000      -0.00000000      -0.00000000 </v>
   <v>      -0.00000000      -0.00000000      -0.00000000 </v>
   <v>       0.00000000      -0.00000000      -0.00000000 </v>
   <v>      -0.00000000      -0.00000000      -0.00000000 </v>
   <v>      -0.00000000      -0.00000000      -0.00000000 </v>
   <v>       0.00000000       0.00000000       0.00000000 </v>
   <v>       0.00000000       0.00000000       0.00000000 </v>
   <v>       0.00000000      -0.00000000       0.00000000 </v>
   <v>       0.00000000       0.00000000       0.00000000 </v>
   <v>       0.00000000       0.00000000       0.00000000 </v>
   <v>       0.00000000       0.00000000       0.00000000 </v>
   <v>      -0.00000000       0.00000000       0.00000000 </v>
   <v>       0.00000000       0.00000000       0.00000000 </v>
  </varray>
  <varray name="stress" >
   <v>    -544.18026826      -0.00000000       0.00000000 </v>
   <v>       0.00000000    -544.18026826       0.00000000 </v>
   <v>      -0.00000000       0.00000000    -544.18026826 </v>
  </varray>
  <energy>
   <i name="e_fr_energy">   -570.91833923 </i>
   <i name="e_wo_entrp">   -570.91833923 </i>
   <i name="e_0_energy">     -0.00000000 </i>
  </energy>
  <kpoints>
   <generation param="Gamma">
    <v type="int" name="divisions">       6        6        6 </v>
    <v name="usershift">      0.00000000       0.00000000       0.00000000 </v>
    <v name="genvec1">      0.16666667       0.00000000       0.00000000 </v>
    <v name="genvec2">      0.00000000       0.16666667       0.00000000 </v>
    <v name="genvec3">      0.00000000       0.00000000       0.16666667 </v>
    <v name="shift">      0.00000000       0.00000000       0.00000000 </v>
   </generation>
   <varray name="kpointlist" >
    <v>       0.00000000       0.00000000       0.00000000 </v>
    <v>       0.16666667       0.00000000       0.00000000 </v>
    <v>       0.33333333       0.00000000       0.00000000 </v>
    <v>       0.50000000       0.00000000       0.00000000 </v>
    <v>       0.00000000       0.16666667       0.00000000 </v>
    <v>       0.16666667       0.16666667       0.00000000 </v>
    <v>       0.33333333       0.16666667       0.00000000 </v>
    <v>       0.50000000       0.16666667       0.00000000 </v>
    <v>       0.00000000       0.33333333       0.00000000 </v>
    <v>       0.16666667       0.33333333       0.00000000 </v>
    <v>       0.33333333       0.33333333       0.00000000 </v>
    <v>       0.50000000       0.33333333       0.00000000 </v>
    <v>       0.00000000       0.50000000       0.00000000 </v>
    <v>       0.16666667       0.50000000       0.00000000 </v>
    <v>       0.33333333       0.50000000       0.00000000 </v>
    <v>       0.50000000       0.50000000       0.00000000 </v>
    <v>       0.00000000       0.16666667       0.16666667 </v>
    <v>       0.16666667       0.16666667       0.16666667 </v>
    <v>       0.33333333       0.16666667       0.16666667 </v>
    <v>       0.50000000       0.16666667       0.16666667 </v>
    <v>       0.00000000       0.33333333       0.16666667 </v>
    <v>       0.16666667       0.33333333       0.16666667 </v>
    <v>       0.33333333       0.33333333       0.16666667 </v>
    <v>       0.50000000       0.33333333       0.16666667 </v>
    <v>       0.00000000       0.50000000       0.16666667 </v>
    <v>       0.16666667       0.50000000       0.16666667 </v>
    <v>       0.33333333       0.50000000       0.16666667 </v>
    <v>       0.50000000       0.50000000       0.16666667 </v>
    <v>       0.00000000      -0.33333333       0.16666667 </v>
    <v>       0.16666667      -0.33333333       0.16666667 </v>
    <v>       0.33333333      -0.33333333       0.16666667 </v>
    <v>       0.50000000      -0.33333333       0.16666667 </v>
    <v>       0.00000000      -0.16666667       0.16666667 </v>
    <v>       0.16666667      -0.16666667       0.16666667 </v>
    <v>       0.33333333      -0.16666667       0.16666667 </v>
    <v>       0.50000000      -0.16666667       0.16666667 </v>
    <v>       0.00000000       0.33333333       0.33333333 </v>
    <v>       0.16666667       0.33333333       0.33333333 </v>
    <v>       0.33333333       0.33333333       0.33333333 </v>
    <v>       0.50000000       0.33333333       0.33333333 </v>
    <v>       0.00000000       0.50000000       0.33333333 </v>
    <v>       0.16666667       0.50000000       0.33333333 </v>
    <v>       0.33333333       0.50000000       0.33333333 </v>
    <v>       0.50000000       0.50000000       0.33333333 </v>
    <v>       0.00000000      -0.33333333       0.33333333 </v>
    <v>       0.16666667      -0.33333333       0.33333333 </v>
    <v>       0.33333333      -0.33333333       0.33333333 </v>
    <v>       0.50000000      -0.33333333       0.33333333 </v>
    <v>       0.00000000       0.50000000       0.50000000 </v>
    <v>       0.16666667       0.50000000       0.50000000 </v>
    <v>       0.33333333       0.50000000       0.50000000 </v>
    <v>       0.50000000       0.50000000       0.50000000 </v>
   </varray>
   <varray name="weights" >
    <v>       0.00462963 </v>
    <v>       0.00925926 </v>
    <v>       0.00925926 </v>
    <v>       0.00462963 </v>
    <v>       0.01851852 </v>
    <v>       0.03703704 </v>
    <v>       0.03703704 </v>
    <v>       0.01851852 </v>
    <v>       0.01851852 </v>
    <v>       0.03703704 </v>
    <v>       0.03703704 </v>
    <v>       0.01851852 </v>
    <v>       0.00925926 </v>
    <v>       0.01851852 </v>
    <v>       0.01851852 </v>
    <v>       0.00925926 </v>
    <v>       0.00925926 </v>
    <v>       0.01851852 </v>
    <v>       0.01851852 </v>
    <v>       0.00925926 </v>
    <v>       0.01851852 </v>
    <v>       0.03703704 </v>
    <v>       0.03703704 </v>
    <v>       0.01851852 </v>
    <v>       0.01851852 </v>
    <v>       0.03703704 </v>
    <v>       0.03703704 </v>
    <v>       0.01851852 </v>
    <v>       0.01851852 </v>
    <v>       0.03703704 </v>
    <v>       0.03703704 </v>
    <v>       0.01851852 </v>
    <v>       0.00925926 </v>
    <v>       0.01851852 </v>
    <v>       0.01851852 </v>
    <v>       0.00925926 </v>
    <v>       0.00925926 </v>
    <v>       0.01851852 </v>
    <v>       0.01851852 </v>
    <v>       0.00925926 </v>
    <v>       0.01851852 </v>
    <v>       0.03703704 </v>
    <v>       0.03703704 </v>
    <v>       0.01851852 </v>
    <v>       0.00925926 </v>
    <v>       0.01851852 </v>
    <v>       0.01851852 </v>
    <v>       0.00925926 </v>
    <v>       0.00462963 </v>
    <v>       0.00925926 </v>
    <v>       0.00925926 </v>
    <v>       0.00462963 </v>
   </varray>
  </kpoints>
  <scstep>
   <time name="total">   51.98   51.98</time>
   <energy>
    <i name="e_fr_energy">   -337.30602660 </i>
    <i name="e_wo_entrp">   -337.30602660 </i>
    <i name="e_0_energy">   -337.30602660 </i>
   </energy>
  </scstep>
  <scstep>
   <time name="total">   37.01   37.01</time>
   <energy>
    <i name="e_fr_energy">   -295.32741024 </i>
    <i name="e_wo_entrp">   -295.32741024 </i>
    <i name="e_0_energy">   -295.32741024 </i>
   </energy>
  </scstep>
  <scstep>
   <time name="total">   38.70   38.71</time>
   <energy>
    <i name="e_fr_energy">   -295.31988570 </i>
    <i name="e_wo_entrp">   -295.31988570 </i>
    <i name="e_0_energy">   -295.31988570 </i>
   </energy>
  </scstep>
  <scstep>
   <time name="total">   38.69   38.70</time>
   <energy>
    <i name="e_fr_energy">   -295.72011984 </i>
    <i name="e_wo_entrp">   -295.72011984 </i>
    <i name="e_0_energy">   -295.72011984 </i>
   </energy>
  </scstep>
  <scstep>
   <time name="total">   39.38   39.38</time>
   <energy>
    <i name="e_fr_energy">   -295.83557242 </i>
    <i name="e_wo_entrp">   -295.83557242 </i>
    <i name="e_0_energy">   -295.83557242 </i>
   </energy>
  </scstep>
  <scstep>
   <time name="total">   39.81   39.81</time>
   <energy>
    <i name="e_fr_energy">   -295.78804048 </i>
    <i name="e_wo_entrp">   -295.78804048 </i>
    <i name="e_0_energy">   -295.78804048 </i>
   </energy>
  </scstep>
  <scstep>
   <time name="total">   39.02   39.03</time>
   <energy>
    <i name="e_fr_energy">   -295.76819794 </i>
    <i name="e_wo_entrp">   -295.76819794 </i>
    <i name="e_0_energy">   -295.76819794 </i>
   </energy>
  </scstep>
  <scstep>
   <time name="total">   40.41   40.42</time>
   <energy>
    <i name="e_fr_energy">   -295.76680103 </i>
    <i name="e_wo_entrp">   -295.76680103 </i>
    <i name="e_0_energy">   -295.76680103 </i>
   </energy>
  </scstep>
  <scstep>
   <time name="total">   41.65   41.65</time>
   <energy>
    <i name="e_fr_energy">   -295.76642197 </i>
    <i name="e_wo_entrp">   -295.76642197 </i>
    <i name="e_0_energy">   -295.76642197 </i>
   </energy>
  </scstep>
  <scstep>
   <time name="total">   42.33   42.34</time>
   <energy>
    <i name="e_fr_energy">   -295.76658353 </i>
    <i name="e_wo_entrp">   -295.76658353 </i>
    <i name="e_0_energy">   -295.76658353 </i>
   </energy>
  </scstep>
  <scstep>
   <time name="total">   42.42   42.43</time>
   <energy>
    <i name="e_fr_energy">   -295.76675806 </i>
    <i name="e_wo_entrp">   -295.76675806 </i>
    <i name="e_0_energy">   -295.76675806 </i>
   </energy>
  </scstep>
  <kpoints>
   <generation param="Gamma">
    <v type="int" name="divisions">       6        6        6 </v>
    <v name="usershift">      0.00000000       0.00000000       0.00000000 </v>
    <v name="genvec1">      0.16666667       0.00000000       0.00000000 </v>
    <v name="genvec2">      0.00000000       0.16666667       0.00000000 </v>
    <v name="genvec3">      0.00000000       0.00000000       0.16666667 </v>
    <v name="shift">      0.00000000       0.00000000       0.00000000 </v>
   </generation>
   <varray name="kpointlist" >
    <v>       0.00000000       0.00000000       0.00000000 </v>
    <v>       0.16666667       0.00000000       0.00000000 </v>
    <v>       0.33333333       0.00000000       0.00000000 </v>
    <v>       0.50000000       0.00000000       0.00000000 </v>
    <v>       0.16666667       0.16666667       0.00000000 </v>
    <v>       0.33333333       0.16666667       0.00000000 </v>
    <v>       0.50000000       0.16666667       0.00000000 </v>
    <v>       0.33333333       0.33333333       0.00000000 </v>
    <v>       0.50000000       0.33333333       0.00000000 </v>
    <v>       0.50000000       0.50000000       0.00000000 </v>
    <v>       0.16666667       0.16666667       0.16666667 </v>
    <v>       0.33333333       0.16666667       0.16666667 </v>
    <v>       0.50000000       0.16666667       0.16666667 </v>
    <v>       0.33333333       0.33333333       0.16666667 </v>
    <v>       0.50000000       0.33333333       0.16666667 </v>
    <v>       0.50000000       0.50000000       0.16666667 </v>
    <v>       0.33333333       0.33333333       0.33333333 </v>
    <v>       0.50000000       0.33333333       0.33333333 </v>
    <v>       0.50000000       0.50000000       0.33333333 </v>
    <v>       0.50000000       0.50000000       0.50000000 </v>
   </varray>
   <varray name="weights" >
    <v>       0.00462963 </v>
    <v>       0.02777778 </v>
    <v>       0.02777778 </v>
    <v>       0.01388889 </v>
    <v>       0.05555556 </v>
    <v>       0.11111111 </v>
    <v>       0.05555556 </v>
    <v>       0.05555556 </v>
    <v>       0.05555556 </v>
    <v>       0.01388889 </v>
    <v>       0.03703704 </v>
    <v>       0.11111111 </v>
    <v>       0.05555556 </v>
    <v>       0.11111111 </v>
    <v>       0.11111111 </v>
    <v>       0.02777778 </v>
    <v>       0.03703704 </v>
    <v>       0.05555556 </v>
    <v>       0.02777778 </v>
    <v>       0.00462963 </v>
   </varray>
  </kpoints>
  <dynmat>
   <varray name="hessian" >
    <v>      -2.63101218      -0.00000000      -0.00000000       0.00986483       0.00000000       0.00000000       0.00732846       0.00000000       0.00000000       0.00586636       0.00000000      -0.00000000       0.00732846       0.00000000       0.00000000       0.00586636       0.00000000       0.00000000      -0.04485575       0.00000000       0.00000000       0.00356124      -0.00000000      -0.00000000      -0.01139485      -0.00678086      -0.00068961       0.00496479      -0.00571122      -0.01402595       0.54804340       0.00254221       0.00254221      -0.00457965      -0.00678086      -0.00678086       0.02711792      -0.01402595      -0.01402595      -0.00248265      -0.00256789      -0.00256789      -0.01139485      -0.00068961      -0.00678086       0.00496479      -0.01402595      -0.00571122      -0.09948963       0.04693712      -0.04693712      -0.00308959       0.00236281      -0.00236281      -0.09948963       0.04693712       0.04693712      -0.00308959       0.00236281       0.00236281      -0.09948963      -0.04693712      -0.04693712      -0.00308959      -0.00236281      -0.00236281      -0.09948963      -0.04693712       0.04693712      -0.00308959      -0.00236281       0.00236281       0.54804340      -0.00254221      -0.00254221      -0.00457965       0.00678086       0.00678086      -0.01139485       0.00678086       0.00068961       0.00496479       0.00571122       0.01402595      -0.01139485       0.00068961       0.00678086       0.00496479       0.01402595       0.00571122       0.02711792       0.01402595       0.01402595      -0.00248265       0.00256789       0.00256789       0.09724392      -0.04693712       0.10008417       0.09724392      -0.04693712      -0.10008417       0.00593277      -0.00236281      -0.00676578       0.00593277      -0.00236281       0.00676578       0.09724392       0.04693712      -0.10008417       0.09724392       0.04693712       0.10008417       0.00593277       0.00236281       0.00676578       0.00593277       0.00236281      -0.00676578      -0.01139485       0.00678086      -0.00068961       0.00496479       0.00571122      -0.01402595       0.54804340      -0.00254221       0.00254221      -0.00457965       0.00678086      -0.00678086       0.02711792       0.01402595      -0.01402595      -0.00248265       0.00256789      -0.00256789      -0.01139485       0.00068961      -0.00678086       0.00496479       0.01402595      -0.00571122       0.09724392      -0.10008417       0.04693712       0.09724392       0.10008417       0.04693712       0.09724392       0.10008417      -0.04693712       0.09724392      -0.10008417      -0.04693712       0.00593277       0.00676578       0.00236281       0.00593277      -0.00676578       0.00236281       0.00593277      -0.00676578      -0.00236281       0.00593277       0.00676578      -0.00236281       0.54804340       0.00254221      -0.00254221      -0.00457965      -0.00678086       0.00678086      -0.01139485      -0.00678086       0.00068961       0.00496479      -0.00571122       0.01402595      -0.01139485      -0.00068961       0.00678086       0.00496479      -0.01402595       0.00571122       0.02711792      -0.01402595       0.01402595      -0.00248265      -0.00256789       0.00256789 </v>
    <v>      -0.00000000      -2.63101218      -0.00000000       0.00000000       0.00732846       0.00000000       0.00000000       0.00986483       0.00000000       0.00000000       0.00586636      -0.00000000       0.00000000       0.00732846       0.00000000       0.00000000      -0.04485575       0.00000000       0.00000000       0.00586636       0.00000000      -0.00000000       0.00356124      -0.00000000      -0.00678086      -0.00457965       0.00678086      -0.00571122       0.00496479       0.01402595       0.00254221       0.54804340      -0.00254221      -0.00678086      -0.01139485       0.00068961      -0.01402595       0.00496479       0.00571122      -0.00256789      -0.00248265       0.00256789      -0.00068961      -0.01139485       0.00678086      -0.01402595       0.02711792       0.01402595      -0.04693712       0.09724392      -0.10008417      -0.00236281       0.00593277       0.00676578      -0.04693712       0.09724392       0.10008417      -0.00236281       0.00593277      -0.00676578       0.04693712       0.09724392       0.10008417       0.00236281       0.00593277      -0.00676578       0.04693712       0.09724392      -0.10008417       0.00236281       0.00593277       0.00676578      -0.00254221       0.54804340      -0.00254221       0.00678086      -0.01139485       0.00068961       0.00678086      -0.00457965       0.00678086       0.00571122       0.00496479       0.01402595       0.00068961      -0.01139485       0.00678086       0.01402595       0.02711792       0.01402595       0.01402595       0.00496479       0.00571122       0.00256789      -0.00248265       0.00256789       0.04693712      -0.09948963       0.04693712       0.04693712      -0.09948963      -0.04693712       0.00236281      -0.00308959       0.00236281       0.00236281      -0.00308959      -0.00236281      -0.04693712      -0.09948963       0.04693712      -0.04693712      -0.09948963      -0.04693712      -0.00236281      -0.00308959       0.00236281      -0.00236281      -0.00308959      -0.00236281       0.00678086      -0.00457965      -0.00678086       0.00571122       0.00496479      -0.01402595      -0.00254221       0.54804340       0.00254221       0.00678086      -0.01139485      -0.00068961       0.01402595       0.00496479      -0.00571122       0.00256789      -0.00248265      -0.00256789       0.00068961      -0.01139485      -0.00678086       0.01402595       0.02711792      -0.01402595      -0.10008417       0.09724392      -0.04693712       0.10008417       0.09724392       0.04693712       0.10008417       0.09724392      -0.04693712      -0.10008417       0.09724392       0.04693712       0.00676578       0.00593277      -0.00236281      -0.00676578       0.00593277       0.00236281      -0.00676578       0.00593277      -0.00236281       0.00676578       0.00593277       0.00236281       0.00254221       0.54804340       0.00254221      -0.00678086      -0.01139485      -0.00068961      -0.00678086      -0.00457965      -0.00678086      -0.00571122       0.00496479      -0.01402595      -0.00068961      -0.01139485      -0.00678086      -0.01402595       0.02711792      -0.01402595      -0.01402595       0.00496479      -0.00571122      -0.00256789      -0.00248265      -0.00256789 </v>
    <v>      -0.00000000      -0.00000000      -2.63101218       0.00000000       0.00000000       0.00732846       0.00000000       0.00000000       0.00732846      -0.00000000      -0.00000000      -0.04485575       0.00000000       0.00000000       0.00986483       0.00000000       0.00000000       0.00586636       0.00000000       0.00000000       0.00586636      -0.00000000      -0.00000000       0.00356124      -0.00068961       0.00678086      -0.01139485      -0.01402595       0.01402595       0.02711792       0.00254221      -0.00254221       0.54804340      -0.00678086       0.00068961      -0.01139485      -0.01402595       0.00571122       0.00496479      -0.00256789       0.00256789      -0.00248265      -0.00678086       0.00678086      -0.00457965      -0.00571122       0.01402595       0.00496479       0.04693712      -0.10008417       0.09724392       0.00236281       0.00676578       0.00593277      -0.04693712       0.10008417       0.09724392      -0.00236281      -0.00676578       0.00593277       0.04693712       0.10008417       0.09724392       0.00236281      -0.00676578       0.00593277      -0.04693712      -0.10008417       0.09724392      -0.00236281       0.00676578       0.00593277      -0.00254221      -0.00254221       0.54804340       0.00678086       0.00068961      -0.01139485       0.00068961       0.00678086      -0.01139485       0.01402595       0.01402595       0.02711792       0.00678086       0.00678086      -0.00457965       0.00571122       0.01402595       0.00496479       0.01402595       0.00571122       0.00496479       0.00256789       0.00256789      -0.00248265       0.10008417      -0.04693712       0.09724392      -0.10008417       0.04693712       0.09724392      -0.00676578      -0.00236281       0.00593277       0.00676578       0.00236281       0.00593277      -0.10008417      -0.04693712       0.09724392       0.10008417       0.04693712       0.09724392       0.00676578      -0.00236281       0.00593277      -0.00676578       0.00236281       0.00593277      -0.00068961      -0.00678086      -0.01139485      -0.01402595      -0.01402595       0.02711792       0.00254221       0.00254221       0.54804340      -0.00678086      -0.00068961      -0.01139485      -0.01402595      -0.00571122       0.00496479      -0.00256789      -0.00256789      -0.00248265      -0.00678086      -0.00678086      -0.00457965      -0.00571122      -0.01402595       0.00496479      -0.04693712       0.04693712      -0.09948963      -0.04693712      -0.04693712      -0.09948963       0.04693712       0.04693712      -0.09948963       0.04693712      -0.04693712      -0.09948963      -0.00236281       0.00236281      -0.00308959      -0.00236281      -0.00236281      -0.00308959       0.00236281       0.00236281      -0.00308959       0.00236281      -0.00236281      -0.00308959      -0.00254221       0.00254221       0.54804340       0.00678086      -0.00068961      -0.01139485       0.00068961      -0.00678086      -0.01139485       0.01402595      -0.01402595       0.02711792       0.00678086      -0.00678086      -0.00457965       0.00571122      -0.01402595       0.00496479       0.01402595      -0.00571122       0.00496479       0.00256789      -0.00256789      -0.00248265 </v>
    <v>       0.00986483       0.00000000       0.00000000      -2.63101218      -0.00000000      -0.00000000       0.00586636       0.00000000      -0.00000000       0.00732846       0.00000000       0.00000000       0.00586636       0.00000000       0.00000000       0.00732846       0.00000000       0.00000000       0.00356124      -0.00000000      -0.00000000      -0.04485575       0.00000000       0.00000000       0.00496479      -0.00571122      -0.01402595      -0.01139485      -0.00678086      -0.00068961      -0.00457965      -0.00678086      -0.00678086       0.54804340       0.00254221       0.00254221      -0.00248265      -0.00256789      -0.00256789       0.02711792      -0.01402595      -0.01402595       0.00496479      -0.01402595      -0.00571122      -0.01139485      -0.00068961      -0.00678086      -0.00308959       0.00236281      -0.00236281      -0.09948963       0.04693712      -0.04693712      -0.00308959       0.00236281       0.00236281      -0.09948963       0.04693712       0.04693712      -0.00308959      -0.00236281      -0.00236281      -0.09948963      -0.04693712      -0.04693712      -0.00308959      -0.00236281       0.00236281      -0.09948963      -0.04693712       0.04693712      -0.00457965       0.00678086       0.00678086       0.54804340      -0.00254221      -0.00254221       0.00496479       0.00571122       0.01402595      -0.01139485       0.00678086       0.00068961       0.00496479       0.01402595       0.00571122      -0.01139485       0.00068961       0.00678086      -0.00248265       0.00256789       0.00256789       0.02711792       0.01402595       0.01402595       0.09724392      -0.04693712      -0.10008417       0.09724392      -0.04693712       0.10008417       0.00593277      -0.00236281       0.00676578       0.00593277      -0.00236281      -0.00676578       0.09724392       0.04693712       0.10008417       0.09724392       0.04693712      -0.10008417       0.00593277       0.00236281      -0.00676578       0.00593277       0.00236281       0.00676578       0.00496479       0.00571122      -0.01402595      -0.01139485       0.00678086      -0.00068961      -0.00457965       0.00678086      -0.00678086       0.54804340      -0.00254221       0.00254221      -0.00248265       0.00256789      -0.00256789       0.02711792       0.01402595      -0.01402595       0.00496479       0.01402595      -0.00571122      -0.01139485       0.00068961      -0.00678086       0.09724392       0.10008417       0.04693712       0.09724392      -0.10008417       0.04693712       0.09724392      -0.10008417      -0.04693712       0.09724392       0.10008417      -0.04693712       0.00593277      -0.00676578       0.00236281       0.00593277       0.00676578       0.00236281       0.00593277       0.00676578      -0.00236281       0.00593277      -0.00676578      -0.00236281      -0.00457965      -0.00678086       0.00678086       0.54804340       0.00254221      -0.00254221       0.00496479      -0.00571122       0.01402595      -0.01139485      -0.00678086       0.00068961       0.00496479      -0.01402595       0.00571122      -0.01139485      -0.00068961       0.00678086      -0.00248265      -0.00256789       0.00256789       0.02711792      -0.01402595       0.01402595 </v>
    <v>       0.00000000       0.00732846       0.00000000      -0.00000000      -2.63101218      -0.00000000       0.00000000       0.00586636      -0.00000000       0.00000000       0.00986483       0.00000000       0.00000000      -0.04485575       0.00000000       0.00000000       0.00732846       0.00000000      -0.00000000       0.00356124      -0.00000000       0.00000000       0.00586636       0.00000000      -0.00571122       0.00496479       0.01402595      -0.00678086      -0.00457965       0.00678086      -0.00678086      -0.01139485       0.00068961       0.00254221       0.54804340      -0.00254221      -0.00256789      -0.00248265       0.00256789      -0.01402595       0.00496479       0.00571122      -0.01402595       0.02711792       0.01402595      -0.00068961      -0.01139485       0.00678086      -0.00236281       0.00593277       0.00676578      -0.04693712       0.09724392      -0.10008417      -0.00236281       0.00593277      -0.00676578      -0.04693712       0.09724392       0.10008417       0.00236281       0.00593277      -0.00676578       0.04693712       0.09724392       0.10008417       0.00236281       0.00593277       0.00676578       0.04693712       0.09724392      -0.10008417       0.00678086      -0.01139485       0.00068961      -0.00254221       0.54804340      -0.00254221       0.00571122       0.00496479       0.01402595       0.00678086      -0.00457965       0.00678086       0.01402595       0.02711792       0.01402595       0.00068961      -0.01139485       0.00678086       0.00256789      -0.00248265       0.00256789       0.01402595       0.00496479       0.00571122       0.04693712      -0.09948963      -0.04693712       0.04693712      -0.09948963       0.04693712       0.00236281      -0.00308959      -0.00236281       0.00236281      -0.00308959       0.00236281      -0.04693712      -0.09948963      -0.04693712      -0.04693712      -0.09948963       0.04693712      -0.00236281      -0.00308959      -0.00236281      -0.00236281      -0.00308959       0.00236281       0.00571122       0.00496479      -0.01402595       0.00678086      -0.00457965      -0.00678086       0.00678086      -0.01139485      -0.00068961      -0.00254221       0.54804340       0.00254221       0.00256789      -0.00248265      -0.00256789       0.01402595       0.00496479      -0.00571122       0.01402595       0.02711792      -0.01402595       0.00068961      -0.01139485      -0.00678086       0.10008417       0.09724392       0.04693712      -0.10008417       0.09724392      -0.04693712      -0.10008417       0.09724392       0.04693712       0.10008417       0.09724392      -0.04693712      -0.00676578       0.00593277       0.00236281       0.00676578       0.00593277      -0.00236281       0.00676578       0.00593277       0.00236281      -0.00676578       0.00593277      -0.00236281      -0.00678086      -0.01139485      -0.00068961       0.00254221       0.54804340       0.00254221      -0.00571122       0.00496479      -0.01402595      -0.00678086      -0.00457965      -0.00678086      -0.01402595       0.02711792      -0.01402595      -0.00068961      -0.01139485      -0.00678086      -0.00256789      -0.00248265      -0.00256789      -0.01402595       0.00496479      -0.00571122 </v>
    <v>       0.00000000       0.00000000       0.00732846      -0.00000000      -0.00000000      -2.63101218      -0.00000000      -0.00000000      -0.04485575       0.00000000       0.00000000       0.00732846       0.00000000       0.00000000       0.00586636       0.00000000       0.00000000       0.00986483      -0.00000000      -0.00000000       0.00356124       0.00000000       0.00000000       0.00586636      -0.01402595       0.01402595       0.02711792      -0.00068961       0.00678086      -0.01139485      -0.00678086       0.00068961      -0.01139485       0.00254221      -0.00254221       0.54804340      -0.00256789       0.00256789      -0.00248265      -0.01402595       0.00571122       0.00496479      -0.00571122       0.01402595       0.00496479      -0.00678086       0.00678086      -0.00457965       0.00236281       0.00676578       0.00593277       0.04693712      -0.10008417       0.09724392      -0.00236281      -0.00676578       0.00593277      -0.04693712       0.10008417       0.09724392       0.00236281      -0.00676578       0.00593277       0.04693712       0.10008417       0.09724392      -0.00236281       0.00676578       0.00593277      -0.04693712      -0.10008417       0.09724392       0.00678086       0.00068961      -0.01139485      -0.00254221      -0.00254221       0.54804340       0.01402595       0.01402595       0.02711792       0.00068961       0.00678086      -0.01139485       0.00571122       0.01402595       0.00496479       0.00678086       0.00678086      -0.00457965       0.00256789       0.00256789      -0.00248265       0.01402595       0.00571122       0.00496479      -0.10008417       0.04693712       0.09724392       0.10008417      -0.04693712       0.09724392       0.00676578       0.00236281       0.00593277      -0.00676578      -0.00236281       0.00593277       0.10008417       0.04693712       0.09724392      -0.10008417      -0.04693712       0.09724392      -0.00676578       0.00236281       0.00593277       0.00676578      -0.00236281       0.00593277      -0.01402595      -0.01402595       0.02711792      -0.00068961      -0.00678086      -0.01139485      -0.00678086      -0.00068961      -0.01139485       0.00254221       0.00254221       0.54804340      -0.00256789      -0.00256789      -0.00248265      -0.01402595      -0.00571122       0.00496479      -0.00571122      -0.01402595       0.00496479      -0.00678086      -0.00678086      -0.00457965      -0.04693712      -0.04693712      -0.09948963      -0.04693712       0.04693712      -0.09948963       0.04693712      -0.04693712      -0.09948963       0.04693712       0.04693712      -0.09948963      -0.00236281      -0.00236281      -0.00308959      -0.00236281       0.00236281      -0.00308959       0.00236281      -0.00236281      -0.00308959       0.00236281       0.00236281      -0.00308959       0.00678086      -0.00068961      -0.01139485      -0.00254221       0.00254221       0.54804340       0.01402595      -0.01402595       0.02711792       0.00068961      -0.00678086      -0.01139485       0.00571122      -0.01402595       0.00496479       0.00678086      -0.00678086      -0.00457965       0.00256789      -0.00256789      -0.00248265       0.01402595      -0.00571122       0.00496479 </v>
    <v>       0.00732846       0.00000000       0.00000000       0.00586636       0.00000000      -0.00000000      -2.63101218      -0.00000000      -0.00000000       0.00986483       0.00000000       0.00000000      -0.04485575       0.00000000       0.00000000       0.00356124      -0.00000000      -0.00000000       0.00732846       0.00000000       0.00000000       0.00586636       0.00000000       0.00000000       0.54804340       0.00254221       0.00254221      -0.00457965      -0.00678086      -0.00678086      -0.01139485      -0.00678086      -0.00068961       0.00496479      -0.00571122      -0.01402595      -0.01139485      -0.00068961      -0.00678086       0.00496479      -0.01402595      -0.00571122       0.02711792      -0.01402595      -0.01402595      -0.00248265      -0.00256789      -0.00256789      -0.09948963       0.04693712       0.04693712      -0.00308959       0.00236281       0.00236281      -0.09948963       0.04693712      -0.04693712      -0.00308959       0.00236281      -0.00236281      -0.09948963      -0.04693712       0.04693712      -0.00308959      -0.00236281       0.00236281      -0.09948963      -0.04693712      -0.04693712      -0.00308959      -0.00236281      -0.00236281      -0.01139485       0.00678086       0.00068961       0.00496479       0.00571122       0.01402595       0.54804340      -0.00254221      -0.00254221      -0.00457965       0.00678086       0.00678086       0.02711792       0.01402595       0.01402595      -0.00248265       0.00256789       0.00256789      -0.01139485       0.00068961       0.00678086       0.00496479       0.01402595       0.00571122       0.00593277      -0.00236281      -0.00676578       0.00593277      -0.00236281       0.00676578       0.09724392      -0.04693712       0.10008417       0.09724392      -0.04693712      -0.10008417       0.00593277       0.00236281       0.00676578       0.00593277       0.00236281      -0.00676578       0.09724392       0.04693712      -0.10008417       0.09724392       0.04693712       0.10008417       0.54804340      -0.00254221       0.00254221      -0.00457965       0.00678086      -0.00678086      -0.01139485       0.00678086      -0.00068961       0.00496479       0.00571122      -0.01402595      -0.01139485       0.00068961      -0.00678086       0.00496479       0.01402595      -0.00571122       0.02711792       0.01402595      -0.01402595      -0.00248265       0.00256789      -0.00256789       0.09724392       0.10008417      -0.04693712       0.09724392      -0.10008417      -0.04693712       0.09724392      -0.10008417       0.04693712       0.09724392       0.10008417       0.04693712       0.00593277      -0.00676578      -0.00236281       0.00593277       0.00676578      -0.00236281       0.00593277       0.00676578       0.00236281       0.00593277      -0.00676578       0.00236281      -0.01139485      -0.00678086       0.00068961       0.00496479      -0.00571122       0.01402595       0.54804340       0.00254221      -0.00254221      -0.00457965      -0.00678086       0.00678086       0.02711792      -0.01402595       0.01402595      -0.00248265      -0.00256789       0.00256789      -0.01139485      -0.00068961       0.00678086       0.00496479      -0.01402595       0.00571122 </v>
    <v>       0.00000000       0.00986483       0.00000000       0.00000000       0.00586636      -0.00000000      -0.00000000      -2.63101218      -0.00000000       0.00000000       0.00732846       0.00000000       0.00000000       0.00586636       0.00000000      -0.00000000       0.00356124      -0.00000000       0.00000000       0.00732846       0.00000000       0.00000000      -0.04485575       0.00000000       0.00254221       0.54804340      -0.00254221      -0.00678086      -0.01139485       0.00068961      -0.00678086      -0.00457965       0.00678086      -0.00571122       0.00496479       0.01402595      -0.00068961      -0.01139485       0.00678086      -0.01402595       0.02711792       0.01402595      -0.01402595       0.00496479       0.00571122      -0.00256789      -0.00248265       0.00256789      -0.04693712       0.09724392       0.10008417      -0.00236281       0.00593277      -0.00676578      -0.04693712       0.09724392      -0.10008417      -0.00236281       0.00593277       0.00676578       0.04693712       0.09724392      -0.10008417       0.00236281       0.00593277       0.00676578       0.04693712       0.09724392       0.10008417       0.00236281       0.00593277      -0.00676578       0.00678086      -0.00457965       0.00678086       0.00571122       0.00496479       0.01402595      -0.00254221       0.54804340      -0.00254221       0.00678086      -0.01139485       0.00068961       0.01402595       0.00496479       0.00571122       0.00256789      -0.00248265       0.00256789       0.00068961      -0.01139485       0.00678086       0.01402595       0.02711792       0.01402595       0.00236281      -0.00308959       0.00236281       0.00236281      -0.00308959      -0.00236281       0.04693712      -0.09948963       0.04693712       0.04693712      -0.09948963      -0.04693712      -0.00236281      -0.00308959       0.00236281      -0.00236281      -0.00308959      -0.00236281      -0.04693712      -0.09948963       0.04693712      -0.04693712      -0.09948963      -0.04693712      -0.00254221       0.54804340       0.00254221       0.00678086      -0.01139485      -0.00068961       0.00678086      -0.00457965      -0.00678086       0.00571122       0.00496479      -0.01402595       0.00068961      -0.01139485      -0.00678086       0.01402595       0.02711792      -0.01402595       0.01402595       0.00496479      -0.00571122       0.00256789      -0.00248265      -0.00256789       0.10008417       0.09724392      -0.04693712      -0.10008417       0.09724392       0.04693712      -0.10008417       0.09724392      -0.04693712       0.10008417       0.09724392       0.04693712      -0.00676578       0.00593277      -0.00236281       0.00676578       0.00593277       0.00236281       0.00676578       0.00593277      -0.00236281      -0.00676578       0.00593277       0.00236281      -0.00678086      -0.00457965      -0.00678086      -0.00571122       0.00496479      -0.01402595       0.00254221       0.54804340       0.00254221      -0.00678086      -0.01139485      -0.00068961      -0.01402595       0.00496479      -0.00571122      -0.00256789      -0.00248265      -0.00256789      -0.00068961      -0.01139485      -0.00678086      -0.01402595       0.02711792      -0.01402595 </v>
    <v>       0.00000000       0.00000000       0.00732846      -0.00000000      -0.00000000      -0.04485575      -0.00000000      -0.00000000      -2.63101218       0.00000000       0.00000000       0.00732846       0.00000000       0.00000000       0.00586636      -0.00000000      -0.00000000       0.00356124       0.00000000       0.00000000       0.00986483       0.00000000       0.00000000       0.00586636       0.00254221      -0.00254221       0.54804340      -0.00678086       0.00068961      -0.01139485      -0.00068961       0.00678086      -0.01139485      -0.01402595       0.01402595       0.02711792      -0.00678086       0.00678086      -0.00457965      -0.00571122       0.01402595       0.00496479      -0.01402595       0.00571122       0.00496479      -0.00256789       0.00256789      -0.00248265      -0.04693712       0.10008417       0.09724392      -0.00236281      -0.00676578       0.00593277       0.04693712      -0.10008417       0.09724392       0.00236281       0.00676578       0.00593277      -0.04693712      -0.10008417       0.09724392      -0.00236281       0.00676578       0.00593277       0.04693712       0.10008417       0.09724392       0.00236281      -0.00676578       0.00593277       0.00068961       0.00678086      -0.01139485       0.01402595       0.01402595       0.02711792      -0.00254221      -0.00254221       0.54804340       0.00678086       0.00068961      -0.01139485       0.01402595       0.00571122       0.00496479       0.00256789       0.00256789      -0.00248265       0.00678086       0.00678086      -0.00457965       0.00571122       0.01402595       0.00496479      -0.00676578      -0.00236281       0.00593277       0.00676578       0.00236281       0.00593277       0.10008417      -0.04693712       0.09724392      -0.10008417       0.04693712       0.09724392       0.00676578      -0.00236281       0.00593277      -0.00676578       0.00236281       0.00593277      -0.10008417      -0.04693712       0.09724392       0.10008417       0.04693712       0.09724392       0.00254221       0.00254221       0.54804340      -0.00678086      -0.00068961      -0.01139485      -0.00068961      -0.00678086      -0.01139485      -0.01402595      -0.01402595       0.02711792      -0.00678086      -0.00678086      -0.00457965      -0.00571122      -0.01402595       0.00496479      -0.01402595      -0.00571122       0.00496479      -0.00256789      -0.00256789      -0.00248265       0.04693712       0.04693712      -0.09948963       0.04693712      -0.04693712      -0.09948963      -0.04693712       0.04693712      -0.09948963      -0.04693712      -0.04693712      -0.09948963       0.00236281       0.00236281      -0.00308959       0.00236281      -0.00236281      -0.00308959      -0.00236281       0.00236281      -0.00308959      -0.00236281      -0.00236281      -0.00308959       0.00068961      -0.00678086      -0.01139485       0.01402595      -0.01402595       0.02711792      -0.00254221       0.00254221       0.54804340       0.00678086      -0.00068961      -0.01139485       0.01402595      -0.00571122       0.00496479       0.00256789      -0.00256789      -0.00248265       0.00678086      -0.00678086      -0.00457965       0.00571122      -0.01402595       0.00496479 </v>
[...]
      </set>
     </set>
    </set>
   </array>
  </eigenvalues>
  <separator name="orbital magnetization" >
   <v name="MAGDIPOLOUT">      0.00000000      0.00000000      0.00000000</v>
  </separator>
  <dos>
   <i name="efermi">      7.84293792 </i>
   <total>
    <array>
     <dimension dim="1">gridpoints</dimension>
     <dimension dim="2">spin</dimension>
     <field>energy</field>
     <field>total</field>
     <field>integrated</field>
     <set>
      <set comment="spin 1">
       <r>   -13.3518     0.0000     0.0000 </r>
       <r>   -13.2437     0.0000     0.0000 </r>
       <r>   -13.1356     0.0000     0.0000 </r>
       <r>   -13.0275     0.0000     0.0000 </r>
       <r>   -12.9194     0.0000     0.0000 </r>
       <r>   -12.8113     0.0000     0.0000 </r>
       <r>   -12.7032     0.0000     0.0000 </r>
       <r>   -12.5951     0.0000     0.0000 </r>
       <r>   -12.4870     0.0000     0.0000 </r>
       <r>   -12.3789     0.0000     0.0000 </r>
       <r>   -12.2708     0.0000     0.0000 </r>
       <r>   -12.1627     0.0000     0.0000 </r>
       <r>   -12.0546     0.0000     0.0000 </r>
       <r>   -11.9465     0.0053     0.0006 </r>
       <r>   -11.8384     0.2784     0.0307 </r>
       <r>   -11.7303     1.3224     0.1736 </r>
       <r>   -11.6222     1.6027     0.3469 </r>
       <r>   -11.5141     3.0415     0.6757 </r>
       <r>   -11.4060     1.7913     0.8693 </r>
       <r>   -11.2979     3.8407     1.2845 </r>
       <r>   -11.1898     3.2305     1.6337 </r>
       <r>   -11.0817     4.1325     2.0805 </r>
       <r>   -10.9736     2.7653     2.3794 </r>
       <r>   -10.8655     4.9233     2.9116 </r>
       <r>   -10.7573     4.9238     3.4439 </r>
       <r>   -10.6492     5.4820     4.0365 </r>
       <r>   -10.5411     2.8280     4.3422 </r>
       <r>   -10.4330     4.9926     4.8819 </r>
       <r>   -10.3249     7.0786     5.6471 </r>
       <r>   -10.2168     6.0442     6.3005 </r>
       <r>   -10.1087     5.1297     6.8550 </r>
       <r>   -10.0006     4.4882     7.3402 </r>
       <r>    -9.8925     7.5740     8.1590 </r>
       <r>    -9.7844     5.7179     8.7771 </r>
       <r>    -9.6763     6.1952     9.4468 </r>
       <r>    -9.5682     7.4289    10.2499 </r>
       <r>    -9.4601     8.3794    11.1557 </r>
       <r>    -9.3520     6.7613    11.8867 </r>
       <r>    -9.2439     6.1102    12.5472 </r>
       <r>    -9.1358     4.5949    13.0439 </r>
       <r>    -9.0277     9.9365    14.1181 </r>
       <r>    -8.9196     8.5526    15.0426 </r>
       <r>    -8.8115    10.3029    16.1564 </r>
       <r>    -8.7034     6.7627    16.8874 </r>
       <r>    -8.5953     7.1374    17.6590 </r>
       <r>    -8.4872     8.6172    18.5905 </r>
       <r>    -8.3791     8.0593    19.4618 </r>
       <r>    -8.2710     8.2713    20.3559 </r>
       <r>    -8.1629    11.5793    21.6076 </r>
       <r>    -8.0548    11.0148    22.7984 </r>
       <r>    -7.9467     5.6608    23.4103 </r>
       <r>    -7.8386    10.3528    24.5295 </r>
       <r>    -7.7305    15.2697    26.1801 </r>
       <r>    -7.6224     8.3621    27.0841 </r>
       <r>    -7.5143     6.3953    27.7754 </r>
       <r>    -7.4062    11.4101    29.0089 </r>
       <r>    -7.2981    11.0199    30.2002 </r>
       <r>    -7.1900    12.8837    31.5929 </r>
       <r>    -7.0819    14.9949    33.2139 </r>
       <r>    -6.9738    14.0354    34.7312 </r>
       <r>    -6.8657    16.0101    36.4619 </r>
       <r>    -6.7576    10.4252    37.5889 </r>
       <r>    -6.6495     9.1959    38.5830 </r>
       <r>    -6.5414    18.7978    40.6150 </r>
       <r>    -6.4333    14.5835    42.1916 </r>
       <r>    -6.3252     7.6484    43.0184 </r>
       <r>    -6.2171    13.2742    44.4533 </r>
       <r>    -6.1090    15.7345    46.1543 </r>
       <r>    -6.0009    13.0697    47.5671 </r>
       <r>    -5.8928     9.5820    48.6030 </r>
       <r>    -5.7847    11.0251    49.7948 </r>
       <r>    -5.6766    12.6552    51.1628 </r>
       <r>    -5.5685    11.2901    52.3833 </r>
       <r>    -5.4604     4.3641    52.8551 </r>
       <r>    -5.3523    13.0351    54.2642 </r>
       <r>    -5.2442     7.2562    55.0486 </r>
       <r>    -5.1360     6.0147    55.6988 </r>
       <r>    -5.0279    12.1092    57.0078 </r>
       <r>    -4.9198    13.1124    58.4253 </r>
       <r>    -4.8117    11.4140    59.6592 </r>
       <r>    -4.7036     6.4041    60.3515 </r>
       <r>    -4.5955     3.9739    60.7811 </r>
       <r>    -4.4874     5.9290    61.4220 </r>
       <r>    -4.3793     3.3121    61.7800 </r>
       <r>    -4.2712     2.2587    62.0242 </r>
       <r>    -4.1631     4.8198    62.5452 </r>
       <r>    -4.0550    11.3463    63.7718 </r>
       <r>    -3.9469     6.8082    64.5078 </r>
       <r>    -3.8388     7.4823    65.3166 </r>
       <r>    -3.7307     8.9853    66.2880 </r>
       <r>    -3.6226     5.7735    66.9121 </r>
       <r>    -3.5145    10.3456    68.0305 </r>
       <r>    -3.4064    11.0506    69.2251 </r>
       <r>    -3.2983     7.8707    70.0759 </r>
       <r>    -3.1902     9.8705    71.1429 </r>
       <r>    -3.0821    14.3000    72.6888 </r>
       <r>    -2.9740    17.0104    74.5276 </r>
       <r>    -2.8659    48.1747    79.7354 </r>
       <r>    -2.7578    28.9980    82.8701 </r>
       <r>    -2.6497    16.4427    84.6476 </r>
       <r>    -2.5416    10.2376    85.7543 </r>
       <r>    -2.4335    14.1960    87.2889 </r>
       <r>    -2.3254    13.9840    88.8006 </r>
       <r>    -2.2173     8.6312    89.7337 </r>
       <r>    -2.1092    14.9323    91.3479 </r>
       <r>    -2.0011    14.7157    92.9387 </r>
       <r>    -1.8930    15.8346    94.6505 </r>
       <r>    -1.7849    11.5859    95.9029 </r>
       <r>    -1.6768    11.5580    97.1524 </r>
       <r>    -1.5687     9.6950    98.2004 </r>
       <r>    -1.4606    16.2340    99.9553 </r>
       <r>    -1.3525     6.8651   100.6975 </r>
       <r>    -1.2444     3.1917   101.0425 </r>
       <r>    -1.1363     7.5882   101.8628 </r>
       <r>    -1.0282     9.9386   102.9372 </r>
       <r>    -0.9201    12.5677   104.2958 </r>
       <r>    -0.8120     6.8127   105.0322 </r>
       <r>    -0.7039     7.1040   105.8002 </r>
       <r>    -0.5958     6.0774   106.4572 </r>
       <r>    -0.4877    10.5892   107.6019 </r>
       <r>    -0.3796    12.1658   108.9170 </r>
       <r>    -0.2715    16.2896   110.6780 </r>
       <r>    -0.1634     6.6435   111.3961 </r>
       <r>    -0.0553     6.8452   112.1361 </r>
       <r>     0.0528    18.9202   114.1814 </r>
       <r>     0.1609    22.4374   116.6069 </r>
       <r>     0.2690    23.9139   119.1921 </r>
       <r>     0.3771    22.5996   121.6352 </r>
       <r>     0.4853    15.6780   123.3300 </r>
       <r>     0.5934     7.2416   124.1128 </r>
       <r>     0.7015    25.5593   126.8758 </r>
       <r>     0.8096    26.4647   129.7367 </r>
       <r>     0.9177    12.5500   131.0934 </r>
       <r>     1.0258    20.0580   133.2617 </r>
       <r>     1.1339    24.3874   135.8980 </r>
       <r>     1.2420    18.9309   137.9445 </r>
       <r>     1.3501    14.5189   139.5140 </r>
       <r>     1.4582    11.9802   140.8091 </r>
       <r>     1.5663    22.8481   143.2790 </r>
       <r>     1.6744    28.8926   146.4024 </r>
       <r>     1.7825    24.6347   149.0654 </r>
       <r>     1.8906    26.3271   151.9114 </r>
       <r>     1.9987    17.4108   153.7936 </r>
       <r>     2.1068    26.4917   156.6574 </r>
       <r>     2.2149    27.8062   159.6633 </r>
       <r>     2.3230    27.7993   162.6684 </r>
       <r>     2.4311    17.0754   164.5143 </r>
       <r>     2.5392    34.5891   168.2535 </r>
       <r>     2.6473    34.7752   172.0127 </r>
       <r>     2.7554    37.8213   176.1013 </r>
       <r>     2.8635    25.6918   178.8786 </r>
       <r>     2.9716    13.7143   180.3612 </r>
       <r>     3.0797    24.4817   183.0077 </r>
       <r>     3.1878    35.2793   186.8215 </r>
       <r>     3.2959    22.2514   189.2269 </r>
       <r>     3.4040    34.9801   193.0083 </r>
       <r>     3.5121    23.6233   195.5620 </r>
       <r>     3.6202    25.9609   198.3684 </r>
       <r>     3.7283    21.8930   200.7351 </r>
       <r>     3.8364    26.3802   203.5869 </r>
       <r>     3.9445    29.2288   206.7465 </r>
       <r>     4.0526    21.1183   209.0295 </r>
       <r>     4.1607    33.4036   212.6405 </r>
       <r>     4.2688    15.9802   214.3680 </r>
       <r>     4.3769    21.7773   216.7221 </r>
       <r>     4.4850    25.8355   219.5150 </r>
       <r>     4.5931    28.5146   222.5975 </r>
       <r>     4.7012    31.3025   225.9813 </r>
       <r>     4.8093    18.7741   228.0108 </r>
       <r>     4.9174    16.0693   229.7480 </r>
       <r>     5.0255    20.2468   231.9367 </r>
       <r>     5.1336    24.7775   234.6152 </r>
       <r>     5.2417    33.6352   238.2512 </r>
       <r>     5.3498    12.0950   239.5587 </r>
       <r>     5.4579    11.8545   240.8402 </r>
       <r>     5.5660    15.1782   242.4810 </r>
       <r>     5.6741    12.7960   243.8643 </r>
       <r>     5.7822    10.1446   244.9609 </r>
       <r>     5.8903    15.7615   246.6648 </r>
       <r>     5.9984    11.0213   247.8562 </r>
       <r>     6.1066     6.5017   248.5590 </r>
       <r>     6.2147    10.1715   249.6586 </r>
       <r>     6.3228     8.6494   250.5936 </r>
       <r>     6.4309     6.9946   251.3497 </r>
       <r>     6.5390     7.0749   252.1145 </r>
       <r>     6.6471     5.2141   252.6782 </r>
       <r>     6.7552     6.0504   253.3323 </r>
       <r>     6.8633     7.4893   254.1419 </r>
       <r>     6.9714     4.1628   254.5919 </r>
       <r>     7.0795     1.6051   254.7654 </r>
       <r>     7.1876     4.2839   255.2285 </r>
       <r>     7.2957     3.9080   255.6509 </r>
       <r>     7.4038     1.8446   255.8503 </r>
       <r>     7.5119     1.0297   255.9617 </r>
       <r>     7.6200     0.3472   255.9992 </r>
       <r>     7.7281     0.0075   256.0000 </r>
       <r>     7.8362     0.0000   256.0000 </r>
       <r>     7.9443     0.0000   256.0000 </r>
       <r>     8.0524     0.0000   256.0000 </r>
       <r>     8.1605     0.0000   256.0000 </r>
       <r>     8.2686     0.0000   256.0000 </r>
       <r>     8.3767     0.0000   256.0000 </r>
       <r>     8.4848     0.0000   256.0000 </r>
       <r>     8.5929     0.0000   256.0000 </r>
       <r>     8.7010     0.0000   256.0000 </r>
       <r>     8.8091     0.0000   256.0000 </r>
       <r>     8.9172     0.0000   256.0000 </r>
       <r>     9.0253     0.0000   256.0000 </r>
       <r>     9.1334     0.0000   256.0000 </r>
       <r>     9.2415     0.0000   256.0000 </r>
       <r>     9.3496     0.0000   256.0000 </r>
       <r>     9.4577     0.0000   256.0000 </r>
       <r>     9.5658     0.0000   256.0000 </r>
       <r>     9.6739     0.0000   256.0000 </r>
       <r>     9.7820     0.0000   256.0000 </r>
       <r>     9.8901     0.0000   256.0000 </r>
       <r>     9.9982     0.0000   256.0000 </r>
       <r>    10.1063     0.0000   256.0000 </r>
       <r>    10.2144     0.0000   256.0000 </r>
       <r>    10.3225     0.0000   256.0000 </r>
       <r>    10.4306     0.0000   256.0000 </r>
       <r>    10.5387     0.0000   256.0000 </r>
       <r>    10.6468     0.0000   256.0000 </r>
       <r>    10.7549     0.0000   256.0000 </r>
       <r>    10.8630     0.0000   256.0000 </r>
       <r>    10.9711     0.0000   256.0000 </r>
       <r>    11.0792     0.0000   256.0000 </r>
       <r>    11.1873     0.0002   256.0000 </r>
       <r>    11.2954     0.1605   256.0174 </r>
       <r>    11.4035     1.0821   256.1343 </r>
       <r>    11.5116     0.9840   256.2407 </r>
       <r>    11.6197     4.1220   256.6863 </r>
       <r>    11.7279     5.3168   257.2611 </r>
       <r>    11.8360     6.9156   258.0087 </r>
       <r>    11.9441     6.6035   258.7225 </r>
       <r>    12.0522     4.1669   259.1730 </r>
       <r>    12.1603     3.6636   259.5690 </r>
       <r>    12.2684     9.1645   260.5597 </r>
       <r>    12.3765    23.9835   263.1524 </r>
       <r>    12.4846    11.3771   264.3823 </r>
       <r>    12.5927    10.4447   265.5113 </r>
       <r>    12.7008     9.9406   266.5859 </r>
       <r>    12.8089    17.0286   268.4268 </r>
       <r>    12.9170    13.4814   269.8841 </r>
       <r>    13.0251    14.2449   271.4240 </r>
       <r>    13.1332    22.1482   273.8183 </r>
       <r>    13.2413    19.8061   275.9594 </r>
       <r>    13.3494    24.9664   278.6583 </r>
       <r>    13.4575    15.4102   280.3242 </r>
       <r>    13.5656    19.4989   282.4320 </r>
       <r>    13.6737    23.2282   284.9430 </r>
       <r>    13.7818    23.6910   287.5041 </r>
       <r>    13.8899    27.2098   290.4455 </r>
       <r>    13.9980    17.0565   292.2894 </r>
       <r>    14.1061    21.6276   294.6273 </r>
       <r>    14.2142    33.7730   298.2783 </r>
       <r>    14.3223    23.5105   300.8198 </r>
       <r>    14.4304    33.1065   304.3987 </r>
       <r>    14.5385    46.9861   309.4780 </r>
       <r>    14.6466    54.3982   315.3585 </r>
       <r>    14.7547    40.5566   319.7428 </r>
       <r>    14.8628    32.0467   323.2071 </r>
       <r>    14.9709    32.7111   326.7432 </r>
       <r>    15.0790    25.6074   329.5114 </r>
       <r>    15.1871    32.9143   333.0695 </r>
       <r>    15.2952    41.5307   337.5591 </r>
       <r>    15.4033    52.9668   343.2849 </r>
       <r>    15.5114    42.9674   347.9297 </r>
       <r>    15.6195    40.3047   352.2867 </r>
       <r>    15.7276    23.4080   354.8172 </r>
       <r>    15.8357    31.1556   358.1852 </r>
       <r>    15.9438    25.9373   360.9891 </r>
       <r>    16.0519    24.8438   363.6747 </r>
       <r>    16.1600    36.6410   367.6357 </r>
       <r>    16.2681    31.7648   371.0695 </r>
       <r>    16.3762    21.7886   373.4249 </r>
       <r>    16.4843    21.4691   375.7457 </r>
       <r>    16.5924    17.4133   377.6282 </r>
       <r>    16.7005    22.9055   380.1043 </r>
       <r>    16.8086    10.1994   381.2069 </r>
       <r>    16.9167    10.0535   382.2937 </r>
       <r>    17.0248     4.2748   382.7558 </r>
       <r>    17.1329     2.7352   383.0515 </r>
       <r>    17.2410     0.6534   383.1221 </r>
       <r>    17.3492     1.5630   383.2911 </r>
       <r>    17.4573     1.7080   383.4757 </r>
       <r>    17.5654     2.5525   383.7516 </r>
       <r>    17.6735     2.1891   383.9883 </r>
       <r>    17.7816     0.1085   384.0000 </r>
       <r>    17.8897     0.0000   384.0000 </r>
       <r>    17.9978     0.0000   384.0000 </r>
       <r>    18.1059     0.0000   384.0000 </r>
       <r>    18.2140     0.0000   384.0000 </r>
       <r>    18.3221     0.0000   384.0000 </r>
       <r>    18.4302     0.0000   384.0000 </r>
       <r>    18.5383     0.0000   384.0000 </r>
       <r>    18.6464     0.0000   384.0000 </r>
       <r>    18.7545     0.0000   384.0000 </r>
       <r>    18.8626     0.0000   384.0000 </r>
       <r>    18.9707     0.0000   384.0000 </r>
       <r>    19.0788     0.0000   384.0000 </r>
      </set>
     </set>
    </array>
   </total>
  </dos>
 </calculation>
 <structure name="finalpos" >
  <crystal>
   <varray name="basis" >
    <v>       7.53044685       0.00000000       0.00000000 </v>
    <v>       0.00000000       7.53044685       0.00000000 </v>
    <v>       0.00000000       0.00000000       7.53044685 </v>
   </varray>
   <i name="volume">    427.03379201 </i>
   <varray name="rec_basis" >
    <v>       0.13279424       0.00000000       0.00000000 </v>
    <v>       0.00000000       0.13279424       0.00000000 </v>
    <v>       0.00000000       0.00000000       0.13279424 </v>
   </varray>
  </crystal>
  <varray name="positions" >
   <v>       0.12500000       0.37500000       0.12500000 </v>
   <v>       0.62500000       0.37500000       0.12500000 </v>
   <v>       0.12500000       0.87500000       0.12500000 </v>
   <v>       0.62500000       0.87500000       0.12500000 </v>
   <v>       0.12500000       0.37500000       0.62500000 </v>
   <v>       0.62500000       0.37500000       0.62500000 </v>
   <v>       0.12500000       0.87500000       0.62500000 </v>
   <v>       0.62500000       0.87500000       0.62500000 </v>
   <v>       0.00000000       0.00000000       0.25000000 </v>
   <v>       0.50000000       0.00000000       0.25000000 </v>
   <v>       0.00000000       0.50000000       0.25000000 </v>
   <v>       0.50000000       0.50000000       0.25000000 </v>
   <v>       0.00000000       0.00000000       0.75000000 </v>
   <v>       0.50000000       0.00000000       0.75000000 </v>
   <v>       0.00000000       0.50000000       0.75000000 </v>
   <v>       0.50000000       0.50000000       0.75000000 </v>
   <v>       0.12500000       0.12500000       0.37500000 </v>
   <v>       0.62500000       0.12500000       0.37500000 </v>
   <v>       0.12500000       0.62500000       0.37500000 </v>
   <v>       0.62500000       0.62500000       0.37500000 </v>
   <v>       0.12500000       0.12500000       0.87500000 </v>
   <v>       0.62500000       0.12500000       0.87500000 </v>
   <v>       0.12500000       0.62500000       0.87500000 </v>
   <v>       0.62500000       0.62500000       0.87500000 </v>
   <v>       0.00000000       0.25000000       0.00000000 </v>
   <v>       0.50000000       0.25000000       0.00000000 </v>
   <v>       0.00000000       0.75000000       0.00000000 </v>
   <v>       0.50000000       0.75000000       0.00000000 </v>
   <v>       0.00000000       0.25000000       0.50000000 </v>
   <v>       0.50000000       0.25000000       0.50000000 </v>
   <v>       0.00000000       0.75000000       0.50000000 </v>
   <v>       0.50000000       0.75000000       0.50000000 </v>
   <v>       0.37500000       0.37500000       0.37500000 </v>
   <v>       0.87500000       0.37500000       0.37500000 </v>
   <v>       0.37500000       0.87500000       0.37500000 </v>
   <v>       0.87500000       0.87500000       0.37500000 </v>
   <v>       0.37500000       0.37500000       0.87500000 </v>
   <v>       0.87500000       0.37500000       0.87500000 </v>
   <v>       0.37500000       0.87500000       0.87500000 </v>
   <v>       0.87500000       0.87500000       0.87500000 </v>
   <v>       0.25000000       0.00000000       0.00000000 </v>
   <v>       0.75000000       0.00000000       0.00000000 </v>
   <v>       0.25000000       0.50000000       0.00000000 </v>
   <v>       0.75000000       0.50000000       0.00000000 </v>
   <v>       0.25000000       0.00000000       0.50000000 </v>
   <v>       0.75000000       0.00000000       0.50000000 </v>
   <v>       0.25000000       0.50000000       0.50000000 </v>
   <v>       0.75000000       0.50000000       0.50000000 </v>
   <v>       0.37500000       0.12500000       0.12500000 </v>
   <v>       0.87500000       0.12500000       0.12500000 </v>
   <v>       0.37500000       0.62500000       0.12500000 </v>
   <v>       0.87500000       0.62500000       0.12500000 </v>
   <v>       0.37500000       0.12500000       0.62500000 </v>
   <v>       0.87500000       0.12500000       0.62500000 </v>
   <v>       0.37500000       0.62500000       0.62500000 </v>
   <v>       0.87500000       0.62500000       0.62500000 </v>
   <v>       0.25000000       0.25000000       0.25000000 </v>
   <v>       0.75000000       0.25000000       0.25000000 </v>
   <v>       0.25000000       0.75000000       0.25000000 </v>
   <v>       0.75000000       0.75000000       0.25000000 </v>
   <v>       0.25000000       0.25000000       0.75000000 </v>
   <v>       0.75000000       0.25000000       0.75000000 </v>
   <v>       0.25000000       0.75000000       0.75000000 </v>
   <v>       0.75000000       0.75000000       0.75000000 </v>
  </varray>
 </structure>
</modeling>
