  64  64   0   0
  0.5436519E+01  0.6961266E-09  0.6961266E-09  0.7179999E-09  0.5000000E-15
  1.000000000000000E-004
  CAR 
 unknown system                          
     24.05433841    -13.37543637  301     10.83694919      1.00000000
    -13.375  0.0000E+00  0.0000E+00
    -13.251  0.0000E+00  0.0000E+00
    -13.126  0.0000E+00  0.0000E+00
    -13.001  0.0000E+00  0.0000E+00
    -12.876  0.0000E+00  0.0000E+00
    -12.752  0.0000E+00  0.0000E+00
    -12.627  0.0000E+00  0.0000E+00
    -12.502  0.0000E+00  0.0000E+00
    -12.377  0.0000E+00  0.0000E+00
    -12.253  0.0000E+00  0.0000E+00
    -12.128  0.0000E+00  0.0000E+00
    -12.003  0.3337E-15  0.4163E-16
    -11.878  0.5545E-07  0.6918E-08
    -11.753  0.2412E-02  0.3009E-03
    -11.629  0.2191E+00  0.2764E-01
    -11.504  0.1179E+01  0.1747E+00
    -11.379  0.1323E+01  0.3398E+00
    -11.254  0.2747E+01  0.6826E+00
    -11.130  0.1427E+01  0.8606E+00
    -11.005  0.3387E+01  0.1283E+01
    -10.880  0.2774E+01  0.1629E+01
    -10.755  0.3569E+01  0.2075E+01
    -10.631  0.2410E+01  0.2375E+01
    -10.506  0.4163E+01  0.2895E+01
    -10.381  0.4346E+01  0.3437E+01
    -10.256  0.4568E+01  0.4007E+01
    -10.132  0.2626E+01  0.4335E+01
    -10.007  0.4211E+01  0.4860E+01
     -9.882  0.5986E+01  0.5607E+01
     -9.757  0.5196E+01  0.6255E+01
     -9.632  0.4601E+01  0.6829E+01
     -9.508  0.3542E+01  0.7271E+01
     -9.383  0.6570E+01  0.8091E+01
     -9.258  0.5202E+01  0.8740E+01
     -9.133  0.5373E+01  0.9410E+01
     -9.009  0.5215E+01  0.1006E+02
     -8.884  0.8042E+01  0.1106E+02
     -8.759  0.5539E+01  0.1176E+02
     -8.634  0.5486E+01  0.1244E+02
     -8.510  0.4008E+01  0.1294E+02
     -8.385  0.7843E+01  0.1392E+02
     -8.260  0.7762E+01  0.1489E+02
     -8.135  0.7547E+01  0.1583E+02
     -8.011  0.6984E+01  0.1670E+02
     -7.886  0.5374E+01  0.1737E+02
     -7.761  0.7299E+01  0.1828E+02
     -7.636  0.7278E+01  0.1919E+02
     -7.511  0.6847E+01  0.2004E+02
     -7.387  0.8551E+01  0.2111E+02
     -7.262  0.8487E+01  0.2217E+02
     -7.137  0.8230E+01  0.2320E+02
     -7.012  0.6375E+01  0.2399E+02
     -6.888  0.8881E+01  0.2510E+02
     -6.763  0.1083E+02  0.2645E+02
     -6.638  0.7074E+01  0.2733E+02
     -6.513  0.6695E+01  0.2817E+02
     -6.389  0.8463E+01  0.2922E+02
     -6.264  0.9979E+01  0.3047E+02
     -6.139  0.1006E+02  0.3172E+02
     -6.014  0.1224E+02  0.3325E+02
     -5.889  0.9181E+01  0.3440E+02
     -5.765  0.1048E+02  0.3570E+02
     -5.640  0.9140E+01  0.3684E+02
     -5.515  0.1122E+02  0.3824E+02
     -5.390  0.1080E+02  0.3959E+02
     -5.266  0.1373E+02  0.4130E+02
     -5.141  0.1191E+02  0.4279E+02
     -5.016  0.9028E+01  0.4392E+02
     -4.891  0.9221E+01  0.4507E+02
     -4.767  0.1181E+02  0.4654E+02
     -4.642  0.1151E+02  0.4798E+02
     -4.517  0.1035E+02  0.4927E+02
     -4.392  0.6691E+01  0.5010E+02
     -4.268  0.8944E+01  0.5122E+02
     -4.143  0.9448E+01  0.5240E+02
     -4.018  0.7622E+01  0.5335E+02
     -3.893  0.8203E+01  0.5437E+02
     -3.768  0.1003E+02  0.5562E+02
     -3.644  0.5678E+01  0.5633E+02
     -3.519  0.6561E+01  0.5715E+02
     -3.394  0.1091E+02  0.5851E+02
     -3.269  0.9236E+01  0.5967E+02
     -3.145  0.8480E+01  0.6072E+02
     -3.020  0.7643E+01  0.6168E+02
     -2.895  0.8636E+01  0.6275E+02
     -2.770  0.7151E+01  0.6365E+02
     -2.646  0.7453E+01  0.6458E+02
     -2.521  0.9588E+01  0.6577E+02
     -2.396  0.1218E+02  0.6729E+02
     -2.271  0.1025E+02  0.6857E+02
     -2.147  0.7889E+01  0.6955E+02
     -2.022  0.1037E+02  0.7085E+02
     -1.897  0.1115E+02  0.7224E+02
     -1.772  0.8911E+01  0.7335E+02
     -1.647  0.1236E+02  0.7489E+02
     -1.523  0.1228E+02  0.7643E+02
     -1.398  0.2061E+02  0.7900E+02
     -1.273  0.1637E+02  0.8104E+02
     -1.148  0.1471E+02  0.8288E+02
     -1.024  0.2136E+02  0.8554E+02
     -0.899  0.2043E+02  0.8809E+02
     -0.774  0.9797E+01  0.8931E+02
     -0.649  0.1061E+02  0.9064E+02
     -0.525  0.7892E+01  0.9162E+02
     -0.400  0.1062E+02  0.9295E+02
     -0.275  0.9031E+01  0.9407E+02
     -0.150  0.1298E+02  0.9569E+02
     -0.025  0.7900E+01  0.9668E+02
      0.099  0.1042E+02  0.9798E+02
      0.224  0.9999E+01  0.9923E+02
      0.349  0.1284E+02  0.1008E+03
      0.474  0.8312E+01  0.1019E+03
      0.598  0.4437E+01  0.1024E+03
      0.723  0.8318E+01  0.1035E+03
      0.848  0.1456E+02  0.1053E+03
      0.973  0.1268E+02  0.1069E+03
      1.097  0.1012E+02  0.1081E+03
      1.222  0.1473E+02  0.1100E+03
      1.347  0.1716E+02  0.1121E+03
      1.472  0.1779E+02  0.1143E+03
      1.596  0.1789E+02  0.1165E+03
      1.721  0.1452E+02  0.1184E+03
      1.846  0.1011E+02  0.1196E+03
      1.971  0.1671E+02  0.1217E+03
      2.096  0.1701E+02  0.1238E+03
      2.220  0.1686E+02  0.1259E+03
      2.345  0.1852E+02  0.1282E+03
      2.470  0.1816E+02  0.1305E+03
      2.595  0.1327E+02  0.1322E+03
      2.719  0.1250E+02  0.1337E+03
      2.844  0.1654E+02  0.1358E+03
      2.969  0.2081E+02  0.1384E+03
      3.094  0.2232E+02  0.1412E+03
      3.218  0.1971E+02  0.1436E+03
      3.343  0.1344E+02  0.1453E+03
      3.468  0.1448E+02  0.1471E+03
      3.593  0.2251E+02  0.1499E+03
      3.717  0.2845E+02  0.1535E+03
      3.842  0.2652E+02  0.1568E+03
      3.967  0.1991E+02  0.1593E+03
      4.092  0.1978E+02  0.1617E+03
      4.217  0.2365E+02  0.1647E+03
      4.341  0.2093E+02  0.1673E+03
      4.466  0.2721E+02  0.1707E+03
      4.591  0.2289E+02  0.1735E+03
      4.716  0.2834E+02  0.1771E+03
      4.840  0.2661E+02  0.1804E+03
      4.965  0.2023E+02  0.1829E+03
      5.090  0.1715E+02  0.1851E+03
      5.215  0.2081E+02  0.1877E+03
      5.339  0.2151E+02  0.1903E+03
      5.464  0.2640E+02  0.1936E+03
      5.589  0.2483E+02  0.1967E+03
      5.714  0.2360E+02  0.1997E+03
      5.839  0.2035E+02  0.2022E+03
      5.963  0.1801E+02  0.2045E+03
      6.088  0.1759E+02  0.2067E+03
      6.213  0.2446E+02  0.2097E+03
      6.338  0.2166E+02  0.2124E+03
      6.462  0.1858E+02  0.2147E+03
      6.587  0.2364E+02  0.2177E+03
      6.712  0.2084E+02  0.2203E+03
      6.837  0.2123E+02  0.2229E+03
      6.961  0.1489E+02  0.2248E+03
      7.086  0.1896E+02  0.2271E+03
      7.211  0.2132E+02  0.2298E+03
      7.336  0.1647E+02  0.2319E+03
      7.460  0.2135E+02  0.2345E+03
      7.585  0.1464E+02  0.2364E+03
      7.710  0.1446E+02  0.2382E+03
      7.835  0.1405E+02  0.2399E+03
      7.960  0.1296E+02  0.2415E+03
      8.084  0.1026E+02  0.2428E+03
      8.209  0.1164E+02  0.2443E+03
      8.334  0.1233E+02  0.2458E+03
      8.459  0.8778E+01  0.2469E+03
      8.583  0.6464E+01  0.2477E+03
      8.708  0.7554E+01  0.2486E+03
      8.833  0.8684E+01  0.2497E+03
      8.958  0.6718E+01  0.2506E+03
      9.082  0.7127E+01  0.2515E+03
      9.207  0.4219E+01  0.2520E+03
      9.332  0.4745E+01  0.2526E+03
      9.457  0.5865E+01  0.2533E+03
      9.581  0.5247E+01  0.2540E+03
      9.706  0.3063E+01  0.2543E+03
      9.831  0.3366E+01  0.2548E+03
      9.956  0.2495E+01  0.2551E+03
     10.081  0.3234E+01  0.2555E+03
     10.205  0.1203E+01  0.2556E+03
     10.330  0.1988E+01  0.2559E+03
     10.455  0.5938E+00  0.2559E+03
     10.580  0.3681E+00  0.2560E+03
     10.704  0.5841E-01  0.2560E+03
     10.829  0.6868E-04  0.2560E+03
     10.954  0.2981E-10  0.2560E+03
     11.079  0.0000E+00  0.2560E+03
     11.203  0.0000E+00  0.2560E+03
     11.328  0.0000E+00  0.2560E+03
     11.453  0.0000E+00  0.2560E+03
     11.578  0.0000E+00  0.2560E+03
     11.703  0.0000E+00  0.2560E+03
     11.827  0.0000E+00  0.2560E+03
     11.952  0.0000E+00  0.2560E+03
     12.077  0.0000E+00  0.2560E+03
     12.202  0.0000E+00  0.2560E+03
     12.326  0.0000E+00  0.2560E+03
     12.451  0.0000E+00  0.2560E+03
     12.576  0.0000E+00  0.2560E+03
     12.701  0.0000E+00  0.2560E+03
     12.825  0.0000E+00  0.2560E+03
     12.950  0.0000E+00  0.2560E+03
     13.075  0.0000E+00  0.2560E+03
     13.200  0.0000E+00  0.2560E+03
     13.324  0.0000E+00  0.2560E+03
     13.449  0.0000E+00  0.2560E+03
     13.574  0.0000E+00  0.2560E+03
     13.699  0.0000E+00  0.2560E+03
     13.824  0.0000E+00  0.2560E+03
     13.948  0.0000E+00  0.2560E+03
     14.073  0.8690E-12  0.2560E+03
     14.198  0.1223E-04  0.2560E+03
     14.323  0.5771E-01  0.2560E+03
     14.447  0.6624E+00  0.2561E+03
     14.572  0.4870E+00  0.2562E+03
     14.697  0.2383E+01  0.2564E+03
     14.822  0.2786E+01  0.2568E+03
     14.946  0.4494E+01  0.2574E+03
     15.071  0.4169E+01  0.2579E+03
     15.196  0.1616E+01  0.2581E+03
     15.321  0.3627E+01  0.2585E+03
     15.445  0.7890E+01  0.2595E+03
     15.570  0.1373E+02  0.2612E+03
     15.695  0.7620E+01  0.2622E+03
     15.820  0.8660E+01  0.2633E+03
     15.945  0.8439E+01  0.2643E+03
     16.069  0.9821E+01  0.2655E+03
     16.194  0.1168E+02  0.2670E+03
     16.319  0.1533E+02  0.2689E+03
     16.444  0.1424E+02  0.2707E+03
     16.568  0.1556E+02  0.2726E+03
     16.693  0.1586E+02  0.2746E+03
     16.818  0.1826E+02  0.2769E+03
     16.943  0.1272E+02  0.2785E+03
     17.067  0.1438E+02  0.2803E+03
     17.192  0.1888E+02  0.2826E+03
     17.317  0.1823E+02  0.2849E+03
     17.442  0.2262E+02  0.2877E+03
     17.567  0.1637E+02  0.2898E+03
     17.691  0.2300E+02  0.2926E+03
     17.816  0.2008E+02  0.2951E+03
     17.941  0.1613E+02  0.2971E+03
     18.066  0.1874E+02  0.2995E+03
     18.190  0.2452E+02  0.3025E+03
     18.315  0.3503E+02  0.3069E+03
     18.440  0.3644E+02  0.3115E+03
     18.565  0.2611E+02  0.3147E+03
     18.689  0.2621E+02  0.3180E+03
     18.814  0.2425E+02  0.3210E+03
     18.939  0.3620E+02  0.3255E+03
     19.064  0.2749E+02  0.3290E+03
     19.188  0.3063E+02  0.3328E+03
     19.313  0.2743E+02  0.3362E+03
     19.438  0.2267E+02  0.3390E+03
     19.563  0.2386E+02  0.3420E+03
     19.688  0.2814E+02  0.3455E+03
     19.812  0.2524E+02  0.3487E+03
     19.937  0.2306E+02  0.3515E+03
     20.062  0.2889E+02  0.3551E+03
     20.187  0.3163E+02  0.3591E+03
     20.311  0.2136E+02  0.3618E+03
     20.436  0.2830E+02  0.3653E+03
     20.561  0.2766E+02  0.3687E+03
     20.686  0.1921E+02  0.3711E+03
     20.810  0.2690E+02  0.3745E+03
     20.935  0.2077E+02  0.3771E+03
     21.060  0.1645E+02  0.3791E+03
     21.185  0.1410E+02  0.3809E+03
     21.309  0.7660E+01  0.3819E+03
     21.434  0.6062E+01  0.3826E+03
     21.559  0.2896E+01  0.3830E+03
     21.684  0.1645E+01  0.3832E+03
     21.809  0.4995E+00  0.3832E+03
     21.933  0.2444E+01  0.3835E+03
     22.058  0.2189E+01  0.3838E+03
     22.183  0.2651E+00  0.3839E+03
     22.308  0.2773E+00  0.3839E+03
     22.432  0.8917E+00  0.3840E+03
     22.557  0.1872E-01  0.3840E+03
     22.682  0.2987E-06  0.3840E+03
     22.807  0.1450E-14  0.3840E+03
     22.931  0.0000E+00  0.3840E+03
     23.056  0.0000E+00  0.3840E+03
     23.181  0.0000E+00  0.3840E+03
     23.306  0.0000E+00  0.3840E+03
     23.431  0.0000E+00  0.3840E+03
     23.555  0.0000E+00  0.3840E+03
     23.680  0.0000E+00  0.3840E+03
     23.805  0.0000E+00  0.3840E+03
     23.930  0.0000E+00  0.3840E+03
     24.054  0.0000E+00  0.3840E+03
