  64   64
1 1
    48.790129805939991    -0.000000000000000    -0.000000000000000
    -0.000000000000000    48.790129805939991     0.000000000000000
    -0.000000000000000     0.000000000000000    47.744495625759996
1 2
    -0.172791807430000    -0.000000000000000     0.000000000000000
    -0.000000000000000    -0.097304233860000     0.000000000000000
     0.000000000000000     0.000000000000000    -0.079106968310000
1 3
    -0.097304233860000     0.000000000000000     0.000000000000000
     0.000000000000000    -0.172791807430000     0.000000000000000
     0.000000000000000     0.000000000000000    -0.079106968310000
1 4
    -0.147164297060000    -0.000000000000000     0.000000000000000
    -0.000000000000000    -0.147164297060000    -0.000000000000000
     0.000000000000000    -0.000000000000000     0.564878170770000
1 5
    -0.111075926350000    -0.000000000000000    -0.000000000000000
    -0.000000000000000    -0.111075926350000    -0.000000000000000
    -0.000000000000000    -0.000000000000000    -0.187071445110000
1 6
    -0.129952534060000    -0.000000000000000    -0.000000000000000
    -0.000000000000000     0.589952694700000    -0.000000000000000
    -0.000000000000000    -0.000000000000000    -0.123195145460000
1 7
     0.589952694700000     0.000000000000000    -0.000000000000000
     0.000000000000000    -0.129952534060000    -0.000000000000000
    -0.000000000000000    -0.000000000000000    -0.123195145460000
1 8
    -0.056577335060000    -0.000000000000000    -0.000000000000000
    -0.000000000000000    -0.056577335060000     0.000000000000000
    -0.000000000000000     0.000000000000000    -0.053282237320000
1 9
     0.166739824860000     0.088056364410000    -0.028781238640000
     0.088056364410000     0.052377809020000    -0.083387448490000
    -0.028781238640000    -0.083387448490000     0.146638575590000
1 10
    -0.122765511990000     0.156623800330000     0.233272477270000
     0.156623800330000    -0.122765511990000    -0.233272477270000
     0.233272477270000    -0.233272477270000    -0.337655393980000
1 11
   -10.086146687059999     2.838770302940000     2.989499825130000
     2.838770302940000   -10.086146687059999    -2.989499825130000
     2.989499825130000    -2.989499825130000    -9.890699851539999
1 12
     0.052377809020000     0.088056364410000     0.083387448490000
     0.088056364410000     0.166739824860000     0.028781238640000
     0.083387448490000     0.028781238640000     0.146638575590000
1 13
    -0.360791943060000     0.227198034130000     0.234584799130000
     0.227198034130000    -0.084890505030000    -0.103649284830000
     0.234584799130000    -0.103649284830000    -0.073298809040000
1 14
     0.033976236360000     0.027414146620000     0.032242688730000
     0.027414146620000     0.033976236360000    -0.032242688730000
     0.032242688730000    -0.032242688730000     0.033358510630000
1 15
     0.170505994020000    -0.055777762790000     0.115572844750000
    -0.055777762790000     0.170505994020000    -0.115572844750000
     0.115572844750000    -0.115572844750000     0.096014973120000
1 16
    -0.084890505030000     0.227198034130000     0.103649284830000
     0.227198034130000    -0.360791943060000    -0.234584799130000
     0.103649284830000    -0.234584799130000    -0.073298809040000
1 17
     1.470514537150000    -0.796628494010000     0.747391081050000
     0.796628494010000    -1.583322449700000     1.653838310040000
    -0.747391081050000     1.653838310040000    -1.631898416890000
1 18
     0.071866497290000    -0.039287260340000     0.041432545050000
     0.039287260340000    -0.088285173960000    -0.075391245350000
    -0.041432545050000    -0.075391245350000    -0.089870866180000
1 19
     1.470514537150000    -0.796628494010000    -0.747391081050000
     0.796628494010000    -1.583322449700000    -1.653838310040000
     0.747391081050000    -1.653838310040000    -1.631898416890000
1 20
     0.071866497290000    -0.039287260340000    -0.041432545050000
     0.039287260340000    -0.088285173960000     0.075391245350000
     0.041432545050000     0.075391245350000    -0.089870866180000
1 21
     1.470514537150000     0.796628494010000     0.747391081050000
    -0.796628494010000    -1.583322449700000    -1.653838310040000
    -0.747391081050000    -1.653838310040000    -1.631898416890000
1 22
     0.071866497290000     0.039287260340000     0.041432545050000
    -0.039287260340000    -0.088285173960000     0.075391245350000
    -0.041432545050000     0.075391245350000    -0.089870866180000
1 23
     1.470514537150000     0.796628494010000    -0.747391081050000
    -0.796628494010000    -1.583322449700000     1.653838310040000
     0.747391081050000     1.653838310040000    -1.631898416890000
1 24
     0.071866497290000     0.039287260340000    -0.041432545050000
    -0.039287260340000    -0.088285173960000    -0.075391245350000
     0.041432545050000    -0.075391245350000    -0.089870866180000
1 25
   -10.086146687059999    -2.838770302940000    -2.989499825130000
    -2.838770302940000   -10.086146687059999    -2.989499825130000
    -2.989499825130000    -2.989499825130000    -9.890699851539999
1 26
     0.052377809020000    -0.088056364410000    -0.083387448490000
    -0.088056364410000     0.166739824860000     0.028781238640000
    -0.083387448490000     0.028781238640000     0.146638575590000
1 27
     0.166739824860000    -0.088056364410000     0.028781238640000
    -0.088056364410000     0.052377809020000    -0.083387448490000
     0.028781238640000    -0.083387448490000     0.146638575590000
1 28
    -0.122765511990000    -0.156623800330000    -0.233272477270000
    -0.156623800330000    -0.122765511990000    -0.233272477270000
    -0.233272477270000    -0.233272477270000    -0.337655393980000
1 29
     0.170505994020000     0.055777762790000    -0.115572844750000
     0.055777762790000     0.170505994020000    -0.115572844750000
    -0.115572844750000    -0.115572844750000     0.096014973120000
1 30
    -0.084890505030000    -0.227198034130000    -0.103649284830000
    -0.227198034130000    -0.360791943060000    -0.234584799130000
    -0.103649284830000    -0.234584799130000    -0.073298809040000
1 31
    -0.360791943060000    -0.227198034130000    -0.234584799130000
    -0.227198034130000    -0.084890505030000    -0.103649284830000
    -0.234584799130000    -0.103649284830000    -0.073298809040000
1 32
     0.033976236360000    -0.027414146620000    -0.032242688730000
    -0.027414146620000     0.033976236360000    -0.032242688730000
    -0.032242688730000    -0.032242688730000     0.033358510630000
1 33
    -1.583322449700000     0.796628494010000    -1.653838310040000
    -0.796628494010000     1.470514537150000    -0.747391081050000
    -1.653838310040000     0.747391081050000    -1.631898416890000
1 34
    -1.583322449700000     0.796628494010000     1.653838310040000
    -0.796628494010000     1.470514537150000     0.747391081050000
     1.653838310040000    -0.747391081050000    -1.631898416890000
1 35
    -0.088285173960000     0.039287260340000     0.075391245350000
    -0.039287260340000     0.071866497290000    -0.041432545050000
     0.075391245350000     0.041432545050000    -0.089870866180000
1 36
    -0.088285173960000     0.039287260340000    -0.075391245350000
    -0.039287260340000     0.071866497290000     0.041432545050000
    -0.075391245350000    -0.041432545050000    -0.089870866180000
1 37
    -1.583322449700000    -0.796628494010000     1.653838310040000
     0.796628494010000     1.470514537150000    -0.747391081050000
     1.653838310040000     0.747391081050000    -1.631898416890000
1 38
    -1.583322449700000    -0.796628494010000    -1.653838310040000
     0.796628494010000     1.470514537150000     0.747391081050000
    -1.653838310040000    -0.747391081050000    -1.631898416890000
1 39
    -0.088285173960000    -0.039287260340000    -0.075391245350000
     0.039287260340000     0.071866497290000    -0.041432545050000
    -0.075391245350000     0.041432545050000    -0.089870866180000
1 40
    -0.088285173960000    -0.039287260340000     0.075391245350000
     0.039287260340000     0.071866497290000     0.041432545050000
     0.075391245350000    -0.041432545050000    -0.089870866180000
1 41
     0.166739824860000    -0.088056364410000    -0.028781238640000
    -0.088056364410000     0.052377809020000     0.083387448490000
    -0.028781238640000     0.083387448490000     0.146638575590000
1 42
    -0.122765511990000    -0.156623800330000     0.233272477270000
    -0.156623800330000    -0.122765511990000     0.233272477270000
     0.233272477270000     0.233272477270000    -0.337655393980000
1 43
   -10.086146687059999    -2.838770302940000     2.989499825130000
    -2.838770302940000   -10.086146687059999     2.989499825130000
     2.989499825130000     2.989499825130000    -9.890699851539999
1 44
     0.052377809020000    -0.088056364410000     0.083387448490000
    -0.088056364410000     0.166739824860000    -0.028781238640000
     0.083387448490000    -0.028781238640000     0.146638575590000
1 45
    -0.360791943060000    -0.227198034130000     0.234584799130000
    -0.227198034130000    -0.084890505030000     0.103649284830000
     0.234584799130000     0.103649284830000    -0.073298809040000
1 46
     0.033976236360000    -0.027414146620000     0.032242688730000
    -0.027414146620000     0.033976236360000     0.032242688730000
     0.032242688730000     0.032242688730000     0.033358510630000
1 47
     0.170505994020000     0.055777762790000     0.115572844750000
     0.055777762790000     0.170505994020000     0.115572844750000
     0.115572844750000     0.115572844750000     0.096014973120000
1 48
    -0.084890505030000    -0.227198034130000     0.103649284830000
    -0.227198034130000    -0.360791943060000     0.234584799130000
     0.103649284830000     0.234584799130000    -0.073298809040000
1 49
    -1.723019988500000     1.847331556410000    -0.770861535930000
     1.847331556410000    -1.723019988500000     0.770861535930000
     0.770861535930000    -0.770861535930000     1.427270973520000
1 50
    -1.723019988500000    -1.847331556410000    -0.770861535930000
    -1.847331556410000    -1.723019988500000    -0.770861535930000
     0.770861535930000     0.770861535930000     1.427270973520000
1 51
    -1.723019988500000    -1.847331556410000     0.770861535930000
    -1.847331556410000    -1.723019988500000     0.770861535930000
    -0.770861535930000    -0.770861535930000     1.427270973520000
1 52
    -1.723019988500000     1.847331556410000     0.770861535930000
     1.847331556410000    -1.723019988500000    -0.770861535930000
    -0.770861535930000     0.770861535930000     1.427270973520000
1 53
    -0.083062791160000    -0.065951560230000    -0.043638965750000
    -0.065951560230000    -0.083062791160000     0.043638965750000
     0.043638965750000    -0.043638965750000     0.052465849650000
1 54
    -0.083062791160000     0.065951560230000    -0.043638965750000
     0.065951560230000    -0.083062791160000    -0.043638965750000
     0.043638965750000     0.043638965750000     0.052465849650000
1 55
    -0.083062791160000     0.065951560230000     0.043638965750000
     0.065951560230000    -0.083062791160000     0.043638965750000
    -0.043638965750000    -0.043638965750000     0.052465849650000
1 56
    -0.083062791160000    -0.065951560230000     0.043638965750000
    -0.065951560230000    -0.083062791160000    -0.043638965750000
    -0.043638965750000     0.043638965750000     0.052465849650000
1 57
   -10.086146687059999     2.838770302940000    -2.989499825130000
     2.838770302940000   -10.086146687059999     2.989499825130000
    -2.989499825130000     2.989499825130000    -9.890699851539999
1 58
     0.052377809020000     0.088056364410000    -0.083387448490000
     0.088056364410000     0.166739824860000    -0.028781238640000
    -0.083387448490000    -0.028781238640000     0.146638575590000
1 59
     0.166739824860000     0.088056364410000     0.028781238640000
     0.088056364410000     0.052377809020000     0.083387448490000
     0.028781238640000     0.083387448490000     0.146638575590000
1 60
    -0.122765511990000     0.156623800330000    -0.233272477270000
     0.156623800330000    -0.122765511990000     0.233272477270000
    -0.233272477270000     0.233272477270000    -0.337655393980000
1 61
     0.170505994020000    -0.055777762790000    -0.115572844750000
    -0.055777762790000     0.170505994020000     0.115572844750000
    -0.115572844750000     0.115572844750000     0.096014973120000
1 62
    -0.084890505030000     0.227198034130000    -0.103649284830000
     0.227198034130000    -0.360791943060000     0.234584799130000
    -0.103649284830000     0.234584799130000    -0.073298809040000
1 63
    -0.360791943060000     0.227198034130000    -0.234584799130000
     0.227198034130000    -0.084890505030000     0.103649284830000
    -0.234584799130000     0.103649284830000    -0.073298809040000
1 64
     0.033976236360000     0.027414146620000    -0.032242688730000
     0.027414146620000     0.033976236360000     0.032242688730000
    -0.032242688730000     0.032242688730000     0.033358510630000
2 1
    -0.172791807430000    -0.000000000000000     0.000000000000000
    -0.000000000000000    -0.097304233860000     0.000000000000000
     0.000000000000000     0.000000000000000    -0.079106968310000
2 2
    48.790129805939991    -0.000000000000000    -0.000000000000000
    -0.000000000000000    48.790129805939991     0.000000000000000
    -0.000000000000000     0.000000000000000    47.744495625759996
2 3
    -0.147164297060000    -0.000000000000000     0.000000000000000
    -0.000000000000000    -0.147164297060000    -0.000000000000000
     0.000000000000000    -0.000000000000000     0.564878170770000
2 4
    -0.097304233860000     0.000000000000000     0.000000000000000
     0.000000000000000    -0.172791807430000     0.000000000000000
     0.000000000000000     0.000000000000000    -0.079106968310000
2 5
    -0.129952534060000    -0.000000000000000    -0.000000000000000
    -0.000000000000000     0.589952694700000    -0.000000000000000
    -0.000000000000000    -0.000000000000000    -0.123195145460000
2 6
    -0.111075926350000    -0.000000000000000    -0.000000000000000
    -0.000000000000000    -0.111075926350000    -0.000000000000000
    -0.000000000000000    -0.000000000000000    -0.187071445110000
2 7
    -0.056577335060000    -0.000000000000000    -0.000000000000000
    -0.000000000000000    -0.056577335060000     0.000000000000000
    -0.000000000000000     0.000000000000000    -0.053282237320000
2 8
     0.589952694700000     0.000000000000000    -0.000000000000000
     0.000000000000000    -0.129952534060000    -0.000000000000000
    -0.000000000000000    -0.000000000000000    -0.123195145460000
2 9
    -0.122765511990000     0.156623800330000     0.233272477270000
     0.156623800330000    -0.122765511990000    -0.233272477270000
     0.233272477270000    -0.233272477270000    -0.337655393980000
2 10
     0.166739824860000     0.088056364410000    -0.028781238640000
     0.088056364410000     0.052377809020000    -0.083387448490000
    -0.028781238640000    -0.083387448490000     0.146638575590000
2 11
     0.052377809020000     0.088056364410000     0.083387448490000
     0.088056364410000     0.166739824860000     0.028781238640000
     0.083387448490000     0.028781238640000     0.146638575590000
2 12
   -10.086146687059999     2.838770302940000     2.989499825130000
     2.838770302940000   -10.086146687059999    -2.989499825130000
     2.989499825130000    -2.989499825130000    -9.890699851539999
2 13
     0.033976236360000     0.027414146620000     0.032242688730000
     0.027414146620000     0.033976236360000    -0.032242688730000
     0.032242688730000    -0.032242688730000     0.033358510630000
2 14
    -0.360791943060000     0.227198034130000     0.234584799130000
     0.227198034130000    -0.084890505030000    -0.103649284830000
     0.234584799130000    -0.103649284830000    -0.073298809040000
2 15
    -0.084890505030000     0.227198034130000     0.103649284830000
     0.227198034130000    -0.360791943060000    -0.234584799130000
     0.103649284830000    -0.234584799130000    -0.073298809040000
2 16
     0.170505994020000    -0.055777762790000     0.115572844750000
    -0.055777762790000     0.170505994020000    -0.115572844750000
     0.115572844750000    -0.115572844750000     0.096014973120000
2 17
     0.071866497290000    -0.039287260340000     0.041432545050000
     0.039287260340000    -0.088285173960000    -0.075391245350000
    -0.041432545050000    -0.075391245350000    -0.089870866180000
2 18
     1.470514537150000    -0.796628494010000     0.747391081050000
     0.796628494010000    -1.583322449700000     1.653838310040000
    -0.747391081050000     1.653838310040000    -1.631898416890000
2 19
     0.071866497290000    -0.039287260340000    -0.041432545050000
     0.039287260340000    -0.088285173960000     0.075391245350000
     0.041432545050000     0.075391245350000    -0.089870866180000
2 20
     1.470514537150000    -0.796628494010000    -0.747391081050000
     0.796628494010000    -1.583322449700000    -1.653838310040000
     0.747391081050000    -1.653838310040000    -1.631898416890000
2 21
     0.071866497290000     0.039287260340000     0.041432545050000
    -0.039287260340000    -0.088285173960000     0.075391245350000
    -0.041432545050000     0.075391245350000    -0.089870866180000
2 22
     1.470514537150000     0.796628494010000     0.747391081050000
    -0.796628494010000    -1.583322449700000    -1.653838310040000
    -0.747391081050000    -1.653838310040000    -1.631898416890000
2 23
     0.071866497290000     0.039287260340000    -0.041432545050000
    -0.039287260340000    -0.088285173960000    -0.075391245350000
     0.041432545050000    -0.075391245350000    -0.089870866180000
2 24
     1.470514537150000     0.796628494010000    -0.747391081050000
    -0.796628494010000    -1.583322449700000     1.653838310040000
     0.747391081050000     1.653838310040000    -1.631898416890000
2 25
     0.052377809020000    -0.088056364410000    -0.083387448490000
    -0.088056364410000     0.166739824860000     0.028781238640000
    -0.083387448490000     0.028781238640000     0.146638575590000
2 26
   -10.086146687059999    -2.838770302940000    -2.989499825130000
    -2.838770302940000   -10.086146687059999    -2.989499825130000
    -2.989499825130000    -2.989499825130000    -9.890699851539999
2 27
    -0.122765511990000    -0.156623800330000    -0.233272477270000
    -0.156623800330000    -0.122765511990000    -0.233272477270000
    -0.233272477270000    -0.233272477270000    -0.337655393980000
2 28
     0.166739824860000    -0.088056364410000     0.028781238640000
    -0.088056364410000     0.052377809020000    -0.083387448490000
     0.028781238640000    -0.083387448490000     0.146638575590000
2 29
    -0.084890505030000    -0.227198034130000    -0.103649284830000
    -0.227198034130000    -0.360791943060000    -0.234584799130000
    -0.103649284830000    -0.234584799130000    -0.073298809040000
2 30
     0.170505994020000     0.055777762790000    -0.115572844750000
     0.055777762790000     0.170505994020000    -0.115572844750000
    -0.115572844750000    -0.115572844750000     0.096014973120000
2 31
     0.033976236360000    -0.027414146620000    -0.032242688730000
    -0.027414146620000     0.033976236360000    -0.032242688730000
    -0.032242688730000    -0.032242688730000     0.033358510630000
2 32
    -0.360791943060000    -0.227198034130000    -0.234584799130000
    -0.227198034130000    -0.084890505030000    -0.103649284830000
    -0.234584799130000    -0.103649284830000    -0.073298809040000
2 33
    -1.583322449700000     0.796628494010000     1.653838310040000
    -0.796628494010000     1.470514537150000     0.747391081050000
     1.653838310040000    -0.747391081050000    -1.631898416890000
2 34
    -1.583322449700000     0.796628494010000    -1.653838310040000
    -0.796628494010000     1.470514537150000    -0.747391081050000
    -1.653838310040000     0.747391081050000    -1.631898416890000
2 35
    -0.088285173960000     0.039287260340000    -0.075391245350000
    -0.039287260340000     0.071866497290000     0.041432545050000
    -0.075391245350000    -0.041432545050000    -0.089870866180000
2 36
    -0.088285173960000     0.039287260340000     0.075391245350000
    -0.039287260340000     0.071866497290000    -0.041432545050000
     0.075391245350000     0.041432545050000    -0.089870866180000
2 37
    -1.583322449700000    -0.796628494010000    -1.653838310040000
     0.796628494010000     1.470514537150000     0.747391081050000
    -1.653838310040000    -0.747391081050000    -1.631898416890000
2 38
    -1.583322449700000    -0.796628494010000     1.653838310040000
     0.796628494010000     1.470514537150000    -0.747391081050000
     1.653838310040000     0.747391081050000    -1.631898416890000
2 39
    -0.088285173960000    -0.039287260340000     0.075391245350000
     0.039287260340000     0.071866497290000     0.041432545050000
     0.075391245350000    -0.041432545050000    -0.089870866180000
2 40
    -0.088285173960000    -0.039287260340000    -0.075391245350000
     0.039287260340000     0.071866497290000    -0.041432545050000
    -0.075391245350000     0.041432545050000    -0.089870866180000
2 41
    -0.122765511990000    -0.156623800330000     0.233272477270000
    -0.156623800330000    -0.122765511990000     0.233272477270000
     0.233272477270000     0.233272477270000    -0.337655393980000
2 42
     0.166739824860000    -0.088056364410000    -0.028781238640000
    -0.088056364410000     0.052377809020000     0.083387448490000
    -0.028781238640000     0.083387448490000     0.146638575590000
2 43
     0.052377809020000    -0.088056364410000     0.083387448490000
    -0.088056364410000     0.166739824860000    -0.028781238640000
     0.083387448490000    -0.028781238640000     0.146638575590000
2 44
   -10.086146687059999    -2.838770302940000     2.989499825130000
    -2.838770302940000   -10.086146687059999     2.989499825130000
     2.989499825130000     2.989499825130000    -9.890699851539999
2 45
     0.033976236360000    -0.027414146620000     0.032242688730000
    -0.027414146620000     0.033976236360000     0.032242688730000
     0.032242688730000     0.032242688730000     0.033358510630000
2 46
    -0.360791943060000    -0.227198034130000     0.234584799130000
    -0.227198034130000    -0.084890505030000     0.103649284830000
     0.234584799130000     0.103649284830000    -0.073298809040000
2 47
    -0.084890505030000    -0.227198034130000     0.103649284830000
    -0.227198034130000    -0.360791943060000     0.234584799130000
     0.103649284830000     0.234584799130000    -0.073298809040000
2 48
     0.170505994020000     0.055777762790000     0.115572844750000
     0.055777762790000     0.170505994020000     0.115572844750000
     0.115572844750000     0.115572844750000     0.096014973120000
2 49
    -1.723019988500000    -1.847331556410000    -0.770861535930000
    -1.847331556410000    -1.723019988500000    -0.770861535930000
     0.770861535930000     0.770861535930000     1.427270973520000
2 50
    -1.723019988500000     1.847331556410000    -0.770861535930000
     1.847331556410000    -1.723019988500000     0.770861535930000
     0.770861535930000    -0.770861535930000     1.427270973520000
2 51
    -1.723019988500000     1.847331556410000     0.770861535930000
     1.847331556410000    -1.723019988500000    -0.770861535930000
    -0.770861535930000     0.770861535930000     1.427270973520000
2 52
    -1.723019988500000    -1.847331556410000     0.770861535930000
    -1.847331556410000    -1.723019988500000     0.770861535930000
    -0.770861535930000    -0.770861535930000     1.427270973520000
2 53
    -0.083062791160000     0.065951560230000    -0.043638965750000
     0.065951560230000    -0.083062791160000    -0.043638965750000
     0.043638965750000     0.043638965750000     0.052465849650000
2 54
    -0.083062791160000    -0.065951560230000    -0.043638965750000
    -0.065951560230000    -0.083062791160000     0.043638965750000
     0.043638965750000    -0.043638965750000     0.052465849650000
2 55
    -0.083062791160000    -0.065951560230000     0.043638965750000
    -0.065951560230000    -0.083062791160000    -0.043638965750000
    -0.043638965750000     0.043638965750000     0.052465849650000
2 56
    -0.083062791160000     0.065951560230000     0.043638965750000
     0.065951560230000    -0.083062791160000     0.043638965750000
    -0.043638965750000    -0.043638965750000     0.052465849650000
2 57
     0.052377809020000     0.088056364410000    -0.083387448490000
     0.088056364410000     0.166739824860000    -0.028781238640000
    -0.083387448490000    -0.028781238640000     0.146638575590000
2 58
   -10.086146687059999     2.838770302940000    -2.989499825130000
     2.838770302940000   -10.086146687059999     2.989499825130000
    -2.989499825130000     2.989499825130000    -9.890699851539999
2 59
    -0.122765511990000     0.156623800330000    -0.233272477270000
     0.156623800330000    -0.122765511990000     0.233272477270000
    -0.233272477270000     0.233272477270000    -0.337655393980000
2 60
     0.166739824860000     0.088056364410000     0.028781238640000
     0.088056364410000     0.052377809020000     0.083387448490000
     0.028781238640000     0.083387448490000     0.146638575590000
2 61
    -0.084890505030000     0.227198034130000    -0.103649284830000
     0.227198034130000    -0.360791943060000     0.234584799130000
    -0.103649284830000     0.234584799130000    -0.073298809040000
2 62
     0.170505994020000    -0.055777762790000    -0.115572844750000
    -0.055777762790000     0.170505994020000     0.115572844750000
    -0.115572844750000     0.115572844750000     0.096014973120000
2 63
     0.033976236360000     0.027414146620000    -0.032242688730000
     0.027414146620000     0.033976236360000     0.032242688730000
    -0.032242688730000     0.032242688730000     0.033358510630000
2 64
    -0.360791943060000     0.227198034130000    -0.234584799130000
     0.227198034130000    -0.084890505030000     0.103649284830000
    -0.234584799130000     0.103649284830000    -0.073298809040000
3 1
    -0.097304233860000     0.000000000000000     0.000000000000000
     0.000000000000000    -0.172791807430000     0.000000000000000
     0.000000000000000     0.000000000000000    -0.079106968310000
3 2
    -0.147164297060000    -0.000000000000000     0.000000000000000
    -0.000000000000000    -0.147164297060000    -0.000000000000000
     0.000000000000000    -0.000000000000000     0.564878170770000
3 3
    48.790129805939991    -0.000000000000000    -0.000000000000000
    -0.000000000000000    48.790129805939991     0.000000000000000
    -0.000000000000000     0.000000000000000    47.744495625759996
3 4
    -0.172791807430000    -0.000000000000000     0.000000000000000
    -0.000000000000000    -0.097304233860000     0.000000000000000
     0.000000000000000     0.000000000000000    -0.079106968310000
3 5
     0.589952694700000     0.000000000000000    -0.000000000000000
     0.000000000000000    -0.129952534060000    -0.000000000000000
    -0.000000000000000    -0.000000000000000    -0.123195145460000
3 6
    -0.056577335060000    -0.000000000000000    -0.000000000000000
    -0.000000000000000    -0.056577335060000     0.000000000000000
    -0.000000000000000     0.000000000000000    -0.053282237320000
3 7
    -0.111075926350000    -0.000000000000000    -0.000000000000000
    -0.000000000000000    -0.111075926350000    -0.000000000000000
    -0.000000000000000    -0.000000000000000    -0.187071445110000
3 8
    -0.129952534060000    -0.000000000000000    -0.000000000000000
    -0.000000000000000     0.589952694700000    -0.000000000000000
    -0.000000000000000    -0.000000000000000    -0.123195145460000
3 9
   -10.086146687059999     2.838770302940000     2.989499825130000
     2.838770302940000   -10.086146687059999    -2.989499825130000
     2.989499825130000    -2.989499825130000    -9.890699851539999
3 10
     0.052377809020000     0.088056364410000     0.083387448490000
     0.088056364410000     0.166739824860000     0.028781238640000
     0.083387448490000     0.028781238640000     0.146638575590000
3 11
     0.166739824860000     0.088056364410000    -0.028781238640000
     0.088056364410000     0.052377809020000    -0.083387448490000
    -0.028781238640000    -0.083387448490000     0.146638575590000
3 12
    -0.122765511990000     0.156623800330000     0.233272477270000
     0.156623800330000    -0.122765511990000    -0.233272477270000
     0.233272477270000    -0.233272477270000    -0.337655393980000
3 13
     0.170505994020000    -0.055777762790000     0.115572844750000
    -0.055777762790000     0.170505994020000    -0.115572844750000
     0.115572844750000    -0.115572844750000     0.096014973120000
3 14
    -0.084890505030000     0.227198034130000     0.103649284830000
     0.227198034130000    -0.360791943060000    -0.234584799130000
     0.103649284830000    -0.234584799130000    -0.073298809040000
3 15
    -0.360791943060000     0.227198034130000     0.234584799130000
     0.227198034130000    -0.084890505030000    -0.103649284830000
     0.234584799130000    -0.103649284830000    -0.073298809040000
3 16
     0.033976236360000     0.027414146620000     0.032242688730000
     0.027414146620000     0.033976236360000    -0.032242688730000
     0.032242688730000    -0.032242688730000     0.033358510630000
3 17
     1.470514537150000    -0.796628494010000    -0.747391081050000
     0.796628494010000    -1.583322449700000    -1.653838310040000
     0.747391081050000    -1.653838310040000    -1.631898416890000
3 18
     0.071866497290000    -0.039287260340000    -0.041432545050000
     0.039287260340000    -0.088285173960000     0.075391245350000