       N       E                     dE             d eps       ncg     rms          rms(c)
DAV:   1     0.513610577703E+03    0.51361E+03   -0.11452E+05 15360   0.107E+03
DAV:   2    -0.562697460830E+03   -0.10763E+04   -0.10266E+04 19968   0.234E+02
DAV:   3    -0.602721771161E+03   -0.40024E+02   -0.39793E+02 20288   0.423E+01
DAV:   4    -0.603122690809E+03   -0.40092E+00   -0.40008E+00 20384   0.468E+00
DAV:   5    -0.603130561409E+03   -0.78706E-02   -0.78675E-02 19008   0.601E-01    0.283E+01
DAV:   6    -0.585912259055E+03    0.17218E+02   -0.11257E+01 17920   0.686E+00    0.154E+01
DAV:   7    -0.580106417866E+03    0.58058E+01   -0.12691E+01 18592   0.750E+00    0.199E+00
DAV:   8    -0.580171703271E+03   -0.65285E-01   -0.28177E-01 19008   0.107E+00    0.223E-01
DAV:   9    -0.580173775197E+03   -0.20719E-02   -0.35983E-03 19872   0.146E-01    0.823E-02
DAV:  10    -0.580174209460E+03   -0.43426E-03   -0.36846E-04 18688   0.517E-02    0.821E-03
DAV:  11    -0.580174215555E+03   -0.60951E-05   -0.10613E-05 20000   0.780E-03    0.208E-03
DAV:  12    -0.580174215345E+03    0.20974E-06   -0.31832E-07 19328   0.143E-03    0.237E-04
DAV:  13    -0.580174215392E+03   -0.47381E-07   -0.50321E-09 14976   0.185E-04    0.485E-05
DAV:  14    -0.580174215415E+03   -0.22175E-07   -0.71379E-10 12800   0.713E-05    0.185E-05
DAV:  15    -0.580174215415E+03   -0.48749E-09   -0.12255E-10 11520   0.265E-05
   1 F= -.58017422E+03 E0= -.58017422E+03  d E =-.438715E-13
 Linear response reoptimize wavefunctions
DAV:   1    -0.580174215414E+03    0.14279E-08   -0.18056E-11 11520   0.114E-05
DAV:   2    -0.580174215413E+03    0.11460E-09   -0.11092E-12 11520   0.571E-06
DAV:   3    -0.580174215414E+03   -0.24920E-09    0.50362E-12 11520   0.282E-06
 Linear response DOF=           2
 Linear response progress:
  Degree of freedom:   1/  2
       N       E                     dE             d eps       ncg     rms          rms(c)
RMM:   1    -0.148936878237E+00   -0.14894E+00    0.32504E-03 86705   0.747E-01
RMM:   2    -0.126017018251E+00    0.22920E-01   -0.71411E-03 52042   0.192E-01    0.192E-01
RMM:   3    -0.125809422405E+00    0.20760E-03   -0.10496E-03 54561   0.545E-02    0.965E-02
RMM:   4    -0.126123266866E+00   -0.31384E-03   -0.30144E-04 54686   0.304E-02    0.283E-02
RMM:   5    -0.126221058656E+00   -0.97792E-04   -0.18983E-05 55552   0.820E-03    0.678E-03
RMM:   6    -0.126205323340E+00    0.15735E-04   -0.12458E-06 56259   0.202E-03    0.141E-03
RMM:   7    -0.126196857914E+00    0.84654E-05   -0.64391E-07 57277   0.614E-04    0.398E-04
RMM:   8    -0.126196323071E+00    0.53484E-06   -0.90658E-07 58640   0.261E-04    0.843E-05
RMM:   9    -0.126196073379E+00    0.24969E-06   -0.84029E-07 60179   0.150E-04    0.367E-05
RMM:  10    -0.126196133281E+00   -0.59902E-07   -0.88307E-07 61811   0.142E-04    0.102E-05
RMM:  11    -0.126196131286E+00    0.19954E-08   -0.86937E-07 62339   0.138E-04    0.413E-06
 Linear response progress:
  Degree of freedom:   2/  2
       N       E                     dE             d eps       ncg     rms          rms(c)
RMM:   1    -0.149975937766E+00   -0.14998E+00    0.44406E-03 56520   0.754E-01
RMM:   2    -0.125911743254E+00    0.24064E-01   -0.73590E-03 33688   0.194E-01    0.197E-01
RMM:   3    -0.125652936688E+00    0.25881E-03   -0.11592E-03 35219   0.567E-02    0.980E-02
RMM:   4    -0.125957100757E+00   -0.30416E-03   -0.31332E-04 35431   0.307E-02    0.296E-02
RMM:   5    -0.126061229739E+00   -0.10413E-03   -0.22150E-05 36031   0.872E-03    0.686E-03
RMM:   6    -0.126044578995E+00    0.16651E-04   -0.15535E-06 36451   0.208E-03    0.139E-03
RMM:   7    -0.126036237914E+00    0.83411E-05   -0.17611E-06 37040   0.610E-04    0.405E-04
RMM:   8    -0.126035668825E+00    0.56909E-06   -0.17048E-06 37794   0.260E-04    0.864E-05
RMM:   9    -0.126035396873E+00    0.27195E-06   -0.15556E-06 38797   0.151E-04    0.366E-05
RMM:  10    -0.126035452018E+00   -0.55145E-07   -0.14869E-06 39642   0.142E-04    0.107E-05
RMM:  11    -0.126035454185E+00   -0.21665E-08   -0.14665E-06 39950   0.138E-04    0.413E-06
 Linear response finished
