 vasp.5.4.4.18Apr17-6-g9f103f2a35 (build Mar 12 2022 03:36:41) complex          
  
 executed on IFC19.0.3.199_CrayMP date 2022.12.02  02:13:54
 running on   32 total cores
 distrk:  each k-point on   32 cores,    1 groups
 distr:  one band on NCORES_PER_BAND=   1 cores,   32 groups


--------------------------------------------------------------------------------------------------------


 INCAR:
 POTCAR:   PAW_PBE C 08Apr2002                    

 ----------------------------------------------------------------------------- 
|                                                                             |
|           W    W    AA    RRRRR   N    N  II  N    N   GGGG   !!!           |
|           W    W   A  A   R    R  NN   N  II  NN   N  G    G  !!!           |
|           W    W  A    A  R    R  N N  N  II  N N  N  G       !!!           |
|           W WW W  AAAAAA  RRRRR   N  N N  II  N  N N  G  GGG   !            |
|           WW  WW  A    A  R   R   N   NN  II  N   NN  G    G                |
|           W    W  A    A  R    R  N    N  II  N    N   GGGG   !!!           |
|                                                                             |
|      For optimal performance we recommend to set                            |
|        NCORE= 4 - approx SQRT( number of cores)                             |
|      NCORE specifies how many cores store one orbital (NPAR=cpu/NCORE).     |
|      This setting can  greatly improve the performance of VASP for DFT.     |
|      The default,   NCORE=1            might be grossly inefficient         |
|      on modern multi-core architectures or massively parallel machines.     |
|      Do your own testing !!!!                                               |
|      Unfortunately you need to use the default for GW and RPA calculations. |
|      (for HF NCORE is supported but not extensively tested yet)             |
|                                                                             |
 ----------------------------------------------------------------------------- 

 POTCAR:   PAW_PBE C 08Apr2002                    
   VRHFIN =C: s2p2                                                              
   LEXCH  = PE                                                                  
   EATOM  =   147.1560 eV,   10.8157 Ry                                         
                                                                                
   TITEL  = PAW_PBE C 08Apr2002                                                 
   LULTRA =        F    use ultrasoft PP ?                                      
   IUNSCR =        0    unscreen: 0-lin 1-nonlin 2-no                           
   RPACOR =     .000    partial core radius                                     
   POMASS =   12.011; ZVAL   =    4.000    mass and valenz                      
   RCORE  =    1.500    outmost cutoff radius                                   
   RWIGS  =    1.630; RWIGS  =     .863    wigner-seitz radius (au A)           
   ENMAX  =  400.000; ENMIN  =  300.000 eV                                      
   ICORE  =        2    local potential                                         
   LCOR   =        T    correct aug charges                                     
   LPAW   =        T    paw PP                                                  
   EAUG   =  644.873                                                            
   DEXC   =     .000                                                            
   RMAX   =    2.266    core radius for proj-oper                               
   RAUG   =    1.300    factor for augmentation sphere                          
   RDEP   =    1.501    radius for radial grids                                 
   RDEPT  =    1.300    core radius for aug-charge                              
   QCUT   =   -5.516; QGAM   =   11.032    optimization parameters              
                                                                                
   Description                                                                  
     l     E      TYP  RCUT    TYP  RCUT                                        
     0   .000     23  1.200                                                     
     0   .000     23  1.200                                                     
     1   .000     23  1.500                                                     
     1  2.500     23  1.500                                                     
     2   .000      7  1.500                                                     
  local pseudopotential read in
  atomic valenz-charges read in
  non local Contribution for L=           0  read in
    real space projection operators read in
  non local Contribution for L=           0  read in
    real space projection operators read in
  non local Contribution for L=           1  read in
    real space projection operators read in
  non local Contribution for L=           1  read in
    real space projection operators read in
    PAW grid and wavefunctions read in
 
   number of l-projection  operators is LMAX  =           4
   number of lm-projection operators is LMMAX =           8
 

 ----------------------------------------------------------------------------- 
|                                                                             |
|  ADVICE TO THIS USER RUNNING 'VASP/VAMP'   (HEAR YOUR MASTER'S VOICE ...):  |
|                                                                             |
|      You have a (more or less) 'large supercell' and for larger cells       |
|      it might be more efficient to use real space projection operators      |
|      So try LREAL= Auto  in the INCAR   file.                               |
|      Mind: If you want to do a very accurate calculations keep the          |
|      reciprocal projection scheme          (i.e. LREAL=.FALSE.)             |
|                                                                             |
 ----------------------------------------------------------------------------- 

 PAW_PBE C 08Apr2002                    :
 energy of atom  1       EATOM= -147.1560
 kinetic energy error for atom=    0.0288 (will be added to EATOM!!)
 
 
 POSCAR: generated by phonopy                    
  positions in direct lattice
  No initial velocities read in
 exchange correlation table for  LEXCH =        8
   RHO(1)=    0.500       N(1)  =     2000
   RHO(2)=  100.500       N(2)  =     4000
 


--------------------------------------------------------------------------------------------------------


 ion  position               nearest neighbor table
   1  0.125  0.375  0.125-  11 1.52  25 1.52  43 1.52  57 1.52
   2  0.625  0.375  0.125-  12 1.52  26 1.52  44 1.52  58 1.52
   3  0.125  0.875  0.125-   9 1.52  27 1.52  41 1.52  59 1.52
   4  0.625  0.875  0.125-  10 1.52  28 1.52  42 1.52  60 1.52
   5  0.125  0.375  0.625-  15 1.52  29 1.52  47 1.52  61 1.52
   6  0.625  0.375  0.625-  16 1.52  30 1.52  48 1.52  62 1.52
   7  0.125  0.875  0.625-  13 1.52  31 1.52  45 1.52  63 1.52
   8  0.625  0.875  0.625-  14 1.52  32 1.52  46 1.52  64 1.52
   9  0.000  0.000  0.250-   3 1.52  17 1.52  36 1.52  50 1.52
  10  0.500  0.000  0.250-   4 1.52  18 1.52  35 1.52  49 1.52
  11  0.000  0.500  0.250-   1 1.52  19 1.52  34 1.52  52 1.52
  12  0.500  0.500  0.250-   2 1.52  20 1.52  33 1.52  51 1.52
  13  0.000  0.000  0.750-   7 1.52  21 1.52  40 1.52  54 1.52
  14  0.500  0.000  0.750-   8 1.52  22 1.52  39 1.52  53 1.52
  15  0.000  0.500  0.750-   5 1.52  23 1.52  38 1.52  56 1.52
  16  0.500  0.500  0.750-   6 1.52  24 1.52  37 1.52  55 1.52
  17  0.125  0.125  0.375-   9 1.52  29 1.52  45 1.52  57 1.52
  18  0.625  0.125  0.375-  10 1.52  30 1.52  46 1.52  58 1.52
  19  0.125  0.625  0.375-  11 1.52  31 1.52  47 1.52  59 1.52
  20  0.625  0.625  0.375-  12 1.52  32 1.52  48 1.52  60 1.52
  21  0.125  0.125  0.875-  13 1.52  25 1.52  41 1.52  61 1.52
  22  0.625  0.125  0.875-  14 1.52  26 1.52  42 1.52  62 1.52
  23  0.125  0.625  0.875-  15 1.52  27 1.52  43 1.52  63 1.52
  24  0.625  0.625  0.875-  16 1.52  28 1.52  44 1.52  64 1.52
  25  0.000  0.250  0.000-   1 1.52  21 1.52  38 1.52  50 1.52
  26  0.500  0.250  0.000-   2 1.52  22 1.52  37 1.52  49 1.52
  27  0.000  0.750  0.000-   3 1.52  23 1.52  40 1.52  52 1.52
  28  0.500  0.750  0.000-   4 1.52  24 1.52  39 1.52  51 1.52
  29  0.000  0.250  0.500-   5 1.52  17 1.52  34 1.52  54 1.52
  30  0.500  0.250  0.500-   6 1.52  18 1.52  33 1.52  53 1.52
  31  0.000  0.750  0.500-   7 1.52  19 1.52  36 1.52  56 1.52
  32  0.500  0.750  0.500-   8 1.52  20 1.52  35 1.52  55 1.52
  33  0.375  0.375  0.375-  12 1.52  30 1.52  47 1.52  57 1.52
  34  0.875  0.375  0.375-  11 1.52  29 1.52  48 1.52  58 1.52
  35  0.375  0.875  0.375-  10 1.52  32 1.52  45 1.52  59 1.52
  36  0.875  0.875  0.375-   9 1.52  31 1.52  46 1.52  60 1.52
  37  0.375  0.375  0.875-  16 1.52  26 1.52  43 1.52  61 1.52
  38  0.875  0.375  0.875-  15 1.52  25 1.52  44 1.52  62 1.52
  39  0.375  0.875  0.875-  14 1.52  28 1.52  41 1.52  63 1.52
  40  0.875  0.875  0.875-  13 1.52  27 1.52  42 1.52  64 1.52
  41  0.250  0.000  0.000-   3 1.52  21 1.52  39 1.52  49 1.52
  42  0.750  0.000  0.000-   4 1.52  22 1.52  40 1.52  50 1.52
  43  0.250  0.500  0.000-   1 1.52  23 1.52  37 1.52  51 1.52
  44  0.750  0.500  0.000-   2 1.52  24 1.52  38 1.52  52 1.52
  45  0.250  0.000  0.500-   7 1.52  17 1.52  35 1.52  53 1.52
  46  0.750  0.000  0.500-   8 1.52  18 1.52  36 1.52  54 1.52
  47  0.250  0.500  0.500-   5 1.52  19 1.52  33 1.52  55 1.52
  48  0.750  0.500  0.500-   6 1.52  20 1.52  34 1.52  56 1.52
  49  0.375  0.125  0.125-  10 1.52  26 1.52  41 1.52  57 1.52
  50  0.875  0.125  0.125-   9 1.52  25 1.52  42 1.52  58 1.52
  51  0.375  0.625  0.125-  12 1.52  28 1.52  43 1.52  59 1.52
  52  0.875  0.625  0.125-  11 1.52  27 1.52  44 1.52  60 1.52
  53  0.375  0.125  0.625-  14 1.52  30 1.52  45 1.52  61 1.52
  54  0.875  0.125  0.625-  13 1.52  29 1.52  46 1.52  62 1.52
  55  0.375  0.625  0.625-  16 1.52  32 1.52  47 1.52  63 1.52
  56  0.875  0.625  0.625-  15 1.52  31 1.52  48 1.52  64 1.52
  57  0.250  0.250  0.250-   1 1.52  17 1.52  33 1.52  49 1.52
  58  0.750  0.250  0.250-   2 1.52  18 1.52  34 1.52  50 1.52
  59  0.250  0.750  0.250-   3 1.52  19 1.52  35 1.52  51 1.52
  60  0.750  0.750  0.250-   4 1.52  20 1.52  36 1.52  52 1.52
  61  0.250  0.250  0.750-   5 1.52  21 1.52  37 1.52  53 1.52
  62  0.750  0.250  0.750-   6 1.52  22 1.52  38 1.52  54 1.52
  63  0.250  0.750  0.750-   7 1.52  23 1.52  39 1.52  55 1.52
  64  0.750  0.750  0.750-   8 1.52  24 1.52  40 1.52  56 1.52
 
  LATTYP: Found a simple tetragonal cell.
 ALAT       =     6.9612662353
 C/A-ratio  =     1.0314213643
  
  Lattice vectors:
  
 A1 = (   6.9612662353,   0.0000000000,   0.0000000000)
 A2 = (   0.0000000000,   6.9612662353,   0.0000000000)
 A3 = (   0.0000000000,   0.0000000000,   7.1799987179)


Analysis of symmetry for initial positions (statically):
=====================================================================
 Subroutine PRICEL returns following result:
 
  LATTYP: Found a body centered tetragonal cell.
 ALAT       =     2.4611792803
 C/A-ratio  =     1.4586500820
  
  Lattice vectors:
  
 A1 = (   0.0000000000,  -1.7403165588,   1.7949996795)
 A2 = (   0.0000000000,   1.7403165588,   1.7949996795)
 A3 = (  -1.7403165588,   0.0000000000,  -1.7949996795)
 
  32 primitive cells build up your supercell.
 

 Routine SETGRP: Setting up the symmetry group for a 
 simple tetragonal supercell.


 Subroutine GETGRP returns: Found 16 space group operations
 (whereof  8 operations were pure point group operations)
 out of a pool of 16 trial point group operations.


The static configuration has the point symmetry D_2d.
 The point group associated with its full space group is D_4h.


Analysis of symmetry for dynamics (positions and initial velocities):
=====================================================================
 Subroutine PRICEL returns following result:
 
  LATTYP: Found a body centered tetragonal cell.
 ALAT       =     2.4611792803
 C/A-ratio  =     1.4586500820
  
  Lattice vectors:
  
 A1 = (   0.0000000000,  -1.7403165588,   1.7949996795)
 A2 = (   0.0000000000,   1.7403165588,   1.7949996795)
 A3 = (  -1.7403165588,   0.0000000000,  -1.7949996795)
 
  32 primitive cells build up your supercell.
 

 Routine SETGRP: Setting up the symmetry group for a 
 simple tetragonal supercell.


 Subroutine GETGRP returns: Found 16 space group operations
 (whereof  8 operations were pure point group operations)
 out of a pool of 16 trial point group operations.


The dynamic configuration has the point symmetry D_2d.
 The point group associated with its full space group is D_4h.


 Subroutine INISYM returns: Found 16 space group operations
 (whereof  8 operations are pure point group operations),
 and found    32 'primitive' translations

 
 
 KPOINTS: kpt_density=3000                        

Automatic generation of k-mesh.
Space group operators:
 irot       det(A)        alpha          n_x          n_y          n_z        tau_x        tau_y        tau_z
    1     1.000000     0.000000     1.000000     0.000000     0.000000     0.000000     0.000000     0.000000
    2    -1.000000    90.000000     0.000000     0.000000    -1.000000     0.000000     0.000000     0.000000
    3     1.000000   180.000000     0.000000     0.000000     1.000000     0.000000     0.000000     0.000000
    4    -1.000000    90.000000     0.000000     0.000000     1.000000     0.000000     0.000000     0.000000
    5     1.000000   180.000000     0.000000     1.000000     0.000000     0.000000     0.000000     0.000000
    6    -1.000000   180.000000     0.707107     0.707107     0.000000     0.000000     0.000000     0.000000
    7     1.000000   180.000000     1.000000     0.000000     0.000000     0.000000     0.000000     0.000000
    8    -1.000000   180.000000     0.707107    -0.707107     0.000000     0.000000     0.000000     0.000000
    9    -1.000000     0.000000     1.000000     0.000000     0.000000    -0.125000    -0.125000     0.125000
   10     1.000000    90.000000     0.000000     0.000000    -1.000000    -0.125000    -0.125000     0.125000
   11    -1.000000   180.000000     0.000000     0.000000     1.000000    -0.125000    -0.125000     0.125000
   12     1.000000    90.000000     0.000000     0.000000     1.000000    -0.125000    -0.125000     0.125000
   13    -1.000000   180.000000     0.000000     1.000000     0.000000    -0.125000    -0.125000     0.125000
   14     1.000000   180.000000     0.707107     0.707107     0.000000    -0.125000    -0.125000     0.125000
   15    -1.000000   180.000000     1.000000     0.000000     0.000000    -0.125000    -0.125000     0.125000
   16     1.000000   180.000000     0.707107    -0.707107     0.000000    -0.125000    -0.125000     0.125000
 
 Subroutine IBZKPT returns following result:
 ===========================================
 
 Found     40 irreducible k-points:
 
 Following reciprocal coordinates:
            Coordinates               Weight
  0.000000  0.000000  0.000000      1.000000
  0.166667  0.000000  0.000000      4.000000
  0.333333  0.000000  0.000000      4.000000
  0.500000  0.000000  0.000000      2.000000
  0.166667  0.166667  0.000000      4.000000
  0.333333  0.166667  0.000000      8.000000
  0.500000  0.166667  0.000000      4.000000
  0.333333  0.333333  0.000000      4.000000
  0.500000  0.333333  0.000000      4.000000
  0.500000  0.500000  0.000000      1.000000
  0.000000  0.000000  0.166667      2.000000
  0.166667  0.000000  0.166667      8.000000
  0.333333  0.000000  0.166667      8.000000
  0.500000  0.000000  0.166667      4.000000
  0.166667  0.166667  0.166667      8.000000
  0.333333  0.166667  0.166667     16.000000
  0.500000  0.166667  0.166667      8.000000
  0.333333  0.333333  0.166667      8.000000
  0.500000  0.333333  0.166667      8.000000
  0.500000  0.500000  0.166667      2.000000
  0.000000  0.000000  0.333333      2.000000
  0.166667  0.000000  0.333333      8.000000
  0.333333  0.000000  0.333333      8.000000
  0.500000  0.000000  0.333333      4.000000
  0.166667  0.166667  0.333333      8.000000
  0.333333  0.166667  0.333333     16.000000
  0.500000  0.166667  0.333333      8.000000
  0.333333  0.333333  0.333333      8.000000
  0.500000  0.333333  0.333333      8.000000
  0.500000  0.500000  0.333333      2.000000
  0.000000  0.000000  0.500000      1.000000
  0.166667  0.000000  0.500000      4.000000
  0.333333  0.000000  0.500000      4.000000
  0.500000  0.000000  0.500000      2.000000
  0.166667  0.166667  0.500000      4.000000
  0.333333  0.166667  0.500000      8.000000
  0.500000  0.166667  0.500000      4.000000
  0.333333  0.333333  0.500000      4.000000
  0.500000  0.333333  0.500000      4.000000
  0.500000  0.500000  0.500000      1.000000
 
 Following cartesian coordinates:
            Coordinates               Weight
  0.000000  0.000000  0.000000      1.000000
  0.023942  0.000000  0.000000      4.000000
  0.047884  0.000000  0.000000      4.000000
  0.071826  0.000000  0.000000      2.000000
  0.023942  0.023942  0.000000      4.000000
  0.047884  0.023942  0.000000      8.000000
  0.071826  0.023942  0.000000      4.000000
  0.047884  0.047884  0.000000      4.000000
  0.071826  0.047884  0.000000      4.000000
  0.071826  0.071826  0.000000      1.000000
  0.000000  0.000000  0.023213      2.000000
  0.023942  0.000000  0.023213      8.000000
  0.047884  0.000000  0.023213      8.000000
  0.071826  0.000000  0.023213      4.000000
  0.023942  0.023942  0.023213      8.000000
  0.047884  0.023942  0.023213     16.000000
  0.071826  0.023942  0.023213      8.000000
  0.047884  0.047884  0.023213      8.000000
  0.071826  0.047884  0.023213      8.000000
  0.071826  0.071826  0.023213      2.000000
  0.000000  0.000000  0.046425      2.000000
  0.023942  0.000000  0.046425      8.000000
  0.047884  0.000000  0.046425      8.000000
  0.071826  0.000000  0.046425      4.000000
  0.023942  0.023942  0.046425      8.000000
  0.047884  0.023942  0.046425     16.000000
  0.071826  0.023942  0.046425      8.000000
  0.047884  0.047884  0.046425      8.000000
  0.071826  0.047884  0.046425      8.000000
  0.071826  0.071826  0.046425      2.000000
  0.000000  0.000000  0.069638      1.000000
  0.023942  0.000000  0.069638      4.000000
  0.047884  0.000000  0.069638      4.000000
  0.071826  0.000000  0.069638      2.000000
  0.023942  0.023942  0.069638      4.000000
  0.047884  0.023942  0.069638      8.000000
  0.071826  0.023942  0.069638      4.000000
  0.047884  0.047884  0.069638      4.000000
  0.071826  0.047884  0.069638      4.000000
  0.071826  0.071826  0.069638      1.000000
 
 
 Subroutine IBZKPT_HF returns following result:
 ==============================================
 
 Found    216 k-points in 1st BZ
 the following    216 k-points will be used (e.g. in the exchange kernel)
 Following reciprocal coordinates:   # in IRBZ
  0.000000  0.000000  0.000000    0.00462963   1 t-inv F
  0.166667  0.000000  0.000000    0.00462963   2 t-inv F
  0.333333  0.000000  0.000000    0.00462963   3 t-inv F
  0.500000  0.000000  0.000000    0.00462963   4 t-inv F
  0.166667  0.166667  0.000000    0.00462963   5 t-inv F
  0.333333  0.166667  0.000000    0.00462963   6 t-inv F
  0.500000  0.166667  0.000000    0.00462963   7 t-inv F
  0.333333  0.333333  0.000000    0.00462963   8 t-inv F
  0.500000  0.333333  0.000000    0.00462963   9 t-inv F
  0.500000  0.500000  0.000000    0.00462963  10 t-inv F
  0.000000  0.000000  0.166667    0.00462963  11 t-inv F
  0.166667  0.000000  0.166667    0.00462963  12 t-inv F
  0.333333  0.000000  0.166667    0.00462963  13 t-inv F
  0.500000  0.000000  0.166667    0.00462963  14 t-inv F
  0.166667  0.166667  0.166667    0.00462963  15 t-inv F
  0.333333  0.166667  0.166667    0.00462963  16 t-inv F
  0.500000  0.166667  0.166667    0.00462963  17 t-inv F
  0.333333  0.333333  0.166667    0.00462963  18 t-inv F
  0.500000  0.333333  0.166667    0.00462963  19 t-inv F
  0.500000  0.500000  0.166667    0.00462963  20 t-inv F
  0.000000  0.000000  0.333333    0.00462963  21 t-inv F
  0.166667  0.000000  0.333333    0.00462963  22 t-inv F
  0.333333  0.000000  0.333333    0.00462963  23 t-inv F
  0.500000  0.000000  0.333333    0.00462963  24 t-inv F
  0.166667  0.166667  0.333333    0.00462963  25 t-inv F
  0.333333  0.166667  0.333333    0.00462963  26 t-inv F
  0.500000  0.166667  0.333333    0.00462963  27 t-inv F
  0.333333  0.333333  0.333333    0.00462963  28 t-inv F
  0.500000  0.333333  0.333333    0.00462963  29 t-inv F
  0.500000  0.500000  0.333333    0.00462963  30 t-inv F
  0.000000  0.000000  0.500000    0.00462963  31 t-inv F
  0.166667  0.000000  0.500000    0.00462963  32 t-inv F
  0.333333  0.000000  0.500000    0.00462963  33 t-inv F
  0.500000  0.000000  0.500000    0.00462963  34 t-inv F
  0.166667  0.166667  0.500000    0.00462963  35 t-inv F
  0.333333  0.166667  0.500000    0.00462963  36 t-inv F
  0.500000  0.166667  0.500000    0.00462963  37 t-inv F
  0.333333  0.333333  0.500000    0.00462963  38 t-inv F
  0.500000  0.333333  0.500000    0.00462963  39 t-inv F
  0.500000  0.500000  0.500000    0.00462963  40 t-inv F
  0.000000 -0.166667  0.000000    0.00462963   2 t-inv F
 -0.166667  0.000000  0.000000    0.00462963   2 t-inv F
  0.000000  0.166667  0.000000    0.00462963   2 t-inv F
  0.000000 -0.333333  0.000000    0.00462963   3 t-inv F
 -0.333333  0.000000  0.000000    0.00462963   3 t-inv F
  0.000000  0.333333  0.000000    0.00462963   3 t-inv F
  0.000000 -0.500000  0.000000    0.00462963   4 t-inv F
  0.166667 -0.166667  0.000000    0.00462963   5 t-inv F
 -0.166667 -0.166667  0.000000    0.00462963   5 t-inv F
 -0.166667  0.166667  0.000000    0.00462963   5 t-inv F
  0.166667 -0.333333  0.000000    0.00462963   6 t-inv F
 -0.333333 -0.166667  0.000000    0.00462963   6 t-inv F
 -0.166667  0.333333  0.000000    0.00462963   6 t-inv F
 -0.333333  0.166667  0.000000    0.00462963   6 t-inv F
 -0.166667 -0.333333  0.000000    0.00462963   6 t-inv F
  0.333333 -0.166667  0.000000    0.00462963   6 t-inv F
  0.166667  0.333333  0.000000    0.00462963   6 t-inv F
  0.166667 -0.500000  0.000000    0.00462963   7 t-inv F
 -0.500000 -0.166667  0.000000    0.00462963   7 t-inv F
 -0.166667  0.500000  0.000000    0.00462963   7 t-inv F
  0.333333 -0.333333  0.000000    0.00462963   8 t-inv F
 -0.333333 -0.333333  0.000000    0.00462963   8 t-inv F
 -0.333333  0.333333  0.000000    0.00462963   8 t-inv F
  0.333333 -0.500000  0.000000    0.00462963   9 t-inv F
 -0.500000 -0.333333  0.000000    0.00462963   9 t-inv F
 -0.333333  0.500000  0.000000    0.00462963   9 t-inv F
  0.000000  0.000000 -0.166667    0.00462963  11 t-inv F
  0.000000 -0.166667 -0.166667    0.00462963  12 t-inv F
 -0.166667  0.000000  0.166667    0.00462963  12 t-inv F
  0.000000  0.166667 -0.166667    0.00462963  12 t-inv F
 -0.166667  0.000000 -0.166667    0.00462963  12 t-inv F
  0.000000 -0.166667  0.166667    0.00462963  12 t-inv F
  0.166667  0.000000 -0.166667    0.00462963  12 t-inv F
  0.000000  0.166667  0.166667    0.00462963  12 t-inv F
  0.000000 -0.333333 -0.166667    0.00462963  13 t-inv F
 -0.333333  0.000000  0.166667    0.00462963  13 t-inv F
  0.000000  0.333333 -0.166667    0.00462963  13 t-inv F
 -0.333333  0.000000 -0.166667    0.00462963  13 t-inv F
  0.000000 -0.333333  0.166667    0.00462963  13 t-inv F
  0.333333  0.000000 -0.166667    0.00462963  13 t-inv F
  0.000000  0.333333  0.166667    0.00462963  13 t-inv F
  0.000000 -0.500000 -0.166667    0.00462963  14 t-inv F
 -0.500000  0.000000 -0.166667    0.00462963  14 t-inv F
  0.000000 -0.500000  0.166667    0.00462963  14 t-inv F
  0.166667 -0.166667 -0.166667    0.00462963  15 t-inv F
 -0.166667 -0.166667  0.166667    0.00462963  15 t-inv F
 -0.166667  0.166667 -0.166667    0.00462963  15 t-inv F
 -0.166667 -0.166667 -0.166667    0.00462963  15 t-inv F
 -0.166667  0.166667  0.166667    0.00462963  15 t-inv F
  0.166667  0.166667 -0.166667    0.00462963  15 t-inv F
  0.166667 -0.166667  0.166667    0.00462963  15 t-inv F
  0.166667 -0.333333 -0.166667    0.00462963  16 t-inv F
 -0.333333 -0.166667  0.166667    0.00462963  16 t-inv F
 -0.166667  0.333333 -0.166667    0.00462963  16 t-inv F
 -0.333333  0.166667 -0.166667    0.00462963  16 t-inv F
 -0.166667 -0.333333  0.166667    0.00462963  16 t-inv F
  0.333333 -0.166667 -0.166667    0.00462963  16 t-inv F
  0.166667  0.333333  0.166667    0.00462963  16 t-inv F
 -0.333333 -0.166667 -0.166667    0.00462963  16 t-inv F
 -0.166667  0.333333  0.166667    0.00462963  16 t-inv F
  0.333333  0.166667 -0.166667    0.00462963  16 t-inv F
  0.166667 -0.333333  0.166667    0.00462963  16 t-inv F
  0.333333 -0.166667  0.166667    0.00462963  16 t-inv F
  0.166667  0.333333 -0.166667    0.00462963  16 t-inv F
 -0.333333  0.166667  0.166667    0.00462963  16 t-inv F
 -0.166667 -0.333333 -0.166667    0.00462963  16 t-inv F
  0.166667 -0.500000 -0.166667    0.00462963  17 t-inv F
 -0.500000 -0.166667  0.166667    0.00462963  17 t-inv F
 -0.166667  0.500000 -0.166667    0.00462963  17 t-inv F
 -0.500000  0.166667 -0.166667    0.00462963  17 t-inv F
 -0.166667 -0.500000  0.166667    0.00462963  17 t-inv F
  0.500000 -0.166667 -0.166667    0.00462963  17 t-inv F
  0.166667  0.500000  0.166667    0.00462963  17 t-inv F
  0.333333 -0.333333 -0.166667    0.00462963  18 t-inv F
 -0.333333 -0.333333  0.166667    0.00462963  18 t-inv F
 -0.333333  0.333333 -0.166667    0.00462963  18 t-inv F
 -0.333333 -0.333333 -0.166667    0.00462963  18 t-inv F
 -0.333333  0.333333  0.166667    0.00462963  18 t-inv F
  0.333333  0.333333 -0.166667    0.00462963  18 t-inv F
  0.333333 -0.333333  0.166667    0.00462963  18 t-inv F
  0.333333 -0.500000 -0.166667    0.00462963  19 t-inv F
 -0.500000 -0.333333  0.166667    0.00462963  19 t-inv F
 -0.333333  0.500000 -0.166667    0.00462963  19 t-inv F
 -0.500000  0.333333 -0.166667    0.00462963  19 t-inv F
 -0.333333 -0.500000  0.166667    0.00462963  19 t-inv F
  0.500000 -0.333333 -0.166667    0.00462963  19 t-inv F
  0.333333  0.500000  0.166667    0.00462963  19 t-inv F
  0.500000 -0.500000 -0.166667    0.00462963  20 t-inv F
  0.000000  0.000000 -0.333333    0.00462963  21 t-inv F
  0.000000 -0.166667 -0.333333    0.00462963  22 t-inv F
 -0.166667  0.000000  0.333333    0.00462963  22 t-inv F
  0.000000  0.166667 -0.333333    0.00462963  22 t-inv F
 -0.166667  0.000000 -0.333333    0.00462963  22 t-inv F
  0.000000 -0.166667  0.333333    0.00462963  22 t-inv F
  0.166667  0.000000 -0.333333    0.00462963  22 t-inv F
  0.000000  0.166667  0.333333    0.00462963  22 t-inv F
  0.000000 -0.333333 -0.333333    0.00462963  23 t-inv F
 -0.333333  0.000000  0.333333    0.00462963  23 t-inv F
  0.000000  0.333333 -0.333333    0.00462963  23 t-inv F
 -0.333333  0.000000 -0.333333    0.00462963  23 t-inv F
  0.000000 -0.333333  0.333333    0.00462963  23 t-inv F
  0.333333  0.000000 -0.333333    0.00462963  23 t-inv F
  0.000000  0.333333  0.333333    0.00462963  23 t-inv F
  0.000000 -0.500000 -0.333333    0.00462963  24 t-inv F
 -0.500000  0.000000 -0.333333    0.00462963  24 t-inv F
  0.000000 -0.500000  0.333333    0.00462963  24 t-inv F
  0.166667 -0.166667 -0.333333    0.00462963  25 t-inv F
 -0.166667 -0.166667  0.333333    0.00462963  25 t-inv F
 -0.166667  0.166667 -0.333333    0.00462963  25 t-inv F
 -0.166667 -0.166667 -0.333333    0.00462963  25 t-inv F
 -0.166667  0.166667  0.333333    0.00462963  25 t-inv F
  0.166667  0.166667 -0.333333    0.00462963  25 t-inv F
  0.166667 -0.166667  0.333333    0.00462963  25 t-inv F
  0.166667 -0.333333 -0.333333    0.00462963  26 t-inv F
 -0.333333 -0.166667  0.333333    0.00462963  26 t-inv F
 -0.166667  0.333333 -0.333333    0.00462963  26 t-inv F
 -0.333333  0.166667 -0.333333    0.00462963  26 t-inv F
 -0.166667 -0.333333  0.333333    0.00462963  26 t-inv F
  0.333333 -0.166667 -0.333333    0.00462963  26 t-inv F
  0.166667  0.333333  0.333333    0.00462963  26 t-inv F
 -0.333333 -0.166667 -0.333333    0.00462963  26 t-inv F
 -0.166667  0.333333  0.333333    0.00462963  26 t-inv F
  0.333333  0.166667 -0.333333    0.00462963  26 t-inv F
  0.166667 -0.333333  0.333333    0.00462963  26 t-inv F
  0.333333 -0.166667  0.333333    0.00462963  26 t-inv F
  0.166667  0.333333 -0.333333    0.00462963  26 t-inv F
 -0.333333  0.166667  0.333333    0.00462963  26 t-inv F
 -0.166667 -0.333333 -0.333333    0.00462963  26 t-inv F
  0.166667 -0.500000 -0.333333    0.00462963  27 t-inv F
 -0.500000 -0.166667  0.333333    0.00462963  27 t-inv F
 -0.166667  0.500000 -0.333333    0.00462963  27 t-inv F
 -0.500000  0.166667 -0.333333    0.00462963  27 t-inv F
 -0.166667 -0.500000  0.333333    0.00462963  27 t-inv F
  0.500000 -0.166667 -0.333333    0.00462963  27 t-inv F
  0.166667  0.500000  0.333333    0.00462963  27 t-inv F
  0.333333 -0.333333 -0.333333    0.00462963  28 t-inv F
 -0.333333 -0.333333  0.333333    0.00462963  28 t-inv F
 -0.333333  0.333333 -0.333333    0.00462963  28 t-inv F
 -0.333333 -0.333333 -0.333333    0.00462963  28 t-inv F
 -0.333333  0.333333  0.333333    0.00462963  28 t-inv F
  0.333333  0.333333 -0.333333    0.00462963  28 t-inv F
  0.333333 -0.333333  0.333333    0.00462963  28 t-inv F
  0.333333 -0.500000 -0.333333    0.00462963  29 t-inv F
 -0.500000 -0.333333  0.333333    0.00462963  29 t-inv F
 -0.333333  0.500000 -0.333333    0.00462963  29 t-inv F
 -0.500000  0.333333 -0.333333    0.00462963  29 t-inv F
 -0.333333 -0.500000  0.333333    0.00462963  29 t-inv F
  0.500000 -0.333333 -0.333333    0.00462963  29 t-inv F
  0.333333  0.500000  0.333333    0.00462963  29 t-inv F
  0.500000 -0.500000 -0.333333    0.00462963  30 t-inv F
  0.000000 -0.166667 -0.500000    0.00462963  32 t-inv F
 -0.166667  0.000000  0.500000    0.00462963  32 t-inv F
  0.000000  0.166667 -0.500000    0.00462963  32 t-inv F
  0.000000 -0.333333 -0.500000    0.00462963  33 t-inv F
 -0.333333  0.000000  0.500000    0.00462963  33 t-inv F
  0.000000  0.333333 -0.500000    0.00462963  33 t-inv F
  0.000000 -0.500000 -0.500000    0.00462963  34 t-inv F
  0.166667 -0.166667 -0.500000    0.00462963  35 t-inv F
 -0.166667 -0.166667  0.500000    0.00462963  35 t-inv F
 -0.166667  0.166667 -0.500000    0.00462963  35 t-inv F
  0.166667 -0.333333 -0.500000    0.00462963  36 t-inv F
 -0.333333 -0.166667  0.500000    0.00462963  36 t-inv F
 -0.166667  0.333333 -0.500000    0.00462963  36 t-inv F
 -0.333333  0.166667 -0.500000    0.00462963  36 t-inv F
 -0.166667 -0.333333  0.500000    0.00462963  36 t-inv F
  0.333333 -0.166667 -0.500000    0.00462963  36 t-inv F
  0.166667  0.333333  0.500000    0.00462963  36 t-inv F
  0.166667 -0.500000 -0.500000    0.00462963  37 t-inv F
 -0.500000 -0.166667  0.500000    0.00462963  37 t-inv F
 -0.166667  0.500000 -0.500000    0.00462963  37 t-inv F
  0.333333 -0.333333 -0.500000    0.00462963  38 t-inv F
 -0.333333 -0.333333  0.500000    0.00462963  38 t-inv F
 -0.333333  0.333333 -0.500000    0.00462963  38 t-inv F
  0.333333 -0.500000 -0.500000    0.00462963  39 t-inv F
 -0.500000 -0.333333  0.500000    0.00462963  39 t-inv F
 -0.333333  0.500000 -0.500000    0.00462963  39 t-inv F


--------------------------------------------------------------------------------------------------------




 Dimension of arrays:
   k-points           NKPTS =     40   k-points in BZ     NKDIM =     40   number of bands    NBANDS=    192
   number of dos      NEDOS =    301   number of ions     NIONS =     64
   non local maximal  LDIM  =      4   non local SUM 2l+1 LMDIM =      8
   total plane-waves  NPLWV = 110592
   max r-space proj   IRMAX =      1   max aug-charges    IRDMAX=  30203
   dimension x,y,z NGX =    48 NGY =   48 NGZ =   48
   dimension x,y,z NGXF=    96 NGYF=   96 NGZF=   96
   support grid    NGXF=   192 NGYF=  192 NGZF=  192
   ions per type =              64
   NGX,Y,Z   is equivalent  to a cutoff of  11.46, 11.46, 11.11 a.u.
   NGXF,Y,Z  is equivalent  to a cutoff of  22.93, 22.93, 22.23 a.u.

 SYSTEM =  unknown system                          
 POSCAR =  generated by phonopy                    

 Startparameter for this run:
   NWRITE =      2    write-flag & timer
   PREC   = accura    normal or accurate (medium, high low for compatibility)
   ISTART =      0    job   : 0-new  1-cont  2-samecut
   ICHARG =      2    charge: 1-file 2-atom 10-const
   ISPIN  =      1    spin polarized calculation?
   LNONCOLLINEAR =      F non collinear calculations
   LSORBIT =      F    spin-orbit coupling
   INIWAV =      1    electr: 0-lowe 1-rand  2-diag
   LASPH  =      F    aspherical Exc in radial PAW
   METAGGA=      F    non-selfconsistent MetaGGA calc.

 Electronic Relaxation 1
   ENCUT  =  400.0 eV  29.40 Ry    5.42 a.u.  11.35 11.35 11.71*2*pi/ulx,y,z
   ENINI  =  400.0     initial cutoff
   ENAUG  =  644.9 eV  augmentation charge cutoff
   NELM   =     60;   NELMIN=  2; NELMDL= -5     # of ELM steps 
   EDIFF  = 0.1E-07   stopping-criterion for ELM
   LREAL  =      F    real-space projection
   NLSPLINE    = F    spline interpolate recip. space projectors
   LCOMPAT=      F    compatible to vasp.4.4
   GGA_COMPAT  = T    GGA compatible to vasp.4.4-vasp.4.6
   LMAXPAW     = -100 max onsite density
   LMAXMIX     =    2 max onsite mixed and CHGCAR
   VOSKOWN=      0    Vosko Wilk Nusair interpolation
   ROPT   =    0.00000
 Ionic relaxation
   EDIFFG = 0.1E-06   stopping-criterion for IOM
   NSW    =      1    number of steps for IOM
   NBLOCK =      1;   KBLOCK =      1    inner block; outer block 
   IBRION =      8    ionic relax: 0-MD 1-quasi-New 2-CG
   NFREE  =      0    steps in history (QN), initial steepest desc. (CG)
   ISIF   =      2    stress and relaxation
   IWAVPR =     11    prediction:  0-non 1-charg 2-wave 3-comb
   ISYM   =      2    0-nonsym 1-usesym 2-fastsym
   LCORR  =      T    Harris-Foulkes like correction to forces

   POTIM  = 0.5000    time-step for ionic-motion
   TEIN   =    0.0    initial temperature
   TEBEG  =    0.0;   TEEND  =   0.0 temperature during run
   SMASS  =  -3.00    Nose mass-parameter (am)
   estimated Nose-frequenzy (Omega)   =  0.10E-29 period in steps =****** mass=  -0.111E-26a.u.
   SCALEE = 1.0000    scale energy and forces
   NPACO  =    256;   APACO  = 16.0  distance and # of slots for P.C.
   PSTRESS=    0.0 pullay stress

  Mass of Ions in am
   POMASS =  12.01
  Ionic Valenz
   ZVAL   =   4.00
  Atomic Wigner-Seitz radii
   RWIGS  =  -1.00
  virtual crystal weights 
   VCA    =   1.00
   NELECT =     256.0000    total number of electrons
   NUPDOWN=      -1.0000    fix difference up-down

 DOS related values:
   EMIN   =  10.00;   EMAX   =-10.00  energy-range for DOS
   EFERMI =   0.00
   ISMEAR =     0;   SIGMA  =   0.06  broadening in eV -4-tet -1-fermi 0-gaus

 Electronic relaxation 2 (details)
   IALGO  =     38    algorithm
   LDIAG  =      T    sub-space diagonalisation (order eigenvalues)
   LSUBROT=      F    optimize rotation matrix (better conditioning)
   TURBO    =      0    0=normal 1=particle mesh
   IRESTART =      0    0=no restart 2=restart with 2 vectors
   NREBOOT  =      0    no. of reboots
   NMIN     =      0    reboot dimension
   EREF     =   0.00    reference energy to select bands
   IMIX   =      4    mixing-type and parameters
     AMIX     =   0.40;   BMIX     =  1.00
     AMIX_MAG =   1.60;   BMIX_MAG =  1.00
     AMIN     =   0.10
     WC   =   100.;   INIMIX=   1;  MIXPRE=   1;  MAXMIX= -45

 Intra band minimization:
   WEIMIN = 0.0010     energy-eigenvalue tresh-hold
   EBREAK =  0.13E-10  absolut break condition
   DEPER  =   0.30     relativ break condition  

   TIME   =   0.40     timestep for ELM

  volume/ion in A,a.u.               =       5.44        36.69
  Fermi-wavevector in a.u.,A,eV,Ry     =   1.477932  2.792887 29.718986  2.184284
  Thomas-Fermi vector in A             =   2.592276
 
 Write flags
   LWAVE        =      F    write WAVECAR
   LDOWNSAMPLE  =      F    k-point downsampling of WAVECAR
   LCHARG       =      F    write CHGCAR
   LVTOT        =      F    write LOCPOT, total local potential
   LVHAR        =      F    write LOCPOT, Hartree potential only
   LELF         =      F    write electronic localiz. function (ELF)
   LORBIT       =      0    0 simple, 1 ext, 2 COOP (PROOUT), +10 PAW based schemes


 Dipole corrections
   LMONO  =      F    monopole corrections only (constant potential shift)
   LDIPOL =      F    correct potential (dipole corrections)
   IDIPOL =      0    1-x, 2-y, 3-z, 4-all directions 
   EPSILON=  1.0000000 bulk dielectric constant

 Exchange correlation treatment:
   GGA     =    --    GGA type
   LEXCH   =     8    internal setting for exchange type
   VOSKOWN=      0    Vosko Wilk Nusair interpolation
   LHFCALC =     F    Hartree Fock is set to
   LHFONE  =     F    Hartree Fock one center treatment
   AEXX    =    0.0000 exact exchange contribution

 Linear response parameters
   LEPSILON=     F    determine dielectric tensor
   LRPA    =     F    only Hartree local field effects (RPA)
   LNABLA  =     F    use nabla operator in PAW spheres
   LVEL    =     F    velocity operator in full k-point grid
   LINTERFAST=   F  fast interpolation
   KINTER  =     0    interpolate to denser k-point grid
   CSHIFT  =0.1000    complex shift for real part using Kramers Kronig
   OMEGAMAX=  -1.0    maximum frequency
   DEG_THRESHOLD= 0.2000000E-02 threshold for treating states as degnerate
   RTIME   =   -0.100 relaxation time in fs
  (WPLASMAI=    0.000 imaginary part of plasma frequency in eV, 0.658/RTIME)
   DFIELD  = 0.0000000 0.0000000 0.0000000 field for delta impulse in time
 
 Orbital magnetization related:
   ORBITALMAG=     F  switch on orbital magnetization
   LCHIMAG   =     F  perturbation theory with respect to B field
   DQ        =  0.001000  dq finite difference perturbation B field
   LLRAUG    =     F  two centre corrections for induced B field



--------------------------------------------------------------------------------------------------------


 linear response using symmetry
 charge density and potential will be updated during run
 non-spin polarized calculation
 Variant of blocked Davidson
 Davidson routine will perform the subspace rotation
 perform sub-space diagonalisation
    after iterative eigenvector-optimisation
 modified Broyden-mixing scheme, WC =      100.0
 initial mixing is a Kerker type mixing with AMIX =  0.4000 and BMIX =      1.0000
 Hartree-type preconditioning will be used
 using additional bands           64
 reciprocal scheme for non local part
 calculate Harris-corrections to forces 
   (improved forces if not selfconsistent)
 use gradient corrections 
 use of overlap-Matrix (Vanderbilt PP)
 Gauss-broadening in eV      SIGMA  =   0.06


--------------------------------------------------------------------------------------------------------


  energy-cutoff  :      400.00
  volume of cell :      347.94
      direct lattice vectors                 reciprocal lattice vectors
     6.961266235  0.000000000  0.000000000     0.143652026  0.000000000  0.000000000
     0.000000000  6.961266235  0.000000000     0.000000000  0.143652026  0.000000000
     0.000000000  0.000000000  7.179998718     0.000000000  0.000000000  0.139275791

  length of vectors
     6.961266235  6.961266235  7.179998718     0.143652026  0.143652026  0.139275791


 
 k-points in units of 2pi/SCALE and weight: kpt_density=3000                        
   0.00000000  0.00000000  0.00000000       0.005
   0.02394200  0.00000000  0.00000000       0.019
   0.04788401  0.00000000  0.00000000       0.019
   0.07182601  0.00000000  0.00000000       0.009
   0.02394200  0.02394200  0.00000000       0.019
   0.04788401  0.02394200  0.00000000       0.037
   0.07182601  0.02394200  0.00000000       0.019
   0.04788401  0.04788401  0.00000000       0.019
   0.07182601  0.04788401  0.00000000       0.019
   0.07182601  0.07182601  0.00000000       0.005
   0.00000000  0.00000000  0.02321263       0.009
   0.02394200  0.00000000  0.02321263       0.037
   0.04788401  0.00000000  0.02321263       0.037
   0.07182601  0.00000000  0.02321263       0.019
   0.02394200  0.02394200  0.02321263       0.037
   0.04788401  0.02394200  0.02321263       0.074
   0.07182601  0.02394200  0.02321263       0.037
   0.04788401  0.04788401  0.02321263       0.037
   0.07182601  0.04788401  0.02321263       0.037
   0.07182601  0.07182601  0.02321263       0.009
   0.00000000  0.00000000  0.04642526       0.009
   0.02394200  0.00000000  0.04642526       0.037
   0.04788401  0.00000000  0.04642526       0.037
   0.07182601  0.00000000  0.04642526       0.019
   0.02394200  0.02394200  0.04642526       0.037
   0.04788401  0.02394200  0.04642526       0.074
   0.07182601  0.02394200  0.04642526       0.037
   0.04788401  0.04788401  0.04642526       0.037
   0.07182601  0.04788401  0.04642526       0.037
   0.07182601  0.07182601  0.04642526       0.009
   0.00000000  0.00000000  0.06963790       0.005
   0.02394200  0.00000000  0.06963790       0.019
   0.04788401  0.00000000  0.06963790       0.019
   0.07182601  0.00000000  0.06963790       0.009
   0.02394200  0.02394200  0.06963790       0.019
   0.04788401  0.02394200  0.06963790       0.037
   0.07182601  0.02394200  0.06963790       0.019
   0.04788401  0.04788401  0.06963790       0.019
   0.07182601  0.04788401  0.06963790       0.019
   0.07182601  0.07182601  0.06963790       0.005
 
 k-points in reciprocal lattice and weights: kpt_density=3000                        
   0.00000000  0.00000000  0.00000000       0.005
   0.16666667  0.00000000  0.00000000       0.019
   0.33333333  0.00000000  0.00000000       0.019
   0.50000000  0.00000000  0.00000000       0.009
   0.16666667  0.16666667  0.00000000       0.019
   0.33333333  0.16666667  0.00000000       0.037
   0.50000000  0.16666667  0.00000000       0.019
   0.33333333  0.33333333  0.00000000       0.019
   0.50000000  0.33333333  0.00000000       0.019
   0.50000000  0.50000000  0.00000000       0.005
   0.00000000  0.00000000  0.16666667       0.009
   0.16666667  0.00000000  0.16666667       0.037
   0.33333333  0.00000000  0.16666667       0.037
   0.50000000  0.00000000  0.16666667       0.019
   0.16666667  0.16666667  0.16666667       0.037
   0.33333333  0.16666667  0.16666667       0.074
   0.50000000  0.16666667  0.16666667       0.037
   0.33333333  0.33333333  0.16666667       0.037
   0.50000000  0.33333333  0.16666667       0.037
   0.50000000  0.50000000  0.16666667       0.009
   0.00000000  0.00000000  0.33333333       0.009
   0.16666667  0.00000000  0.33333333       0.037
   0.33333333  0.00000000  0.33333333       0.037
   0.50000000  0.00000000  0.33333333       0.019
   0.16666667  0.16666667  0.33333333       0.037
   0.33333333  0.16666667  0.33333333       0.074
   0.50000000  0.16666667  0.33333333       0.037
   0.33333333  0.33333333  0.33333333       0.037
   0.50000000  0.33333333  0.33333333       0.037
   0.50000000  0.50000000  0.33333333       0.009
   0.00000000  0.00000000  0.50000000       0.005
   0.16666667  0.00000000  0.50000000       0.019
   0.33333333  0.00000000  0.50000000       0.019
   0.50000000  0.00000000  0.50000000       0.009
   0.16666667  0.16666667  0.50000000       0.019
   0.33333333  0.16666667  0.50000000       0.037
   0.50000000  0.16666667  0.50000000       0.019
   0.33333333  0.33333333  0.50000000       0.019
   0.50000000  0.33333333  0.50000000       0.019
   0.50000000  0.50000000  0.50000000       0.005
 
 position of ions in fractional coordinates (direct lattice) 
   0.12500000  0.37500000  0.12500000
   0.62500000  0.37500000  0.12500000
   0.12500000  0.87500000  0.12500000
   0.62500000  0.87500000  0.12500000
   0.12500000  0.37500000  0.62500000
   0.62500000  0.37500000  0.62500000
   0.12500000  0.87500000  0.62500000
   0.62500000  0.87500000  0.62500000
   0.00000000  0.00000000  0.25000000
   0.50000000  0.00000000  0.25000000
   0.00000000  0.50000000  0.25000000
   0.50000000  0.50000000  0.25000000
   0.00000000  0.00000000  0.75000000
   0.50000000  0.00000000  0.75000000
   0.00000000  0.50000000  0.75000000
   0.50000000  0.50000000  0.75000000
   0.12500000  0.12500000  0.37500000
   0.62500000  0.12500000  0.37500000
   0.12500000  0.62500000  0.37500000
   0.62500000  0.62500000  0.37500000
   0.12500000  0.12500000  0.87500000
   0.62500000  0.12500000  0.87500000
   0.12500000  0.62500000  0.87500000
   0.62500000  0.62500000  0.87500000
   0.00000000  0.25000000  0.00000000
   0.50000000  0.25000000  0.00000000
   0.00000000  0.75000000  0.00000000
   0.50000000  0.75000000  0.00000000
   0.00000000  0.25000000  0.50000000
   0.50000000  0.25000000  0.50000000
   0.00000000  0.75000000  0.50000000
   0.50000000  0.75000000  0.50000000
   0.37500000  0.37500000  0.37500000
   0.87500000  0.37500000  0.37500000
   0.37500000  0.87500000  0.37500000
   0.87500000  0.87500000  0.37500000
   0.37500000  0.37500000  0.87500000
   0.87500000  0.37500000  0.87500000
   0.37500000  0.87500000  0.87500000
   0.87500000  0.87500000  0.87500000
   0.25000000  0.00000000  0.00000000
   0.75000000  0.00000000  0.00000000
   0.25000000  0.50000000  0.00000000
   0.75000000  0.50000000  0.00000000
   0.25000000  0.00000000  0.50000000
   0.75000000  0.00000000  0.50000000
   0.25000000  0.50000000  0.50000000
   0.75000000  0.50000000  0.50000000
   0.37500000  0.12500000  0.12500000
   0.87500000  0.12500000  0.12500000
   0.37500000  0.62500000  0.12500000
   0.87500000  0.62500000  0.12500000
   0.37500000  0.12500000  0.62500000
   0.87500000  0.12500000  0.62500000
   0.37500000  0.62500000  0.62500000
   0.87500000  0.62500000  0.62500000
   0.25000000  0.25000000  0.25000000
   0.75000000  0.25000000  0.25000000
   0.25000000  0.75000000  0.25000000
   0.75000000  0.75000000  0.25000000
   0.25000000  0.25000000  0.75000000
   0.75000000  0.25000000  0.75000000
   0.25000000  0.75000000  0.75000000
   0.75000000  0.75000000  0.75000000
 
 position of ions in cartesian coordinates  (Angst):
   0.87015828  2.61047484  0.89749984
   4.35079140  2.61047484  0.89749984
   0.87015828  6.09110796  0.89749984
   4.35079140  6.09110796  0.89749984
   0.87015828  2.61047484  4.48749920
   4.35079140  2.61047484  4.48749920
   0.87015828  6.09110796  4.48749920
   4.35079140  6.09110796  4.48749920
   0.00000000  0.00000000  1.79499968
   3.48063312  0.00000000  1.79499968
   0.00000000  3.48063312  1.79499968
   3.48063312  3.48063312  1.79499968
   0.00000000  0.00000000  5.38499904
   3.48063312  0.00000000  5.38499904
   0.00000000  3.48063312  5.38499904
   3.48063312  3.48063312  5.38499904
   0.87015828  0.87015828  2.69249952
   4.35079140  0.87015828  2.69249952
   0.87015828  4.35079140  2.69249952
   4.35079140  4.35079140  2.69249952
   0.87015828  0.87015828  6.28249888
   4.35079140  0.87015828  6.28249888
   0.87015828  4.35079140  6.28249888
   4.35079140  4.35079140  6.28249888
   0.00000000  1.74031656  0.00000000
   3.48063312  1.74031656  0.00000000
   0.00000000  5.22094968  0.00000000
   3.48063312  5.22094968  0.00000000
   0.00000000  1.74031656  3.58999936
   3.48063312  1.74031656  3.58999936
   0.00000000  5.22094968  3.58999936
   3.48063312  5.22094968  3.58999936
   2.61047484  2.61047484  2.69249952
   6.09110796  2.61047484  2.69249952
   2.61047484  6.09110796  2.69249952
   6.09110796  6.09110796  2.69249952
   2.61047484  2.61047484  6.28249888
   6.09110796  2.61047484  6.28249888
   2.61047484  6.09110796  6.28249888
   6.09110796  6.09110796  6.28249888
   1.74031656  0.00000000  0.00000000
   5.22094968  0.00000000  0.00000000
   1.74031656  3.48063312  0.00000000
   5.22094968  3.48063312  0.00000000
   1.74031656  0.00000000  3.58999936
   5.22094968  0.00000000  3.58999936
   1.74031656  3.48063312  3.58999936
   5.22094968  3.48063312  3.58999936
   2.61047484  0.87015828  0.89749984
   6.09110796  0.87015828  0.89749984
   2.61047484  4.35079140  0.89749984
   6.09110796  4.35079140  0.89749984
   2.61047484  0.87015828  4.48749920
   6.09110796  0.87015828  4.48749920
   2.61047484  4.35079140  4.48749920
   6.09110796  4.35079140  4.48749920
   1.74031656  1.74031656  1.79499968
   5.22094968  1.74031656  1.79499968
   1.74031656  5.22094968  1.79499968
   5.22094968  5.22094968  1.79499968
   1.74031656  1.74031656  5.38499904
   5.22094968  1.74031656  5.38499904
   1.74031656  5.22094968  5.38499904
   5.22094968  5.22094968  5.38499904
 


--------------------------------------------------------------------------------------------------------


 k-point  1 :   0.0000 0.0000 0.0000  plane waves:    6331
 k-point  2 :   0.1667 0.0000 0.0000  plane waves:    6327
 k-point  3 :   0.3333 0.0000 0.0000  plane waves:    6325
 k-point  4 :   0.5000 0.0000 0.0000  plane waves:    6334
 k-point  5 :   0.1667 0.1667 0.0000  plane waves:    6334
 k-point  6 :   0.3333 0.1667 0.0000  plane waves:    6312
 k-point  7 :   0.5000 0.1667 0.0000  plane waves:    6342
 k-point  8 :   0.3333 0.3333 0.0000  plane waves:    6300
 k-point  9 :   0.5000 0.3333 0.0000  plane waves:    6320
 k-point 10 :   0.5000 0.5000 0.0000  plane waves:    6304
 k-point 11 :   0.0000 0.0000 0.1667  plane waves:    6291
 k-point 12 :   0.1667 0.0000 0.1667  plane waves:    6321
 k-point 13 :   0.3333 0.0000 0.1667  plane waves:    6338
 k-point 14 :   0.5000 0.0000 0.1667  plane waves:    6344
 k-point 15 :   0.1667 0.1667 0.1667  plane waves:    6325
 k-point 16 :   0.3333 0.1667 0.1667  plane waves:    6325
 k-point 17 :   0.5000 0.1667 0.1667  plane waves:    6324
 k-point 18 :   0.3333 0.3333 0.1667  plane waves:    6296
 k-point 19 :   0.5000 0.3333 0.1667  plane waves:    6304
 k-point 20 :   0.5000 0.5000 0.1667  plane waves:    6312
 k-point 21 :   0.0000 0.0000 0.3333  plane waves:    6328
 k-point 22 :   0.1667 0.0000 0.3333  plane waves:    6330
 k-point 23 :   0.3333 0.0000 0.3333  plane waves:    6313
 k-point 24 :   0.5000 0.0000 0.3333  plane waves:    6326
 k-point 25 :   0.1667 0.1667 0.3333  plane waves:    6326
 k-point 26 :   0.3333 0.1667 0.3333  plane waves:    6321
 k-point 27 :   0.5000 0.1667 0.3333  plane waves:    6334
 k-point 28 :   0.3333 0.3333 0.3333  plane waves:    6311
 k-point 29 :   0.5000 0.3333 0.3333  plane waves:    6310
 k-point 30 :   0.5000 0.5000 0.3333  plane waves:    6292
 k-point 31 :   0.0000 0.0000 0.5000  plane waves:    6344
 k-point 32 :   0.1667 0.0000 0.5000  plane waves:    6328
 k-point 33 :   0.3333 0.0000 0.5000  plane waves:    6320
 k-point 34 :   0.5000 0.0000 0.5000  plane waves:    6312
 k-point 35 :   0.1667 0.1667 0.5000  plane waves:    6298
 k-point 36 :   0.3333 0.1667 0.5000  plane waves:    6318
 k-point 37 :   0.5000 0.1667 0.5000  plane waves:    6320
 k-point 38 :   0.3333 0.3333 0.5000  plane waves:    6334
 k-point 39 :   0.5000 0.3333 0.5000  plane waves:    6308
 k-point 40 :   0.5000 0.5000 0.5000  plane waves:    6304

 maximum and minimum number of plane-waves per node :      6344     6291

 maximum number of plane-waves:      6344
 maximum index in each direction: 
   IXMAX=   11   IYMAX=   11   IZMAX=   11
   IXMIN=  -11   IYMIN=  -11   IZMIN=  -12


 serial   3D FFT for wavefunctions
 parallel 3D FFT for charge:
    minimum data exchange during FFTs selected (reduces bandwidth)


 total amount of memory used by VASP MPI-rank0    89780. kBytes
=======================================================================

   base      :      30000. kBytes
   nonl-proj :      22822. kBytes
   fftplans  :       4537. kBytes
   grid      :       5806. kBytes
   one-center:        196. kBytes
   wavefun   :      26419. kBytes
 
     INWAV:  cpu time    0.0004: real time    0.0007
 Broyden mixing: mesh for mixing (old mesh)
   NGX = 23   NGY = 23   NGZ = 23
  (NGX  = 96   NGY  = 96   NGZ  = 96)
  gives a total of  12167 points

 initial charge density was supplied:
 charge density of overlapping atoms calculated
 number of electron     256.0000000 magnetization 
 keeping initial charge density in first step


--------------------------------------------------------------------------------------------------------


 Maximum index for augmentation-charges         1131 (set IRDMAX)


--------------------------------------------------------------------------------------------------------


 First call to EWALD:  gamma=   0.252
 Maximum number of real-space cells 3x 3x 3
 Maximum number of reciprocal cells 3x 3x 3

    FEWALD:  cpu time    0.0083: real time    0.0083


--------------------------------------- Iteration      1(   1)  ---------------------------------------


    POTLOK:  cpu time    0.0937: real time    0.0978
    SETDIJ:  cpu time    0.0434: real time    0.0436
     EDDAV:  cpu time   26.7099: real time   26.7198
       DOS:  cpu time    0.0081: real time    0.0081
    --------------------------------------------
      LOOP:  cpu time   26.8553: real time   26.8694

 eigenvalue-minimisations  : 15360
 total energy-change (2. order) : 0.5136106E+03  (-0.1145174E+05)
 number of electron     256.0000000 magnetization 
 augmentation part      256.0000000 magnetization 

 Free energy of the ion-electron system (eV)
  ---------------------------------------------------
  alpha Z        PSCENC =       959.20401551
  Ewald energy   TEWEN  =    -11294.92357284
  -Hartree energ DENC   =      -533.62563795
  -exchange      EXHF   =         0.00000000
  -V(xc)+E(xc)   XCENC  =       923.78795701
  PAW double counting   =      2421.21235816    -2494.84305711
  entropy T*S    EENTRO =        -0.00660550
  eigenvalues    EBANDS =      1116.66279264
  atomic energy  EATOM  =      9416.14232778
  Solvation  Ediel_sol  =         0.00000000
  ---------------------------------------------------
  free energy    TOTEN  =       513.61057770 eV

  energy without entropy =      513.61718320  energy(sigma->0) =      513.61388045


--------------------------------------------------------------------------------------------------------




--------------------------------------- Iteration      1(   2)  ---------------------------------------


     EDDAV:  cpu time   32.5331: real time   32.5355
       DOS:  cpu time    0.0037: real time    0.0037
    --------------------------------------------
      LOOP:  cpu time   32.5368: real time   32.5392

 eigenvalue-minimisations  : 19968
 total energy-change (2. order) :-0.1076308E+04  (-0.1026571E+04)
 number of electron     256.0000000 magnetization 
 augmentation part      256.0000000 magnetization 

 Free energy of the ion-electron system (eV)
  ---------------------------------------------------
  alpha Z        PSCENC =       959.20401551
  Ewald energy   TEWEN  =    -11294.92357284
  -Hartree energ DENC   =      -533.62563795
  -exchange      EXHF   =         0.00000000
  -V(xc)+E(xc)   XCENC  =       923.78795701
  PAW double counting   =      2421.21235816    -2494.84305711
  entropy T*S    EENTRO =        -0.00000000
  eigenvalues    EBANDS =        40.34814861
  atomic energy  EATOM  =      9416.14232778
  Solvation  Ediel_sol  =         0.00000000
  ---------------------------------------------------
  free energy    TOTEN  =      -562.69746083 eV

  energy without entropy =     -562.69746083  energy(sigma->0) =     -562.69746083


--------------------------------------------------------------------------------------------------------




--------------------------------------- Iteration      1(   3)  ---------------------------------------


     EDDAV:  cpu time   32.8089: real time   32.8112
       DOS:  cpu time    0.0044: real time    0.0044
    --------------------------------------------
      LOOP:  cpu time   32.8133: real time   32.8156

 eigenvalue-minimisations  : 20288
 total energy-change (2. order) :-0.4002431E+02  (-0.3979311E+02)
 number of electron     256.0000000 magnetization 
 augmentation part      256.0000000 magnetization 

 Free energy of the ion-electron system (eV)
  ---------------------------------------------------
  alpha Z        PSCENC =       959.20401551
  Ewald energy   TEWEN  =    -11294.92357284
  -Hartree energ DENC   =      -533.62563795
  -exchange      EXHF   =         0.00000000
  -V(xc)+E(xc)   XCENC  =       923.78795701
  PAW double counting   =      2421.21235816    -2494.84305711
  entropy T*S    EENTRO =        -0.00000000
  eigenvalues    EBANDS =         0.32383828
  atomic energy  EATOM  =      9416.14232778
  Solvation  Ediel_sol  =         0.00000000
  ---------------------------------------------------
  free energy    TOTEN  =      -602.72177116 eV

  energy without entropy =     -602.72177116  energy(sigma->0) =     -602.72177116


--------------------------------------------------------------------------------------------------------




--------------------------------------- Iteration      1(   4)  ---------------------------------------


     EDDAV:  cpu time   33.4408: real time   33.4431
       DOS:  cpu time    0.0043: real time    0.0043
    --------------------------------------------
      LOOP:  cpu time   33.4451: real time   33.4474

 eigenvalue-minimisations  : 20384
 total energy-change (2. order) :-0.4009196E+00  (-0.4000810E+00)
 number of electron     256.0000000 magnetization 
 augmentation part      256.0000000 magnetization 

 Free energy of the ion-electron system (eV)
  ---------------------------------------------------
  alpha Z        PSCENC =       959.20401551
  Ewald energy   TEWEN  =    -11294.92357284
  -Hartree energ DENC   =      -533.62563795
  -exchange      EXHF   =         0.00000000
  -V(xc)+E(xc)   XCENC  =       923.78795701
  PAW double counting   =      2421.21235816    -2494.84305711
  entropy T*S    EENTRO =        -0.00000000
  eigenvalues    EBANDS =        -0.07708137
  atomic energy  EATOM  =      9416.14232778
  Solvation  Ediel_sol  =         0.00000000
  ---------------------------------------------------
  free energy    TOTEN  =      -603.12269081 eV

  energy without entropy =     -603.12269081  energy(sigma->0) =     -603.12269081


--------------------------------------------------------------------------------------------------------




--------------------------------------- Iteration      1(   5)  ---------------------------------------


     EDDAV:  cpu time   30.9843: real time   30.9865
       DOS:  cpu time    0.0042: real time    0.0042
    CHARGE:  cpu time    0.7547: real time    0.7550
    MIXING:  cpu time    0.0040: real time    0.0040
    --------------------------------------------
      LOOP:  cpu time   31.7472: real time   31.7497

 eigenvalue-minimisations  : 19008
 total energy-change (2. order) :-0.7870600E-02  (-0.7867507E-02)
 number of electron     256.0000002 magnetization 
 augmentation part        6.5896325 magnetization 

 Broyden mixing:
  rms(total) = 0.28272E+01    rms(broyden)= 0.28267E+01
  rms(prec ) = 0.41236E+01
  weight for this iteration     100.00

 Free energy of the ion-electron system (eV)
  ---------------------------------------------------
  alpha Z        PSCENC =       959.20401551
  Ewald energy   TEWEN  =    -11294.92357284
  -Hartree energ DENC   =      -533.62563795
  -exchange      EXHF   =         0.00000000
  -V(xc)+E(xc)   XCENC  =       923.78795701
  PAW double counting   =      2421.21235816    -2494.84305711
  entropy T*S    EENTRO =        -0.00000000
  eigenvalues    EBANDS =        -0.08495197
  atomic energy  EATOM  =      9416.14232778
  Solvation  Ediel_sol  =         0.00000000
  ---------------------------------------------------
  free energy    TOTEN  =      -603.13056141 eV

  energy without entropy =     -603.13056141  energy(sigma->0) =     -603.13056141


--------------------------------------------------------------------------------------------------------




--------------------------------------- Iteration      1(   6)  ---------------------------------------


    POTLOK:  cpu time    0.0577: real time    0.0582
    SETDIJ:  cpu time    0.0491: real time    0.0491
     EDDAV:  cpu time   30.1779: real time   30.1798
       DOS:  cpu time    0.0042: real time    0.0042
    CHARGE:  cpu time    0.7523: real time    0.7524
    MIXING:  cpu time    0.0043: real time    0.0043
    --------------------------------------------
      LOOP:  cpu time   31.0456: real time   31.0480

 eigenvalue-minimisations  : 17920
 total energy-change (2. order) : 0.1721830E+02  (-0.1125738E+01)
 number of electron     256.0000002 magnetization 
 augmentation part        6.4305925 magnetization 

 Broyden mixing:
  rms(total) = 0.15393E+01    rms(broyden)= 0.15393E+01
  rms(prec ) = 0.22278E+01
  weight for this iteration     100.00

 eigenvalues of (default mixing * dielectric matrix)
  average eigenvalue GAMMA=   2.1525
  2.1525

 Free energy of the ion-electron system (eV)
  ---------------------------------------------------
  alpha Z        PSCENC =       959.20401551
  Ewald energy   TEWEN  =    -11294.92357284
  -Hartree energ DENC   =      -659.35835659
  -exchange      EXHF   =         0.00000000
  -V(xc)+E(xc)   XCENC  =       935.61964026
  PAW double counting   =      3218.17041954    -3296.61049582
  entropy T*S    EENTRO =        -0.00000000
  eigenvalues    EBANDS =       135.84376310
  atomic energy  EATOM  =      9416.14232778
  Solvation  Ediel_sol  =         0.00000000
  ---------------------------------------------------
  free energy    TOTEN  =      -585.91225905 eV

  energy without entropy =     -585.91225905  energy(sigma->0) =     -585.91225905


--------------------------------------------------------------------------------------------------------




--------------------------------------- Iteration      1(   7)  ---------------------------------------


    POTLOK:  cpu time    0.0570: real time    0.0574
    SETDIJ:  cpu time    0.0413: real time    0.0413
     EDDAV:  cpu time   31.8758: real time   31.8777
       DOS:  cpu time    0.0049: real time    0.0049
    CHARGE:  cpu time    0.7498: real time    0.7498
    MIXING:  cpu time    0.0042: real time    0.0042
    --------------------------------------------
      LOOP:  cpu time   32.7330: real time   32.7353

 eigenvalue-minimisations  : 18592
 total energy-change (2. order) : 0.5805841E+01  (-0.1269053E+01)
 number of electron     256.0000002 magnetization 
 augmentation part        6.2633813 magnetization 

 Broyden mixing:
  rms(total) = 0.19938E+00    rms(broyden)= 0.19843E+00
  rms(prec ) = 0.24261E+00
  weight for this iteration     100.00

 eigenvalues of (default mixing * dielectric matrix)
  average eigenvalue GAMMA=   2.2756
  2.0139  2.5373

 Free energy of the ion-electron system (eV)
  ---------------------------------------------------
  alpha Z        PSCENC =       959.20401551
  Ewald energy   TEWEN  =    -11294.92357284
  -Hartree energ DENC   =      -820.21127212
  -exchange      EXHF   =         0.00000000
  -V(xc)+E(xc)   XCENC  =       950.90026570
  PAW double counting   =      4313.00059626    -4396.03345092
  entropy T*S    EENTRO =        -0.00000000
  eigenvalues    EBANDS =       291.81467276
  atomic energy  EATOM  =      9416.14232778
  Solvation  Ediel_sol  =         0.00000000
  ---------------------------------------------------
  free energy    TOTEN  =      -580.10641787 eV

  energy without entropy =     -580.10641787  energy(sigma->0) =     -580.10641787


--------------------------------------------------------------------------------------------------------




--------------------------------------- Iteration      1(   8)  ---------------------------------------


    POTLOK:  cpu time    0.0578: real time    0.0582
    SETDIJ:  cpu time    0.0416: real time    0.0416
     EDDAV:  cpu time   31.8145: real time   31.8164
       DOS:  cpu time    0.0042: real time    0.0042
    CHARGE:  cpu time    0.7527: real time    0.7528
    MIXING:  cpu time    0.0046: real time    0.0046
    --------------------------------------------
      LOOP:  cpu time   32.6754: real time   32.6777

 eigenvalue-minimisations  : 19008
 total energy-change (2. order) :-0.6528540E-01  (-0.2817738E-01)
 number of electron     256.0000002 magnetization 
 augmentation part        6.2698662 magnetization 

 Broyden mixing:
  rms(total) = 0.22287E-01    rms(broyden)= 0.21953E-01
  rms(prec ) = 0.26821E-01
  weight for this iteration     100.00

 eigenvalues of (default mixing * dielectric matrix)
  average eigenvalue GAMMA=   2.1052
  1.4656  2.6942  2.1558

 Free energy of the ion-electron system (eV)
  ---------------------------------------------------
  alpha Z        PSCENC =       959.20401551
  Ewald energy   TEWEN  =    -11294.92357284
  -Hartree energ DENC   =      -823.80815631
  -exchange      EXHF   =         0.00000000
  -V(xc)+E(xc)   XCENC  =       951.27731703
  PAW double counting   =      4403.16106570    -4485.12186336
  entropy T*S    EENTRO =        -0.00000000
  eigenvalues    EBANDS =       293.89716322
  atomic energy  EATOM  =      9416.14232778
  Solvation  Ediel_sol  =         0.00000000
  ---------------------------------------------------
  free energy    TOTEN  =      -580.17170327 eV

  energy without entropy =     -580.17170327  energy(sigma->0) =     -580.17170327


--------------------------------------------------------------------------------------------------------




--------------------------------------- Iteration      1(   9)  ---------------------------------------


    POTLOK:  cpu time    0.0742: real time    0.0746
    SETDIJ:  cpu time    0.0435: real time    0.0435
     EDDAV:  cpu time   32.7605: real time   32.7625
       DOS:  cpu time    0.0044: real time    0.0044
    CHARGE:  cpu time    0.7508: real time    0.7509
    MIXING:  cpu time    0.0051: real time    0.0051
    --------------------------------------------
      LOOP:  cpu time   33.6384: real time   33.6408

 eigenvalue-minimisations  : 19872
 total energy-change (2. order) :-0.2071927E-02  (-0.3598319E-03)
 number of electron     256.0000002 magnetization 
 augmentation part        6.2689606 magnetization 

 Broyden mixing:
  rms(total) = 0.82274E-02    rms(broyden)= 0.82009E-02
  rms(prec ) = 0.10332E-01
  weight for this iteration     100.00

 eigenvalues of (default mixing * dielectric matrix)
  average eigenvalue GAMMA=   2.0360
  0.9659  2.7473  2.4409  1.9901

 Free energy of the ion-electron system (eV)
  ---------------------------------------------------
  alpha Z        PSCENC =       959.20401551
  Ewald energy   TEWEN  =    -11294.92357284
  -Hartree energ DENC   =      -823.29485426
  -exchange      EXHF   =         0.00000000
  -V(xc)+E(xc)   XCENC  =       951.22786020
  PAW double counting   =      4399.51576812    -4481.36516235
  entropy T*S    EENTRO =        -0.00000000
  eigenvalues    EBANDS =       293.31984262
  atomic energy  EATOM  =      9416.14232778
  Solvation  Ediel_sol  =         0.00000000
  ---------------------------------------------------
  free energy    TOTEN  =      -580.17377520 eV

  energy without entropy =     -580.17377520  energy(sigma->0) =     -580.17377520


--------------------------------------------------------------------------------------------------------




--------------------------------------- Iteration      1(  10)  ---------------------------------------


    POTLOK:  cpu time    0.0572: real time    0.0576
    SETDIJ:  cpu time    0.0429: real time    0.0429
     EDDAV:  cpu time   31.1099: real time   31.1117
       DOS:  cpu time    0.0040: real time    0.0041
    CHARGE:  cpu time    0.7553: real time    0.7553
    MIXING:  cpu time    0.0049: real time    0.0049
    --------------------------------------------
      LOOP:  cpu time   31.9742: real time   31.9765

 eigenvalue-minimisations  : 18688
 total energy-change (2. order) :-0.4342624E-03  (-0.3684551E-04)
 number of electron     256.0000002 magnetization 
 augmentation part        6.2686735 magnetization 

 Broyden mixing:
  rms(total) = 0.82085E-03    rms(broyden)= 0.80358E-03
  rms(prec ) = 0.12040E-02
  weight for this iteration     100.00

 eigenvalues of (default mixing * dielectric matrix)
  average eigenvalue GAMMA=   1.9509
  2.9172  2.5486  2.0607  0.9928  1.2350

 Free energy of the ion-electron system (eV)
  ---------------------------------------------------
  alpha Z        PSCENC =       959.20401551
  Ewald energy   TEWEN  =    -11294.92357284
  -Hartree energ DENC   =      -823.67701626
  -exchange      EXHF   =         0.00000000
  -V(xc)+E(xc)   XCENC  =       951.26087688
  PAW double counting   =      4395.37931833    -4477.24207145
  entropy T*S    EENTRO =        -0.00000000
  eigenvalues    EBANDS =       293.68191259
  atomic energy  EATOM  =      9416.14232778
  Solvation  Ediel_sol  =         0.00000000
  ---------------------------------------------------
  free energy    TOTEN  =      -580.17420946 eV

  energy without entropy =     -580.17420946  energy(sigma->0) =     -580.17420946


--------------------------------------------------------------------------------------------------------




--------------------------------------- Iteration      1(  11)  ---------------------------------------


    POTLOK:  cpu time    0.0575: real time    0.0579
    SETDIJ:  cpu time    0.0420: real time    0.0420
     EDDAV:  cpu time   32.7157: real time   32.7177
       DOS:  cpu time    0.0042: real time    0.0042
    CHARGE:  cpu time    0.7519: real time    0.7519
    MIXING:  cpu time    0.0052: real time    0.0052
    --------------------------------------------
      LOOP:  cpu time   33.5765: real time   33.5789

 eigenvalue-minimisations  : 20000
 total energy-change (2. order) :-0.6095126E-05  (-0.1061304E-05)
 number of electron     256.0000002 magnetization 
 augmentation part        6.2684969 magnetization 

 Broyden mixing:
  rms(total) = 0.20847E-03    rms(broyden)= 0.20277E-03
  rms(prec ) = 0.26944E-03
  weight for this iteration     100.00

 eigenvalues of (default mixing * dielectric matrix)
  average eigenvalue GAMMA=   1.9993
  2.9636  2.5772  2.4339  2.0305  0.9953  0.9953

 Free energy of the ion-electron system (eV)
  ---------------------------------------------------
  alpha Z        PSCENC =       959.20401551
  Ewald energy   TEWEN  =    -11294.92357284
  -Hartree energ DENC   =      -823.79364191
  -exchange      EXHF   =         0.00000000
  -V(xc)+E(xc)   XCENC  =       951.27166461
  PAW double counting   =      4395.60396377    -4477.47148116
  entropy T*S    EENTRO =        -0.00000000
  eigenvalues    EBANDS =       293.79250867
  atomic energy  EATOM  =      9416.14232778
  Solvation  Ediel_sol  =         0.00000000
  ---------------------------------------------------
  free energy    TOTEN  =      -580.17421555 eV

  energy without entropy =     -580.17421555  energy(sigma->0) =     -580.17421555


--------------------------------------------------------------------------------------------------------




--------------------------------------- Iteration      1(  12)  ---------------------------------------


    POTLOK:  cpu time    0.0815: real time    0.0819
    SETDIJ:  cpu time    0.0444: real time    0.0444
     EDDAV:  cpu time   32.0067: real time   32.0086
       DOS:  cpu time    0.0043: real time    0.0043
    CHARGE:  cpu time    0.7509: real time    0.7510
    MIXING:  cpu time    0.0050: real time    0.0050
    --------------------------------------------
      LOOP:  cpu time   32.8928: real time   32.8952

 eigenvalue-minimisations  : 19328
 total energy-change (2. order) : 0.2097386E-06  (-0.3183169E-07)
 number of electron     256.0000002 magnetization 
 augmentation part        6.2685115 magnetization 

 Broyden mixing:
  rms(total) = 0.23714E-04    rms(broyden)= 0.22346E-04
  rms(prec ) = 0.33160E-04
  weight for this iteration     100.00

 eigenvalues of (default mixing * dielectric matrix)
  average eigenvalue GAMMA=   1.8721
  2.9251  2.6220  2.4911  2.0393  0.9731  1.0270  1.0270

 Free energy of the ion-electron system (eV)
  ---------------------------------------------------
  alpha Z        PSCENC =       959.20401551
  Ewald energy   TEWEN  =    -11294.92357284
  -Hartree energ DENC   =      -823.77914260
  -exchange      EXHF   =         0.00000000
  -V(xc)+E(xc)   XCENC  =       951.27033149
  PAW double counting   =      4395.69161774    -4477.55764550
  entropy T*S    EENTRO =        -0.00000000
  eigenvalues    EBANDS =       293.77785307
  atomic energy  EATOM  =      9416.14232778
  Solvation  Ediel_sol  =         0.00000000
  ---------------------------------------------------
  free energy    TOTEN  =      -580.17421534 eV

  energy without entropy =     -580.17421534  energy(sigma->0) =     -580.17421534


--------------------------------------------------------------------------------------------------------




--------------------------------------- Iteration      1(  13)  ---------------------------------------


    POTLOK:  cpu time    0.0649: real time    0.0653
    SETDIJ:  cpu time    0.0412: real time    0.0412
     EDDAV:  cpu time   27.5043: real time   27.5060
       DOS:  cpu time    0.0040: real time    0.0040
    CHARGE:  cpu time    0.7532: real time    0.7532
    MIXING:  cpu time    0.0050: real time    0.0050
    --------------------------------------------
      LOOP:  cpu time   28.3725: real time   28.3747

 eigenvalue-minimisations  : 14976
 total energy-change (2. order) :-0.4738104E-07  (-0.5032081E-09)
 number of electron     256.0000002 magnetization 
 augmentation part        6.2685107 magnetization 

 Broyden mixing:
  rms(total) = 0.48458E-05    rms(broyden)= 0.46175E-05
  rms(prec ) = 0.57861E-05
  weight for this iteration     100.00

 eigenvalues of (default mixing * dielectric matrix)
  average eigenvalue GAMMA=   1.9823
  2.0398  2.8824  2.8824  2.5738  2.5026  1.0054  1.0054  0.9664

 Free energy of the ion-electron system (eV)
  ---------------------------------------------------
  alpha Z        PSCENC =       959.20401551
  Ewald energy   TEWEN  =    -11294.92357284
  -Hartree energ DENC   =      -823.77657457
  -exchange      EXHF   =         0.00000000
  -V(xc)+E(xc)   XCENC  =       951.27008835
  PAW double counting   =      4395.68395990    -4477.54988953
  entropy T*S    EENTRO =        -0.00000000
  eigenvalues    EBANDS =       293.77543000
  atomic energy  EATOM  =      9416.14232778
  Solvation  Ediel_sol  =         0.00000000
  ---------------------------------------------------
  free energy    TOTEN  =      -580.17421539 eV

  energy without entropy =     -580.17421539  energy(sigma->0) =     -580.17421539


--------------------------------------------------------------------------------------------------------




--------------------------------------- Iteration      1(  14)  ---------------------------------------


    POTLOK:  cpu time    0.0574: real time    0.0578
    SETDIJ:  cpu time    0.0451: real time    0.0451
     EDDAV:  cpu time   25.2517: real time   25.2532
       DOS:  cpu time    0.0043: real time    0.0043
    CHARGE:  cpu time    0.7516: real time    0.7516
    MIXING:  cpu time    0.0059: real time    0.0059
    --------------------------------------------
      LOOP:  cpu time   26.1161: real time   26.1181

 eigenvalue-minimisations  : 12800
 total energy-change (2. order) :-0.2217530E-07  (-0.7137873E-10)
 number of electron     256.0000002 magnetization 
 augmentation part        6.2685112 magnetization 

 Broyden mixing:
  rms(total) = 0.18511E-05    rms(broyden)= 0.18375E-05
  rms(prec ) = 0.24581E-05
  weight for this iteration     100.00

 eigenvalues of (default mixing * dielectric matrix)
  average eigenvalue GAMMA=   1.8699
  2.0433  2.8585  2.8310  2.5380  2.5253  1.0606  0.9688  0.9688  1.0345

 Free energy of the ion-electron system (eV)
  ---------------------------------------------------
  alpha Z        PSCENC =       959.20401551
  Ewald energy   TEWEN  =    -11294.92357284
  -Hartree energ DENC   =      -823.77611844
  -exchange      EXHF   =         0.00000000
  -V(xc)+E(xc)   XCENC  =       951.27004666
  PAW double counting   =      4395.67934322    -4477.54524536
  entropy T*S    EENTRO =        -0.00000000
  eigenvalues    EBANDS =       293.77498805
  atomic energy  EATOM  =      9416.14232778
  Solvation  Ediel_sol  =         0.00000000
  ---------------------------------------------------
  free energy    TOTEN  =      -580.17421541 eV

  energy without entropy =     -580.17421541  energy(sigma->0) =     -580.17421541


--------------------------------------------------------------------------------------------------------




--------------------------------------- Iteration      1(  15)  ---------------------------------------


    POTLOK:  cpu time    0.0606: real time    0.0609
    SETDIJ:  cpu time    0.0417: real time    0.0417
     EDDAV:  cpu time   22.7254: real time   22.7268
       DOS:  cpu time    0.0042: real time    0.0042
    --------------------------------------------
      LOOP:  cpu time   22.8320: real time   22.8336

 eigenvalue-minimisations  : 11520
 total energy-change (2. order) :-0.4874892E-09  (-0.1225540E-10)
 number of electron     256.0000002 magnetization 
 augmentation part        6.2685112 magnetization 

 Free energy of the ion-electron system (eV)
  ---------------------------------------------------
  alpha Z        PSCENC =       959.20401551
  Ewald energy   TEWEN  =    -11294.92357284
  -Hartree energ DENC   =      -823.77626193
  -exchange      EXHF   =         0.00000000
  -V(xc)+E(xc)   XCENC  =       951.27006001
  PAW double counting   =      4395.68012127    -4477.54603675
  entropy T*S    EENTRO =        -0.00000000
  eigenvalues    EBANDS =       293.77513154
  atomic energy  EATOM  =      9416.14232778
  Solvation  Ediel_sol  =         0.00000000
  ---------------------------------------------------
  free energy    TOTEN  =      -580.17421542 eV

  energy without entropy =     -580.17421542  energy(sigma->0) =     -580.17421542


--------------------------------------------------------------------------------------------------------




 average (electrostatic) potential at core
  the test charge radii are     0.6991
  (the norm of the test charge is              1.0000)
       1 -44.7554       2 -44.7554       3 -44.7554       4 -44.7554       5 -44.7554
       6 -44.7554       7 -44.7554       8 -44.7554       9 -44.7554      10 -44.7554
      11 -44.7554      12 -44.7554      13 -44.7554      14 -44.7554      15 -44.7554
      16 -44.7554      17 -44.7554      18 -44.7554      19 -44.7554      20 -44.7554
      21 -44.7554      22 -44.7554      23 -44.7554      24 -44.7554      25 -44.7554
      26 -44.7554      27 -44.7554      28 -44.7554      29 -44.7554      30 -44.7554
      31 -44.7554      32 -44.7554      33 -44.7554      34 -44.7554      35 -44.7554
      36 -44.7554      37 -44.7554      38 -44.7554      39 -44.7554      40 -44.7554
      41 -44.7554      42 -44.7554      43 -44.7554      44 -44.7554      45 -44.7554
      46 -44.7554      47 -44.7554      48 -44.7554      49 -44.7554      50 -44.7554
      51 -44.7554      52 -44.7554      53 -44.7554      54 -44.7554      55 -44.7554
      56 -44.7554      57 -44.7554      58 -44.7554      59 -44.7554      60 -44.7554
      61 -44.7554      62 -44.7554      63 -44.7554      64 -44.7554
 
 
 
 E-fermi :  10.8496     XC(G=0): -13.4378     alpha+bet :-18.4658


 k-point     1 :       0.0000    0.0000    0.0000
  band No.  band energies     occupation 
      1     -11.6741      2.00000
      2      -9.4165      2.00000
      3      -9.4165      2.00000
      4      -9.2723      2.00000
      5      -9.2723      2.00000
      6      -9.2723      2.00000
      7      -9.2723      2.00000
      8      -7.1067      2.00000
[...]
      4.350791  0.870158  6.282499     0.050892    0.046081    0.000000  
      0.870158  4.350791  6.282499     0.050892    0.046081   -0.000000  
      4.350791  4.350791  6.282499     0.050892    0.046081   -0.000000  
      0.000000  1.740317  0.000000     0.124149    0.124090    0.000000  
      3.480633  1.740317  0.000000     0.124149    0.124090   -0.000000  
      0.000000  5.220950  0.000000     0.124149    0.124090    0.000000  
      3.480633  5.220950  0.000000     0.124149    0.124090   -0.000000  
      0.000000  1.740317  3.589999    -0.124149   -0.124090    0.000000  
      3.480633  1.740317  3.589999    -0.124149   -0.124090   -0.000000  
      0.000000  5.220950  3.589999    -0.124149   -0.124090    0.000000  
      3.480633  5.220950  3.589999    -0.124149   -0.124090   -0.000000  
      2.610475  2.610475  2.692500    -0.050892   -0.046081   -0.000000  
      6.091108  2.610475  2.692500    -0.050892   -0.046081    0.000000  
      2.610475  6.091108  2.692500    -0.050892   -0.046081   -0.000000  
      6.091108  6.091108  2.692500    -0.050892   -0.046081    0.000000  
      2.610475  2.610475  6.282499     0.050892    0.046081   -0.000000  
      6.091108  2.610475  6.282499     0.050892    0.046081    0.000000  
      2.610475  6.091108  6.282499     0.050892    0.046081   -0.000000  
      6.091108  6.091108  6.282499     0.050892    0.046081    0.000000  
      1.740317  0.000000  0.000000     0.124149    0.124090    0.000000  
      5.220950  0.000000  0.000000     0.124149    0.124090    0.000000  
      1.740317  3.480633  0.000000     0.124149    0.124090   -0.000000  
      5.220950  3.480633  0.000000     0.124149    0.124090   -0.000000  
      1.740317  0.000000  3.589999    -0.124149   -0.124090    0.000000  
      5.220950  0.000000  3.589999    -0.124149   -0.124090    0.000000  
      1.740317  3.480633  3.589999    -0.124149   -0.124090   -0.000000  
      5.220950  3.480633  3.589999    -0.124149   -0.124090   -0.000000  
      2.610475  0.870158  0.897500     0.110879    0.119341   -0.000000  
      6.091108  0.870158  0.897500     0.110879    0.119341    0.000000  
      2.610475  4.350791  0.897500     0.110879    0.119341   -0.000000  
      6.091108  4.350791  0.897500     0.110879    0.119341    0.000000  
      2.610475  0.870158  4.487499    -0.110879   -0.119341   -0.000000  
      6.091108  0.870158  4.487499    -0.110879   -0.119341    0.000000  
      2.610475  4.350791  4.487499    -0.110879   -0.119341   -0.000000  
      6.091108  4.350791  4.487499    -0.110879   -0.119341    0.000000  
      1.740317  1.740317  1.795000     0.009120    0.018854   -0.000000  
      5.220950  1.740317  1.795000     0.009120    0.018854    0.000000  
      1.740317  5.220950  1.795000     0.009120    0.018854   -0.000000  
      5.220950  5.220950  1.795000     0.009120    0.018854    0.000000  
      1.740317  1.740317  5.384999    -0.009120   -0.018854   -0.000000  
      5.220950  1.740317  5.384999    -0.009120   -0.018854    0.000000  
      1.740317  5.220950  5.384999    -0.009120   -0.018854   -0.000000  
      5.220950  5.220950  5.384999    -0.009120   -0.018854    0.000000  
 
 190 f  =    0.000002 THz     0.000014 2PiTHz    0.000076 cm-1     0.000009 meV
             X         Y         Z           dx          dy          dz
      0.870158  2.610475  0.897500    -0.000033   -0.000243   -0.125000  
      4.350791  2.610475  0.897500    -0.000033   -0.000243   -0.125000  
      0.870158  6.091108  0.897500    -0.000033   -0.000243   -0.125000  
      4.350791  6.091108  0.897500    -0.000033   -0.000243   -0.125000  
      0.870158  2.610475  4.487499    -0.000033   -0.000243   -0.125000  
      4.350791  2.610475  4.487499    -0.000033   -0.000243   -0.125000  
      0.870158  6.091108  4.487499    -0.000033   -0.000243   -0.125000  
      4.350791  6.091108  4.487499    -0.000033   -0.000243   -0.125000  
      0.000000  0.000000  1.795000    -0.000033   -0.000243   -0.125000  
      3.480633  0.000000  1.795000    -0.000033   -0.000243   -0.125000  
      0.000000  3.480633  1.795000    -0.000033   -0.000243   -0.125000  
      3.480633  3.480633  1.795000    -0.000033   -0.000243   -0.125000  
      0.000000  0.000000  5.384999    -0.000033   -0.000243   -0.125000  
      3.480633  0.000000  5.384999    -0.000033   -0.000243   -0.125000  
      0.000000  3.480633  5.384999    -0.000033   -0.000243   -0.125000  
      3.480633  3.480633  5.384999    -0.000033   -0.000243   -0.125000  
      0.870158  0.870158  2.692500    -0.000033   -0.000243   -0.125000  
      4.350791  0.870158  2.692500    -0.000033   -0.000243   -0.125000  
      0.870158  4.350791  2.692500    -0.000033   -0.000243   -0.125000  
      4.350791  4.350791  2.692500    -0.000033   -0.000243   -0.125000  
      0.870158  0.870158  6.282499    -0.000033   -0.000243   -0.125000  
      4.350791  0.870158  6.282499    -0.000033   -0.000243   -0.125000  
      0.870158  4.350791  6.282499    -0.000033   -0.000243   -0.125000  
      4.350791  4.350791  6.282499    -0.000033   -0.000243   -0.125000  
      0.000000  1.740317  0.000000    -0.000033   -0.000243   -0.125000  
      3.480633  1.740317  0.000000    -0.000033   -0.000243   -0.125000  
      0.000000  5.220950  0.000000    -0.000033   -0.000243   -0.125000  
      3.480633  5.220950  0.000000    -0.000033   -0.000243   -0.125000  
      0.000000  1.740317  3.589999    -0.000033   -0.000243   -0.125000  
      3.480633  1.740317  3.589999    -0.000033   -0.000243   -0.125000  
      0.000000  5.220950  3.589999    -0.000033   -0.000243   -0.125000  
      3.480633  5.220950  3.589999    -0.000033   -0.000243   -0.125000  
      2.610475  2.610475  2.692500    -0.000033   -0.000243   -0.125000  
      6.091108  2.610475  2.692500    -0.000033   -0.000243   -0.125000  
      2.610475  6.091108  2.692500    -0.000033   -0.000243   -0.125000  
      6.091108  6.091108  2.692500    -0.000033   -0.000243   -0.125000  
      2.610475  2.610475  6.282499    -0.000033   -0.000243   -0.125000  
      6.091108  2.610475  6.282499    -0.000033   -0.000243   -0.125000  
      2.610475  6.091108  6.282499    -0.000033   -0.000243   -0.125000  
      6.091108  6.091108  6.282499    -0.000033   -0.000243   -0.125000  
      1.740317  0.000000  0.000000    -0.000033   -0.000243   -0.125000  
      5.220950  0.000000  0.000000    -0.000033   -0.000243   -0.125000  
      1.740317  3.480633  0.000000    -0.000033   -0.000243   -0.125000  
      5.220950  3.480633  0.000000    -0.000033   -0.000243   -0.125000  
      1.740317  0.000000  3.589999    -0.000033   -0.000243   -0.125000  
      5.220950  0.000000  3.589999    -0.000033   -0.000243   -0.125000  
      1.740317  3.480633  3.589999    -0.000033   -0.000243   -0.125000  
      5.220950  3.480633  3.589999    -0.000033   -0.000243   -0.125000  
      2.610475  0.870158  0.897500    -0.000033   -0.000243   -0.125000  
      6.091108  0.870158  0.897500    -0.000033   -0.000243   -0.125000  
      2.610475  4.350791  0.897500    -0.000033   -0.000243   -0.125000  
      6.091108  4.350791  0.897500    -0.000033   -0.000243   -0.125000  
      2.610475  0.870158  4.487499    -0.000033   -0.000243   -0.125000  
      6.091108  0.870158  4.487499    -0.000033   -0.000243   -0.125000  
      2.610475  4.350791  4.487499    -0.000033   -0.000243   -0.125000  
      6.091108  4.350791  4.487499    -0.000033   -0.000243   -0.125000  
      1.740317  1.740317  1.795000    -0.000033   -0.000243   -0.125000  
      5.220950  1.740317  1.795000    -0.000033   -0.000243   -0.125000  
      1.740317  5.220950  1.795000    -0.000033   -0.000243   -0.125000  
      5.220950  5.220950  1.795000    -0.000033   -0.000243   -0.125000  
      1.740317  1.740317  5.384999    -0.000033   -0.000243   -0.125000  
      5.220950  1.740317  5.384999    -0.000033   -0.000243   -0.125000  
      1.740317  5.220950  5.384999    -0.000033   -0.000243   -0.125000  
      5.220950  5.220950  5.384999    -0.000033   -0.000243   -0.125000  
 
 191 f/i=    0.000002 THz     0.000015 2PiTHz    0.000078 cm-1     0.000010 meV
             X         Y         Z           dx          dy          dz
      0.870158  2.610475  0.897500    -0.015084   -0.124086    0.000245  
      4.350791  2.610475  0.897500    -0.015084   -0.124086    0.000245  
      0.870158  6.091108  0.897500    -0.015084   -0.124086    0.000245  
      4.350791  6.091108  0.897500    -0.015084   -0.124086    0.000245  
      0.870158  2.610475  4.487499    -0.015084   -0.124086    0.000245  
      4.350791  2.610475  4.487499    -0.015084   -0.124086    0.000245  
      0.870158  6.091108  4.487499    -0.015084   -0.124086    0.000245  
      4.350791  6.091108  4.487499    -0.015084   -0.124086    0.000245  
      0.000000  0.000000  1.795000    -0.015084   -0.124086    0.000245  
      3.480633  0.000000  1.795000    -0.015084   -0.124086    0.000245  
      0.000000  3.480633  1.795000    -0.015084   -0.124086    0.000245  
      3.480633  3.480633  1.795000    -0.015084   -0.124086    0.000245  
      0.000000  0.000000  5.384999    -0.015084   -0.124086    0.000245  
      3.480633  0.000000  5.384999    -0.015084   -0.124086    0.000245  
      0.000000  3.480633  5.384999    -0.015084   -0.124086    0.000245  
      3.480633  3.480633  5.384999    -0.015084   -0.124086    0.000245  
      0.870158  0.870158  2.692500    -0.015084   -0.124086    0.000245  
      4.350791  0.870158  2.692500    -0.015084   -0.124086    0.000245  
      0.870158  4.350791  2.692500    -0.015084   -0.124086    0.000245  
      4.350791  4.350791  2.692500    -0.015084   -0.124086    0.000245  
      0.870158  0.870158  6.282499    -0.015084   -0.124086    0.000245  
      4.350791  0.870158  6.282499    -0.015084   -0.124086    0.000245  
      0.870158  4.350791  6.282499    -0.015084   -0.124086    0.000245  
      4.350791  4.350791  6.282499    -0.015084   -0.124086    0.000245  
      0.000000  1.740317  0.000000    -0.015084   -0.124086    0.000245  
      3.480633  1.740317  0.000000    -0.015084   -0.124086    0.000245  
      0.000000  5.220950  0.000000    -0.015084   -0.124086    0.000245  
      3.480633  5.220950  0.000000    -0.015084   -0.124086    0.000245  
      0.000000  1.740317  3.589999    -0.015084   -0.124086    0.000245  
      3.480633  1.740317  3.589999    -0.015084   -0.124086    0.000245  
      0.000000  5.220950  3.589999    -0.015084   -0.124086    0.000245  
      3.480633  5.220950  3.589999    -0.015084   -0.124086    0.000245  
      2.610475  2.610475  2.692500    -0.015084   -0.124086    0.000245  
      6.091108  2.610475  2.692500    -0.015084   -0.124086    0.000245  
      2.610475  6.091108  2.692500    -0.015084   -0.124086    0.000245  
      6.091108  6.091108  2.692500    -0.015084   -0.124086    0.000245  
      2.610475  2.610475  6.282499    -0.015084   -0.124086    0.000245  
      6.091108  2.610475  6.282499    -0.015084   -0.124086    0.000245  
      2.610475  6.091108  6.282499    -0.015084   -0.124086    0.000245  
      6.091108  6.091108  6.282499    -0.015084   -0.124086    0.000245  
      1.740317  0.000000  0.000000    -0.015084   -0.124086    0.000245  
      5.220950  0.000000  0.000000    -0.015084   -0.124086    0.000245  
      1.740317  3.480633  0.000000    -0.015084   -0.124086    0.000245  
      5.220950  3.480633  0.000000    -0.015084   -0.124086    0.000245  
      1.740317  0.000000  3.589999    -0.015084   -0.124086    0.000245  
      5.220950  0.000000  3.589999    -0.015084   -0.124086    0.000245  
      1.740317  3.480633  3.589999    -0.015084   -0.124086    0.000245  
      5.220950  3.480633  3.589999    -0.015084   -0.124086    0.000245  
      2.610475  0.870158  0.897500    -0.015084   -0.124086    0.000245  
      6.091108  0.870158  0.897500    -0.015084   -0.124086    0.000245  
      2.610475  4.350791  0.897500    -0.015084   -0.124086    0.000245  
      6.091108  4.350791  0.897500    -0.015084   -0.124086    0.000245  
      2.610475  0.870158  4.487499    -0.015084   -0.124086    0.000245  
      6.091108  0.870158  4.487499    -0.015084   -0.124086    0.000245  
      2.610475  4.350791  4.487499    -0.015084   -0.124086    0.000245  
      6.091108  4.350791  4.487499    -0.015084   -0.124086    0.000245  
      1.740317  1.740317  1.795000    -0.015084   -0.124086    0.000245  
      5.220950  1.740317  1.795000    -0.015084   -0.124086    0.000245  
      1.740317  5.220950  1.795000    -0.015084   -0.124086    0.000245  
      5.220950  5.220950  1.795000    -0.015084   -0.124086    0.000245  
      1.740317  1.740317  5.384999    -0.015084   -0.124086    0.000245  
      5.220950  1.740317  5.384999    -0.015084   -0.124086    0.000245  
      1.740317  5.220950  5.384999    -0.015084   -0.124086    0.000245  
      5.220950  5.220950  5.384999    -0.015084   -0.124086    0.000245  
 
 192 f/i=    0.000003 THz     0.000016 2PiTHz    0.000087 cm-1     0.000011 meV
             X         Y         Z           dx          dy          dz
      0.870158  2.610475  0.897500    -0.124087    0.015084    0.000004  
      4.350791  2.610475  0.897500    -0.124087    0.015084    0.000004  
      0.870158  6.091108  0.897500    -0.124087    0.015084    0.000004  
      4.350791  6.091108  0.897500    -0.124087    0.015084    0.000004  
      0.870158  2.610475  4.487499    -0.124087    0.015084    0.000004  
      4.350791  2.610475  4.487499    -0.124087    0.015084    0.000004  
      0.870158  6.091108  4.487499    -0.124087    0.015084    0.000004  
      4.350791  6.091108  4.487499    -0.124087    0.015084    0.000004  
      0.000000  0.000000  1.795000    -0.124087    0.015084    0.000004  
      3.480633  0.000000  1.795000    -0.124087    0.015084    0.000004  
      0.000000  3.480633  1.795000    -0.124087    0.015084    0.000004  
      3.480633  3.480633  1.795000    -0.124087    0.015084    0.000004  
      0.000000  0.000000  5.384999    -0.124087    0.015084    0.000004  
      3.480633  0.000000  5.384999    -0.124087    0.015084    0.000004  
      0.000000  3.480633  5.384999    -0.124087    0.015084    0.000004  
      3.480633  3.480633  5.384999    -0.124087    0.015084    0.000004  
      0.870158  0.870158  2.692500    -0.124087    0.015084    0.000004  
      4.350791  0.870158  2.692500    -0.124087    0.015084    0.000004  
      0.870158  4.350791  2.692500    -0.124087    0.015084    0.000004  
      4.350791  4.350791  2.692500    -0.124087    0.015084    0.000004  
      0.870158  0.870158  6.282499    -0.124087    0.015084    0.000004  
      4.350791  0.870158  6.282499    -0.124087    0.015084    0.000004  
      0.870158  4.350791  6.282499    -0.124087    0.015084    0.000004  
      4.350791  4.350791  6.282499    -0.124087    0.015084    0.000004  
      0.000000  1.740317  0.000000    -0.124087    0.015084    0.000004  
      3.480633  1.740317  0.000000    -0.124087    0.015084    0.000004  
      0.000000  5.220950  0.000000    -0.124087    0.015084    0.000004  
      3.480633  5.220950  0.000000    -0.124087    0.015084    0.000004  
      0.000000  1.740317  3.589999    -0.124087    0.015084    0.000004  
      3.480633  1.740317  3.589999    -0.124087    0.015084    0.000004  
      0.000000  5.220950  3.589999    -0.124087    0.015084    0.000004  
      3.480633  5.220950  3.589999    -0.124087    0.015084    0.000004  
      2.610475  2.610475  2.692500    -0.124087    0.015084    0.000004  
      6.091108  2.610475  2.692500    -0.124087    0.015084    0.000004  
      2.610475  6.091108  2.692500    -0.124087    0.015084    0.000004  
      6.091108  6.091108  2.692500    -0.124087    0.015084    0.000004  
      2.610475  2.610475  6.282499    -0.124087    0.015084    0.000004  
      6.091108  2.610475  6.282499    -0.124087    0.015084    0.000004  
      2.610475  6.091108  6.282499    -0.124087    0.015084    0.000004  
      6.091108  6.091108  6.282499    -0.124087    0.015084    0.000004  
      1.740317  0.000000  0.000000    -0.124087    0.015084    0.000004  
      5.220950  0.000000  0.000000    -0.124087    0.015084    0.000004  
      1.740317  3.480633  0.000000    -0.124087    0.015084    0.000004  
      5.220950  3.480633  0.000000    -0.124087    0.015084    0.000004  
      1.740317  0.000000  3.589999    -0.124087    0.015084    0.000004  
      5.220950  0.000000  3.589999    -0.124087    0.015084    0.000004  
      1.740317  3.480633  3.589999    -0.124087    0.015084    0.000004  
      5.220950  3.480633  3.589999    -0.124087    0.015084    0.000004  
      2.610475  0.870158  0.897500    -0.124087    0.015084    0.000004  
      6.091108  0.870158  0.897500    -0.124087    0.015084    0.000004  
      2.610475  4.350791  0.897500    -0.124087    0.015084    0.000004  
      6.091108  4.350791  0.897500    -0.124087    0.015084    0.000004  
      2.610475  0.870158  4.487499    -0.124087    0.015084    0.000004  
      6.091108  0.870158  4.487499    -0.124087    0.015084    0.000004  
      2.610475  4.350791  4.487499    -0.124087    0.015084    0.000004  
      6.091108  4.350791  4.487499    -0.124087    0.015084    0.000004  
      1.740317  1.740317  1.795000    -0.124087    0.015084    0.000004  
      5.220950  1.740317  1.795000    -0.124087    0.015084    0.000004  
      1.740317  5.220950  1.795000    -0.124087    0.015084    0.000004  
      5.220950  5.220950  1.795000    -0.124087    0.015084    0.000004  
      1.740317  1.740317  5.384999    -0.124087    0.015084    0.000004  
      5.220950  1.740317  5.384999    -0.124087    0.015084    0.000004  
      1.740317  5.220950  5.384999    -0.124087    0.015084    0.000004  
      5.220950  5.220950  5.384999    -0.124087    0.015084    0.000004  
 


--------------------------------------------------------------------------------------------------------



 ELASTIC MODULI CONTR FROM IONIC RELAXATION (kBar)
 Direction    XX          YY          ZZ          XY          YZ          ZX
 --------------------------------------------------------------------------------
 XX          -0.0000     -0.0000     -0.0000      0.0000      0.0000     -0.0000
 YY          -0.0000     -0.0000      0.0000      0.0000      0.0000      0.0000
 ZZ          -0.0000      0.0000     -0.0000     -0.0000      0.0000     -0.0000
 XY           0.0000      0.0000     -0.0000   -115.8017     -0.0000     -0.0000
 YZ           0.0000      0.0000      0.0000      0.0000   -136.8444      0.0000
 ZX          -0.0000      0.0000     -0.0000     -0.0000      0.0000   -136.8446
 --------------------------------------------------------------------------------



--------------------------------------------------------------------------------------------------------


     LOOP+:  cpu time 1939.9069: real time 1941.9123
    4ORBIT:  cpu time    0.0000: real time    0.0000

 total amount of memory used by VASP MPI-rank0    89780. kBytes
=======================================================================

   base      :      30000. kBytes
   nonl-proj :      22822. kBytes
   fftplans  :       4537. kBytes
   grid      :       5806. kBytes
   one-center:        196. kBytes
   wavefun   :      26419. kBytes
 
  
  
 General timing and accounting informations for this job:
 ========================================================
  
                  Total CPU time used (sec):     1954.015
                            User time (sec):     1943.768
                          System time (sec):       10.247
                         Elapsed time (sec):     1956.091
  
                   Maximum memory used (kb):      467264.
                   Average memory used (kb):           0.
  
                          Minor page faults:        39350
                          Major page faults:           35
                 Voluntary context switches:          870
