# Thermal properties / unit cell (natom)

unit:
  temperature:   K
  free_energy:   kJ/mol
  entropy:       J/K/mol
  heat_capacity: J/K/mol

natom: 8    
cutoff_frequency:    0.000
num_modes: 2654208
num_integrated_modes: 2654208

zero_point_energy:     144.7419694
high_T_entropy:        425.0622276

thermal_properties:
- temperature:         0.0000000
  free_energy:       144.7419694
  entropy:             0.0000000
  heat_capacity:       0.0000000
  energy:            144.7419694

- temperature:         2.0000000
  free_energy:       144.7419694
  entropy:             0.0000000
  heat_capacity:       0.0000000
  energy:            144.7419694

- temperature:         4.0000000
  free_energy:       144.7419694
  entropy:             0.0000069
  heat_capacity:       0.0000450
  energy:            144.7419694

- temperature:         6.0000000
  free_energy:       144.7419693
  entropy:             0.0000603
  heat_capacity:       0.0002652
  energy:            144.7419697

- temperature:         8.0000000
  free_energy:       144.7419691
  entropy:             0.0001893
  heat_capacity:       0.0006885
  energy:            144.7419706

- temperature:        10.0000000
  free_energy:       144.7419685
  entropy:             0.0004104
  heat_capacity:       0.0013667
  energy:            144.7419726

- temperature:        12.0000000
  free_energy:       144.7419674
  entropy:             0.0007428
  heat_capacity:       0.0023710
  energy:            144.7419763

- temperature:        14.0000000
  free_energy:       144.7419655
  entropy:             0.0012080
  heat_capacity:       0.0037718
  energy:            144.7419824

- temperature:        16.0000000
  free_energy:       144.7419624
  entropy:             0.0018279
  heat_capacity:       0.0056384
  energy:            144.7419917

- temperature:        18.0000000
  free_energy:       144.7419580
  entropy:             0.0026251
  heat_capacity:       0.0080404
  energy:            144.7420053

- temperature:        20.0000000
  free_energy:       144.7419518
  entropy:             0.0036223
  heat_capacity:       0.0110479
  energy:            144.7420243

- temperature:        22.0000000
  free_energy:       144.7419434
  entropy:             0.0048424
  heat_capacity:       0.0147324
  energy:            144.7420499

- temperature:        24.0000000
  free_energy:       144.7419323
  entropy:             0.0063087
  heat_capacity:       0.0191663
  energy:            144.7420837

- temperature:        26.0000000
  free_energy:       144.7419180
  entropy:             0.0080447
  heat_capacity:       0.0244236
  energy:            144.7421271

- temperature:        28.0000000
  free_energy:       144.7418999
  entropy:             0.0100742
  heat_capacity:       0.0305800
  energy:            144.7421820

- temperature:        30.0000000
  free_energy:       144.7418775
  entropy:             0.0124214
  heat_capacity:       0.0377133
  energy:            144.7422501

- temperature:        32.0000000
  free_energy:       144.7418500
  entropy:             0.0151109
  heat_capacity:       0.0459033
  energy:            144.7423335

- temperature:        34.0000000
  free_energy:       144.7418168
  entropy:             0.0181677
  heat_capacity:       0.0552323
  energy:            144.7424345

- temperature:        36.0000000
  free_energy:       144.7417771
  entropy:             0.0216174
  heat_capacity:       0.0657857
  energy:            144.7425553

- temperature:        38.0000000
  free_energy:       144.7417300
  entropy:             0.0254860
  heat_capacity:       0.0776520
  energy:            144.7426985

- temperature:        40.0000000
  free_energy:       144.7416748
  entropy:             0.0298003
  heat_capacity:       0.0909237
  energy:            144.7428668

- temperature:        42.0000000
  free_energy:       144.7416105
  entropy:             0.0345877
  heat_capacity:       0.1056976
  energy:            144.7430632

- temperature:        44.0000000
  free_energy:       144.7415361
  entropy:             0.0398763
  heat_capacity:       0.1220757
  energy:            144.7432907

- temperature:        46.0000000
  free_energy:       144.7414506
  entropy:             0.0456953
  heat_capacity:       0.1401659
  energy:            144.7435526

- temperature:        48.0000000
  free_energy:       144.7413530
  entropy:             0.0520748
  heat_capacity:       0.1600827
  energy:            144.7438526

- temperature:        50.0000000
  free_energy:       144.7412420
  entropy:             0.0590462
  heat_capacity:       0.1819479
  energy:            144.7441943

- temperature:        52.0000000
  free_energy:       144.7411164
  entropy:             0.0666417
  heat_capacity:       0.2058915
  energy:            144.7445817

- temperature:        54.0000000
  free_energy:       144.7409749
  entropy:             0.0748955
  heat_capacity:       0.2320523
  energy:            144.7450193

- temperature:        56.0000000
  free_energy:       144.7408163
  entropy:             0.0838429
  heat_capacity:       0.2605781
  energy:            144.7455115

- temperature:        58.0000000
  free_energy:       144.7406391
  entropy:             0.0935209
  heat_capacity:       0.2916261
  energy:            144.7460633

- temperature:        60.0000000
  free_energy:       144.7404417
  entropy:             0.1039682
  heat_capacity:       0.3253632
  energy:            144.7466798

- temperature:        62.0000000
  free_energy:       144.7402227
  entropy:             0.1152256
  heat_capacity:       0.3619655
  energy:            144.7473667

- temperature:        64.0000000
  free_energy:       144.7399803
  entropy:             0.1273353
  heat_capacity:       0.4016184
  energy:            144.7481297

- temperature:        66.0000000
  free_energy:       144.7397127
  entropy:             0.1403418
  heat_capacity:       0.4445154
  energy:            144.7489753

- temperature:        68.0000000
  free_energy:       144.7394183
  entropy:             0.1542914
  heat_capacity:       0.4908578
  energy:            144.7499101

- temperature:        70.0000000
  free_energy:       144.7390949
  entropy:             0.1692322
  heat_capacity:       0.5408535
  energy:            144.7509412

- temperature:        72.0000000
  free_energy:       144.7387406
  entropy:             0.1852143
  heat_capacity:       0.5947160
  energy:            144.7520761

- temperature:        74.0000000
  free_energy:       144.7383533
  entropy:             0.2022895
  heat_capacity:       0.6526630
  energy:            144.7533228

- temperature:        76.0000000
  free_energy:       144.7379307
  entropy:             0.2205115
  heat_capacity:       0.7149152
  energy:            144.7546896

- temperature:        78.0000000
  free_energy:       144.7374705
  entropy:             0.2399353
  heat_capacity:       0.7816948
  energy:            144.7561854

- temperature:        80.0000000
  free_energy:       144.7369701
  entropy:             0.2606175
  heat_capacity:       0.8532241
  energy:            144.7578195

- temperature:        82.0000000
  free_energy:       144.7364271
  entropy:             0.2826160
  heat_capacity:       0.9297244
  energy:            144.7596016

- temperature:        84.0000000
  free_energy:       144.7358388
  entropy:             0.3059897
  heat_capacity:       1.0114142
  energy:            144.7615419

- temperature:        86.0000000
  free_energy:       144.7352022
  entropy:             0.3307987
  heat_capacity:       1.0985079
  energy:            144.7636509

- temperature:        88.0000000
  free_energy:       144.7345146
  entropy:             0.3571035
  heat_capacity:       1.1912152
  energy:            144.7659397

- temperature:        90.0000000
  free_energy:       144.7337728
  entropy:             0.3849653
  heat_capacity:       1.2897393
  energy:            144.7684196

- temperature:        92.0000000
  free_energy:       144.7329736
  entropy:             0.4144458
  heat_capacity:       1.3942763
  energy:            144.7711026

- temperature:        94.0000000
  free_energy:       144.7321139
  entropy:             0.4456066
  heat_capacity:       1.5050139
  energy:            144.7740009

- temperature:        96.0000000
  free_energy:       144.7311900
  entropy:             0.4785094
  heat_capacity:       1.6221312
  energy:            144.7771269

- temperature:        98.0000000
  free_energy:       144.7301986
  entropy:             0.5132158
  heat_capacity:       1.7457978
  energy:            144.7804938

- temperature:       100.0000000
  free_energy:       144.7291359
  entropy:             0.5497868
  heat_capacity:       1.8761732
  energy:            144.7841146

- temperature:       102.0000000
  free_energy:       144.7279982
  entropy:             0.5882828
  heat_capacity:       2.0134063
  energy:            144.7880030

- temperature:       104.0000000
  free_energy:       144.7267815
  entropy:             0.6287637
  heat_capacity:       2.1576356
  energy:            144.7921729

- temperature:       106.0000000
  free_energy:       144.7254818
  entropy:             0.6712883
  heat_capacity:       2.3089888
  energy:            144.7966383

- temperature:       108.0000000
  free_energy:       144.7240949
  entropy:             0.7159144
  heat_capacity:       2.4675823
  energy:            144.8014137

- temperature:       110.0000000
  free_energy:       144.7226167
  entropy:             0.7626989
  heat_capacity:       2.6335221
  energy:            144.8065136

- temperature:       112.0000000
  free_energy:       144.7210427
  entropy:             0.8116971
  heat_capacity:       2.8069032
  energy:            144.8119527

- temperature:       114.0000000
  free_energy:       144.7193684
  entropy:             0.8629632
  heat_capacity:       2.9878100
  energy:            144.8177462

- temperature:       116.0000000
  free_energy:       144.7175893
  entropy:             0.9165499
  heat_capacity:       3.1763166
  energy:            144.8239090

- temperature:       118.0000000
  free_energy:       144.7157006
  entropy:             0.9725082
  heat_capacity:       3.3724871
  energy:            144.8304566

- temperature:       120.0000000
  free_energy:       144.7136976
  entropy:             1.0308877
  heat_capacity:       3.5763758
  energy:            144.8374041

- temperature:       122.0000000
  free_energy:       144.7115754
  entropy:             1.0917364
  heat_capacity:       3.7880277
  energy:            144.8447672

- temperature:       124.0000000
  free_energy:       144.7093290
  entropy:             1.1551005
  heat_capacity:       4.0074790
  energy:            144.8525614

- temperature:       126.0000000
  free_energy:       144.7069533
  entropy:             1.2210245
  heat_capacity:       4.2347570
  energy:            144.8608024

- temperature:       128.0000000
  free_energy:       144.7044432
  entropy:             1.2895512
  heat_capacity:       4.4698811
  energy:            144.8695057

- temperature:       130.0000000
  free_energy:       144.7017933
  entropy:             1.3607216
  heat_capacity:       4.7128632
  energy:            144.8786871

- temperature:       132.0000000
  free_energy:       144.6989985
  entropy:             1.4345752
  heat_capacity:       4.9637074
  energy:            144.8883624

- temperature:       134.0000000
  free_energy:       144.6960532
  entropy:             1.5111492
  heat_capacity:       5.2224115
  energy:            144.8985472

- temperature:       136.0000000
  free_energy:       144.6929520
  entropy:             1.5904797
  heat_capacity:       5.4889665
  energy:            144.9092573

- temperature:       138.0000000
  free_energy:       144.6896894
  entropy:             1.6726005
  heat_capacity:       5.7633575
  energy:            144.9205083

- temperature:       140.0000000
  free_energy:       144.6862598
  entropy:             1.7575440
  heat_capacity:       6.0455637
  energy:            144.9323159

- temperature:       142.0000000
  free_energy:       144.6826574
  entropy:             1.8453408
  heat_capacity:       6.3355594
  energy:            144.9446957

- temperature:       144.0000000
  free_energy:       144.6788765
  entropy:             1.9360198
  heat_capacity:       6.6333135
  energy:            144.9576633

- temperature:       146.0000000
  free_energy:       144.6749113
  entropy:             2.0296083
  heat_capacity:       6.9387906
  energy:            144.9712341

- temperature:       148.0000000
  free_energy:       144.6707561
  entropy:             2.1261320
  heat_capacity:       7.2519506
  energy:            144.9854236

- temperature:       150.0000000
  free_energy:       144.6664048
  entropy:             2.2256147
  heat_capacity:       7.5727497
  energy:            145.0002470

- temperature:       152.0000000
  free_energy:       144.6618516
  entropy:             2.3280792
  heat_capacity:       7.9011400
  energy:            145.0157197

- temperature:       154.0000000
  free_energy:       144.6570905
  entropy:             2.4335462
  heat_capacity:       8.2370703
  energy:            145.0318566

- temperature:       156.0000000
  free_energy:       144.6521154
  entropy:             2.5420353
  heat_capacity:       8.5804860
  energy:            145.0486729

- temperature:       158.0000000
  free_energy:       144.6469203
  entropy:             2.6535644
  heat_capacity:       8.9313291
  energy:            145.0661835

- temperature:       160.0000000
  free_energy:       144.6414991
  entropy:             2.7681502
  heat_capacity:       9.2895391
  energy:            145.0844032

- temperature:       162.0000000
  free_energy:       144.6358457
  entropy:             2.8858077
  heat_capacity:       9.6550524
  energy:            145.1033465

- temperature:       164.0000000
  free_energy:       144.6299539
  entropy:             3.0065509
  heat_capacity:      10.0278028
  energy:            145.1230282

- temperature:       166.0000000
  free_energy:       144.6238174
  entropy:             3.1303923
  heat_capacity:      10.4077220
  energy:            145.1434625

- temperature:       168.0000000
  free_energy:       144.6174302
  entropy:             3.2573429
  heat_capacity:      10.7947388
  energy:            145.1646638

- temperature:       170.0000000
  free_energy:       144.6107860
  entropy:             3.3874130
  heat_capacity:      11.1887801
  energy:            145.1866462

- temperature:       172.0000000
  free_energy:       144.6038785
  entropy:             3.5206111
  heat_capacity:      11.5897707
  energy:            145.2094236

- temperature:       174.0000000
  free_energy:       144.5967014
  entropy:             3.6569448
  heat_capacity:      11.9976331
  energy:            145.2330098

- temperature:       176.0000000
  free_energy:       144.5892486
  entropy:             3.7964207
  heat_capacity:      12.4122882
  energy:            145.2574186

- temperature:       178.0000000
  free_energy:       144.5815137
  entropy:             3.9390439
  heat_capacity:      12.8336548
  energy:            145.2826635

- temperature:       180.0000000
  free_energy:       144.5734903
  entropy:             4.0848186
  heat_capacity:      13.2616500
  energy:            145.3087577

- temperature:       182.0000000
  free_energy:       144.5651723
  entropy:             4.2337481
  heat_capacity:      13.6961891
  energy:            145.3357144

- temperature:       184.0000000
  free_energy:       144.5565532
  entropy:             4.3858343
  heat_capacity:      14.1371859
  energy:            145.3635467

- temperature:       186.0000000
  free_energy:       144.5476268
  entropy:             4.5410784
  heat_capacity:      14.5845523
  energy:            145.3922674

- temperature:       188.0000000
  free_energy:       144.5383868
  entropy:             4.6994805
  heat_capacity:      15.0381991
  energy:            145.4218891

- temperature:       190.0000000
  free_energy:       144.5288268
  entropy:             4.8610396
  heat_capacity:      15.4980352
  energy:            145.4524243

- temperature:       192.0000000
  free_energy:       144.5189405
  entropy:             5.0257541
  heat_capacity:      15.9639682
  energy:            145.4838853

- temperature:       194.0000000
  free_energy:       144.5087217
  entropy:             5.1936213
  heat_capacity:      16.4359046
  energy:            145.5162842

- temperature:       196.0000000
  free_energy:       144.4981640
  entropy:             5.3646374
  heat_capacity:      16.9137491
  energy:            145.5496329

- temperature:       198.0000000
  free_energy:       144.4872610
  entropy:             5.5387982
  heat_capacity:      17.3974054
  energy:            145.5839431

- temperature:       200.0000000
  free_energy:       144.4760067
  entropy:             5.7160983
  heat_capacity:      17.8867761
  energy:            145.6192263

- temperature:       202.0000000
  free_energy:       144.4643946
  entropy:             5.8965315
  heat_capacity:      18.3817623
  energy:            145.6554939

- temperature:       204.0000000
  free_energy:       144.4524185
  entropy:             6.0800911
  heat_capacity:      18.8822642
  energy:            145.6927571

- temperature:       206.0000000
  free_energy:       144.4400721
  entropy:             6.2667693
  heat_capacity:      19.3881809
  energy:            145.7310266

- temperature:       208.0000000
  free_energy:       144.4273493
  entropy:             6.4565577
  heat_capacity:      19.8994104
  energy:            145.7703133

- temperature:       210.0000000
  free_energy:       144.4142438
  entropy:             6.6494471
  heat_capacity:      20.4158498
  energy:            145.8106277

- temperature:       212.0000000
  free_energy:       144.4007495
  entropy:             6.8454276
  heat_capacity:      20.9373954
  energy:            145.8519801

- temperature:       214.0000000
  free_energy:       144.3868601
  entropy:             7.0444887
  heat_capacity:      21.4639425
  energy:            145.8943806

- temperature:       216.0000000
  free_energy:       144.3725695
  entropy:             7.2466190
  heat_capacity:      21.9953857
  energy:            145.9378392

- temperature:       218.0000000
  free_energy:       144.3578715
  entropy:             7.4518065
  heat_capacity:      22.5316187
  energy:            145.9823654

- temperature:       220.0000000
  free_energy:       144.3427602
  entropy:             7.6600389
  heat_capacity:      23.0725349
  energy:            146.0279688

- temperature:       222.0000000
  free_energy:       144.3272294
  entropy:             7.8713027
  heat_capacity:      23.6180268
  energy:            146.0746586

- temperature:       224.0000000
  free_energy:       144.3112730
  entropy:             8.0855842
  heat_capacity:      24.1679862
  energy:            146.1224438

- temperature:       226.0000000
  free_energy:       144.2948850
  entropy:             8.3028690
  heat_capacity:      24.7223049
  energy:            146.1713334

- temperature:       228.0000000
  free_energy:       144.2780595
  entropy:             8.5231420
  heat_capacity:      25.2808739
  energy:            146.2213359

- temperature:       230.0000000
  free_energy:       144.2607905
  entropy:             8.7463878
  heat_capacity:      25.8435840
  energy:            146.2724597

- temperature:       232.0000000
  free_energy:       144.2430720
  entropy:             8.9725902
  heat_capacity:      26.4103255
  energy:            146.3247129

- temperature:       234.0000000
  free_energy:       144.2248982
  entropy:             9.2017326
  heat_capacity:      26.9809887
  energy:            146.3781036

- temperature:       236.0000000
  free_energy:       144.2062631
  entropy:             9.4337979
  heat_capacity:      27.5554637
  energy:            146.4326394

- temperature:       238.0000000
  free_energy:       144.1871610
  entropy:             9.6687684
  heat_capacity:      28.1336403
  energy:            146.4883279

- temperature:       240.0000000
  free_energy:       144.1675861
  entropy:             9.9066260
  heat_capacity:      28.7154086
  energy:            146.5451764

- temperature:       242.0000000
  free_energy:       144.1475326
  entropy:            10.1473523
  heat_capacity:      29.3006582
  energy:            146.6031919

- temperature:       244.0000000
  free_energy:       144.1269948
  entropy:            10.3909280
  heat_capacity:      29.8892794
  energy:            146.6623812

- temperature:       246.0000000
  free_energy:       144.1059670
  entropy:            10.6373339
  heat_capacity:      30.4811621
  energy:            146.7227512

- temperature:       248.0000000
  free_energy:       144.0844436
  entropy:            10.8865500
  heat_capacity:      31.0761967
  energy:            146.7843080

- temperature:       250.0000000
  free_energy:       144.0624190
  entropy:            11.1385561
  heat_capacity:      31.6742738
  energy:            146.8470580

- temperature:       252.0000000
  free_energy:       144.0398875
  entropy:            11.3933314
  heat_capacity:      32.2752842
  energy:            146.9110070

- temperature:       254.0000000
  free_energy:       144.0168438
  entropy:            11.6508551
  heat_capacity:      32.8791194
  energy:            146.9761610

- temperature:       256.0000000
  free_energy:       143.9932823
  entropy:            11.9111057
  heat_capacity:      33.4856709
  energy:            147.0425253

- temperature:       258.0000000
  free_energy:       143.9691976
  entropy:            12.1740614
  heat_capacity:      34.0948310
  energy:            147.1101054

- temperature:       260.0000000
  free_energy:       143.9445843
  entropy:            12.4397003
  heat_capacity:      34.7064925
  energy:            147.1789063

- temperature:       262.0000000
  free_energy:       143.9194370
  entropy:            12.7079999
  heat_capacity:      35.3205486
  energy:            147.2489330

- temperature:       264.0000000
  free_energy:       143.8937505
  entropy:            12.9789377
  heat_capacity:      35.9368934
  energy:            147.3201900

- temperature:       266.0000000
  free_energy:       143.8675195
  entropy:            13.2524906
  heat_capacity:      36.5554216
  energy:            147.3926820

- temperature:       268.0000000
  free_energy:       143.8407388
  entropy:            13.5286355
  heat_capacity:      37.1760286
  energy:            147.4664131

- temperature:       270.0000000
  free_energy:       143.8134032
  entropy:            13.8073489
  heat_capacity:      37.7986107
  energy:            147.5413874

- temperature:       272.0000000
  free_energy:       143.7855077
  entropy:            14.0886070
  heat_capacity:      38.4230648
  energy:            147.6176088

- temperature:       274.0000000
  free_energy:       143.7570471
  entropy:            14.3723859
  heat_capacity:      39.0492889
  energy:            147.6950809

- temperature:       276.0000000
  free_energy:       143.7280165
  entropy:            14.6586615
  heat_capacity:      39.6771819
  energy:            147.7738071

- temperature:       278.0000000
  free_energy:       143.6984108
  entropy:            14.9474094
  heat_capacity:      40.3066437
  energy:            147.8537907

- temperature:       280.0000000
  free_energy:       143.6682252
  entropy:            15.2386050
  heat_capacity:      40.9375750
  energy:            147.9350346

- temperature:       282.0000000
  free_energy:       143.6374548
  entropy:            15.5322236
  heat_capacity:      41.5698776
  energy:            148.0175419

- temperature:       284.0000000
  free_energy:       143.6060947
  entropy:            15.8282403
  heat_capacity:      42.2034545
  energy:            148.1013150

- temperature:       286.0000000
  free_energy:       143.5741403
  entropy:            16.1266301
  heat_capacity:      42.8382098
  energy:            148.1863565

- temperature:       288.0000000
  free_energy:       143.5415867
  entropy:            16.4273677
  heat_capacity:      43.4740485
  energy:            148.2726686

- temperature:       290.0000000
  free_energy:       143.5084292
  entropy:            16.7304278
  heat_capacity:      44.1108769
  energy:            148.3602533

- temperature:       292.0000000
  free_energy:       143.4746634
  entropy:            17.0357851
  heat_capacity:      44.7486027
  energy:            148.4491127

- temperature:       294.0000000
  free_energy:       143.4402846
  entropy:            17.3434139
  heat_capacity:      45.3871343
  energy:            148.5392483

- temperature:       296.0000000
  free_energy:       143.4052883
  entropy:            17.6532886
  heat_capacity:      46.0263819
  energy:            148.6306617

- temperature:       298.0000000
  free_energy:       143.3696700
  entropy:            17.9653834
  heat_capacity:      46.6662565
  energy:            148.7233542

- temperature:       300.0000000
  free_energy:       143.3334253
  entropy:            18.2796727
  heat_capacity:      47.3066707
  energy:            148.8173271

- temperature:       302.0000000
  free_energy:       143.2965498
  entropy:            18.5961304
  heat_capacity:      47.9475383
  energy:            148.9125812

- temperature:       304.0000000
  free_energy:       143.2590393
  entropy:            18.9147307
  heat_capacity:      48.5887742
  energy:            149.0091175

- temperature:       306.0000000
  free_energy:       143.2208895
  entropy:            19.2354477
  heat_capacity:      49.2302949
  energy:            149.1069365

- temperature:       308.0000000
  free_energy:       143.1820961
  entropy:            19.5582553
  heat_capacity:      49.8720181
  energy:            149.2060388

- temperature:       310.0000000
  free_energy:       143.1426551
  entropy:            19.8831276
  heat_capacity:      50.5138629
  energy:            149.3064246

- temperature:       312.0000000
  free_energy:       143.1025623
  entropy:            20.2100384
  heat_capacity:      51.1557498
  energy:            149.4080943

- temperature:       314.0000000
  free_energy:       143.0618136
  entropy:            20.5389619
  heat_capacity:      51.7976007
  energy:            149.5110476

- temperature:       316.0000000
  free_energy:       143.0204051
  entropy:            20.8698718
  heat_capacity:      52.4393386
  energy:            149.6152846

- temperature:       318.0000000
  free_energy:       142.9783328
  entropy:            21.2027423
  heat_capacity:      53.0808882
  energy:            149.7208048

- temperature:       320.0000000
  free_energy:       142.9355928
  entropy:            21.5375473
  heat_capacity:      53.7221756
  energy:            149.8276080

- temperature:       322.0000000
  free_energy:       142.8921813
  entropy:            21.8742608
  heat_capacity:      54.3631279
  energy:            149.9356933

- temperature:       324.0000000
  free_energy:       142.8480945
  entropy:            22.2128570
  heat_capacity:      55.0036741
  energy:            150.0450602

- temperature:       326.0000000
  free_energy:       142.8033287
  entropy:            22.5533099
  heat_capacity:      55.6437443
  energy:            150.1557077

- temperature:       328.0000000
  free_energy:       142.7578801
  entropy:            22.8955937
  heat_capacity:      56.2832701
  energy:            150.2676348

- temperature:       330.0000000
  free_energy:       142.7117451
  entropy:            23.2396827
  heat_capacity:      56.9221844
  energy:            150.3808404

- temperature:       332.0000000
  free_energy:       142.6649202
  entropy:            23.5855510
  heat_capacity:      57.5604216
  energy:            150.4953231

- temperature:       334.0000000
  free_energy:       142.6174017
  entropy:            23.9331732
  heat_capacity:      58.1979174
  energy:            150.6110816

- temperature:       336.0000000
  free_energy:       142.5691863
  entropy:            24.2825236
  heat_capacity:      58.8346091
  energy:            150.7281142

- temperature:       338.0000000
  free_energy:       142.5202705
  entropy:            24.6335767
  heat_capacity:      59.4704350
  energy:            150.8464194

- temperature:       340.0000000
  free_energy:       142.4706509
  entropy:            24.9863073
  heat_capacity:      60.1053352
  energy:            150.9659954

- temperature:       342.0000000
  free_energy:       142.4203242
  entropy:            25.3406899
  heat_capacity:      60.7392508
  energy:            151.0868401

- temperature:       344.0000000
  free_energy:       142.3692870
  entropy:            25.6966995
  heat_capacity:      61.3721246
  energy:            151.2089517

- temperature:       346.0000000
  free_energy:       142.3175363
  entropy:            26.0543109
  heat_capacity:      62.0039004
  energy:            151.3323279

- temperature:       348.0000000
  free_energy:       142.2650687
  entropy:            26.4134993
  heat_capacity:      62.6345237
  energy:            151.4569665

- temperature:       350.0000000
  free_energy:       142.2118813
  entropy:            26.7742397
  heat_capacity:      63.2639411
  energy:            151.5828652

- temperature:       352.0000000
  free_energy:       142.1579708
  entropy:            27.1365075
  heat_capacity:      63.8921007
  energy:            151.7100214

- temperature:       354.0000000
  free_energy:       142.1033342
  entropy:            27.5002782
  heat_capacity:      64.5189516
  energy:            151.8384327

- temperature:       356.0000000
  free_energy:       142.0479687
  entropy:            27.8655271