<?xml version="1.0" encoding="ISO-8859-1"?>
<modeling>
 <generator>
  <i name="program" type="string">vasp </i>
  <i name="version" type="string">5.4.4.18Apr17-6-g9f103f2a35  </i>
  <i name="subversion" type="string">(build Mar 12 2022 03:36:41) complex            parallel </i>
  <i name="platform" type="string">IFC19.0.3.199_CrayMPICH7.7.19 </i>
  <i name="date" type="string">2022 12 02 </i>
  <i name="time" type="string">02:13:54 </i>
 </generator>
 <incar>
  <i type="string" name="PREC">accurate</i>
  <i type="int" name="IALGO">    38</i>
  <i type="logical" name="ADDGRID"> T  </i>
  <i type="int" name="IBRION">     8</i>
  <i name="EDIFF">      0.00000001</i>
  <i type="logical" name="LREAL"> F  </i>
  <i type="int" name="ISMEAR">     0</i>
  <i name="SIGMA">      0.06000000</i>
  <i type="logical" name="LWAVE"> F  </i>
  <i type="logical" name="LCHARG"> F  </i>
  <v type="int" name="KPOINT_BSE">    -1     0     0     0</v>
 </incar>
 <structure name="primitive_cell" >
  <crystal>
   <varray name="basis" >
    <v>       0.00000000      -1.74031656       1.79499968 </v>
    <v>       0.00000000       1.74031656       1.79499968 </v>
    <v>      -1.74031656       0.00000000      -1.79499968 </v>
   </varray>
   <i name="volume">     10.87303725 </i>
   <varray name="rec_basis" >
    <v>      -0.28730405      -0.28730405       0.27855158 </v>
    <v>      -0.28730405       0.28730405       0.27855158 </v>
    <v>      -0.57460811       0.00000000       0.00000000 </v>
   </varray>
  </crystal>
  <varray name="positions" >
   <v>       0.25000000      -0.25000000      -0.50000000 </v>
   <v>      -0.50000000      -0.50000000       0.00000000 </v>
  </varray>
 </structure>
 <varray name="primitive_index" >
  <v type="int" >        1 </v>
  <v type="int" >       11 </v>
 </varray>
 <kpoints>
  <generation param="Gamma">
   <v type="int" name="divisions">       6        6        6 </v>
   <v name="usershift">      0.00000000       0.00000000       0.00000000 </v>
   <v name="genvec1">      0.16666667       0.00000000       0.00000000 </v>
   <v name="genvec2">      0.00000000       0.16666667       0.00000000 </v>
   <v name="genvec3">      0.00000000       0.00000000       0.16666667 </v>
   <v name="shift">      0.00000000       0.00000000       0.00000000 </v>
  </generation>
  <varray name="kpointlist" >
   <v>       0.00000000       0.00000000       0.00000000 </v>
   <v>       0.16666667       0.00000000       0.00000000 </v>
   <v>       0.33333333       0.00000000       0.00000000 </v>
   <v>       0.50000000       0.00000000       0.00000000 </v>
   <v>       0.16666667       0.16666667       0.00000000 </v>
   <v>       0.33333333       0.16666667       0.00000000 </v>
   <v>       0.50000000       0.16666667       0.00000000 </v>
   <v>       0.33333333       0.33333333       0.00000000 </v>
   <v>       0.50000000       0.33333333       0.00000000 </v>
   <v>       0.50000000       0.50000000       0.00000000 </v>
   <v>       0.00000000       0.00000000       0.16666667 </v>
   <v>       0.16666667       0.00000000       0.16666667 </v>
   <v>       0.33333333       0.00000000       0.16666667 </v>
   <v>       0.50000000       0.00000000       0.16666667 </v>
   <v>       0.16666667       0.16666667       0.16666667 </v>
   <v>       0.33333333       0.16666667       0.16666667 </v>
   <v>       0.50000000       0.16666667       0.16666667 </v>
   <v>       0.33333333       0.33333333       0.16666667 </v>
   <v>       0.50000000       0.33333333       0.16666667 </v>
   <v>       0.50000000       0.50000000       0.16666667 </v>
   <v>       0.00000000       0.00000000       0.33333333 </v>
   <v>       0.16666667       0.00000000       0.33333333 </v>
   <v>       0.33333333       0.00000000       0.33333333 </v>
   <v>       0.50000000       0.00000000       0.33333333 </v>
   <v>       0.16666667       0.16666667       0.33333333 </v>
   <v>       0.33333333       0.16666667       0.33333333 </v>
   <v>       0.50000000       0.16666667       0.33333333 </v>
   <v>       0.33333333       0.33333333       0.33333333 </v>
   <v>       0.50000000       0.33333333       0.33333333 </v>
   <v>       0.50000000       0.50000000       0.33333333 </v>
   <v>       0.00000000       0.00000000       0.50000000 </v>
   <v>       0.16666667       0.00000000       0.50000000 </v>
   <v>       0.33333333       0.00000000       0.50000000 </v>
   <v>       0.50000000       0.00000000       0.50000000 </v>
   <v>       0.16666667       0.16666667       0.50000000 </v>
   <v>       0.33333333       0.16666667       0.50000000 </v>
   <v>       0.50000000       0.16666667       0.50000000 </v>
   <v>       0.33333333       0.33333333       0.50000000 </v>
   <v>       0.50000000       0.33333333       0.50000000 </v>
   <v>       0.50000000       0.50000000       0.50000000 </v>
  </varray>
  <varray name="weights" >
   <v>       0.00462963 </v>
   <v>       0.01851852 </v>
   <v>       0.01851852 </v>
   <v>       0.00925926 </v>
   <v>       0.01851852 </v>
   <v>       0.03703704 </v>
   <v>       0.01851852 </v>
   <v>       0.01851852 </v>
   <v>       0.01851852 </v>
   <v>       0.00462963 </v>
   <v>       0.00925926 </v>
   <v>       0.03703704 </v>
   <v>       0.03703704 </v>
   <v>       0.01851852 </v>
   <v>       0.03703704 </v>
   <v>       0.07407407 </v>
   <v>       0.03703704 </v>
   <v>       0.03703704 </v>
   <v>       0.03703704 </v>
   <v>       0.00925926 </v>
   <v>       0.00925926 </v>
   <v>       0.03703704 </v>
   <v>       0.03703704 </v>
   <v>       0.01851852 </v>
   <v>       0.03703704 </v>
   <v>       0.07407407 </v>
   <v>       0.03703704 </v>
   <v>       0.03703704 </v>
   <v>       0.03703704 </v>
   <v>       0.00925926 </v>
   <v>       0.00462963 </v>
   <v>       0.01851852 </v>
   <v>       0.01851852 </v>
   <v>       0.00925926 </v>
   <v>       0.01851852 </v>
   <v>       0.03703704 </v>
   <v>       0.01851852 </v>
   <v>       0.01851852 </v>
   <v>       0.01851852 </v>
   <v>       0.00462963 </v>
  </varray>
 </kpoints>
 <parameters>
  <separator name="general" >
   <i type="string" name="SYSTEM">unknown system</i>
   <i type="logical" name="LCOMPAT"> F  </i>
  </separator>
  <separator name="electronic" >
   <i type="string" name="PREC">accura</i>
   <i name="ENMAX">    400.00000000</i>
   <i name="ENAUG">    644.87300000</i>
   <i name="EDIFF">      0.00000001</i>
   <i type="int" name="IALGO">    38</i>
   <i type="int" name="IWAVPR">    11</i>
   <i type="int" name="NBANDS">   192</i>
   <i name="NELECT">    256.00000000</i>
   <i type="int" name="TURBO">     0</i>
   <i type="int" name="IRESTART">     0</i>
   <i type="int" name="NREBOOT">     0</i>
   <i type="int" name="NMIN">     0</i>
   <i name="EREF">      0.00000000</i>
   <separator name="electronic smearing" >
    <i type="int" name="ISMEAR">     0</i>
    <i name="SIGMA">      0.06000000</i>
    <i name="KSPACING">      0.50000000</i>
    <i type="logical" name="KGAMMA"> T  </i>
   </separator>
   <separator name="electronic projectors" >
    <i type="logical" name="LREAL"> F  </i>
    <v name="ROPT">      0.00000000</v>
    <i type="int" name="LMAXPAW">  -100</i>
    <i type="int" name="LMAXMIX">     2</i>
    <i type="logical" name="NLSPLINE"> F  </i>
   </separator>
   <separator name="electronic startup" >
    <i type="int" name="ISTART">     0</i>
    <i type="int" name="ICHARG">     2</i>
    <i type="int" name="INIWAV">     1</i>
   </separator>
   <separator name="electronic spin" >
    <i type="int" name="ISPIN">     1</i>
    <i type="logical" name="LNONCOLLINEAR"> F  </i>
    <v name="MAGMOM">      1.00000000      1.00000000      1.00000000      1.00000000      1.00000000      1.00000000      1.00000000      1.00000000      1.00000000      1.00000000      1.00000000      1.00000000      1.00000000      1.00000000      1.00000000      1.00000000      1.00000000      1.00000000      1.00000000      1.00000000
      1.00000000      1.00000000      1.00000000      1.00000000      1.00000000      1.00000000      1.00000000      1.00000000      1.00000000      1.00000000      1.00000000      1.00000000      1.00000000      1.00000000      1.00000000      1.00000000      1.00000000      1.00000000      1.00000000      1.00000000
      1.00000000      1.00000000      1.00000000      1.00000000      1.00000000      1.00000000      1.00000000      1.00000000      1.00000000      1.00000000      1.00000000      1.00000000      1.00000000      1.00000000      1.00000000      1.00000000      1.00000000      1.00000000      1.00000000      1.00000000
      1.00000000      1.00000000      1.00000000      1.00000000</v>
    <i name="NUPDOWN">     -1.00000000</i>
    <i type="logical" name="LSORBIT"> F  </i>
    <v name="SAXIS">      0.00000000      0.00000000      1.00000000</v>
    <i type="logical" name="LSPIRAL"> F  </i>
    <v name="QSPIRAL">      0.00000000      0.00000000      0.00000000</v>
    <i type="logical" name="LZEROZ"> F  </i>
   </separator>
   <separator name="electronic exchange-correlation" >
    <i type="logical" name="LASPH"> F  </i>
    <i type="logical" name="LMETAGGA"> F  </i>
   </separator>
   <separator name="electronic convergence" >
    <i type="int" name="NELM">    60</i>
    <i type="int" name="NELMDL">    -5</i>
    <i type="int" name="NELMIN">     2</i>
    <i name="ENINI">    400.00000000</i>
    <separator name="electronic convergence detail" >
     <i type="logical" name="LDIAG"> T  </i>
     <i type="logical" name="LSUBROT"> F  </i>
     <i name="WEIMIN">      0.00100000</i>
     <i name="EBREAK">      0.00000000</i>
     <i name="DEPER">      0.30000000</i>
     <i type="int" name="NRMM">     4</i>
     <i name="TIME">      0.40000000</i>
    </separator>
   </separator>
   <separator name="electronic mixer" >
    <i name="AMIX">      0.40000000</i>
    <i name="BMIX">      1.00000000</i>
    <i name="AMIN">      0.10000000</i>
    <i name="AMIX_MAG">      1.60000000</i>
    <i name="BMIX_MAG">      1.00000000</i>
    <separator name="electronic mixer details" >
     <i type="int" name="IMIX">     4</i>
     <i type="logical" name="MIXFIRST"> F  </i>
     <i type="int" name="MAXMIX">   -45</i>
     <i name="WC">    100.00000000</i>
     <i type="int" name="INIMIX">     1</i>
     <i type="int" name="MIXPRE">     1</i>
     <i type="int" name="MREMOVE">     5</i>
    </separator>
   </separator>
   <separator name="electronic dipolcorrection" >
    <i type="logical" name="LDIPOL"> F  </i>
    <i type="logical" name="LMONO"> F  </i>
    <i type="int" name="IDIPOL">     0</i>
    <i name="EPSILON">      1.00000000</i>
    <v name="DIPOL">   -100.00000000   -100.00000000   -100.00000000</v>
    <i name="EFIELD">      0.00000000</i>
   </separator>
  </separator>
  <separator name="grids" >
   <i type="int" name="NGX">    48</i>
   <i type="int" name="NGY">    48</i>
   <i type="int" name="NGZ">    48</i>
   <i type="int" name="NGXF">    96</i>
   <i type="int" name="NGYF">    96</i>
   <i type="int" name="NGZF">    96</i>
   <i type="logical" name="ADDGRID"> T  </i>
  </separator>
  <separator name="ionic" >
   <i type="int" name="NSW">     1</i>
   <i type="int" name="IBRION">     8</i>
   <i type="int" name="MDALGO">     0</i>
   <i type="int" name="ISIF">     2</i>
   <i name="PSTRESS">      0.00000000</i>
   <i name="EDIFFG">      0.00000010</i>
   <i type="int" name="NFREE">     0</i>
   <i name="POTIM">      0.50000000</i>
   <i name="SMASS">     -3.00000000</i>
   <i name="SCALEE">      1.00000000</i>
  </separator>
  <separator name="ionic md" >
   <i name="TEBEG">      0.00010000</i>
   <i name="TEEND">      0.00010000</i>
   <i type="int" name="NBLOCK">     1</i>
   <i type="int" name="KBLOCK">     1</i>
   <i type="int" name="NPACO">   256</i>
   <i name="APACO">     16.00000000</i>
  </separator>
  <separator name="symmetry" >
   <i type="int" name="ISYM">     2</i>
   <i name="SYMPREC">      0.00001000</i>
  </separator>
  <separator name="dos" >
   <i type="int" name="LORBIT">     0</i>
   <v name="RWIGS">     -1.00000000</v>
   <i type="int" name="NEDOS">   301</i>
   <i name="EMIN">     10.00000000</i>
   <i name="EMAX">    -10.00000000</i>
   <i name="EFERMI">      0.00000000</i>
  </separator>
  <separator name="writing" >
   <i type="int" name="NWRITE">     2</i>
   <i type="logical" name="LWAVE"> F  </i>
   <i type="logical" name="LDOWNSAMPLE"> F  </i>
   <i type="logical" name="LCHARG"> F  </i>
   <i type="logical" name="LPARD"> F  </i>
   <i type="logical" name="LVTOT"> F  </i>
   <i type="logical" name="LVHAR"> F  </i>
   <i type="logical" name="LELF"> F  </i>
   <i type="logical" name="LOPTICS"> F  </i>
   <v name="STM">      0.00000000      0.00000000      0.00000000      0.00000000      0.00000000      0.00000000      0.00000000</v>
  </separator>
  <separator name="performance" >
   <i type="int" name="NPAR">    32</i>
   <i type="int" name="NSIM">     4</i>
   <i type="int" name="NBLK">    -1</i>
   <i type="logical" name="LPLANE"> T  </i>
   <i type="logical" name="LSCALAPACK"> T  </i>
   <i type="logical" name="LSCAAWARE"> F  </i>
   <i type="logical" name="LSCALU"> F  </i>
   <i type="logical" name="LASYNC"> F  </i>
   <i type="logical" name="LORBITALREAL"> F  </i>
  </separator>
  <separator name="miscellaneous" >
   <i type="int" name="IDIOT">     3</i>
   <i type="int" name="ISPECIAL">     0</i>
   <i type="logical" name="LMUSIC"> F  </i>
   <v name="POMASS">     12.01100000</v>
   <v name="DARWINR">      0.00000000</v>
   <v name="DARWINV">      1.00000000</v>
   <i type="logical" name="LCORR"> T  </i>
  </separator>
  <i type="logical" name="GGA_COMPAT"> T  </i>
  <i type="logical" name="LBERRY"> F  </i>
  <i type="int" name="ICORELEVEL">     0</i>
  <i type="logical" name="LDAU"> F  </i>
  <i type="int" name="I_CONSTRAINED_M">     0</i>
  <separator name="electronic exchange-correlation" >
   <i type="string" name="GGA">--</i>
   <i type="int" name="VOSKOWN">     0</i>
   <i type="logical" name="LHFCALC"> F  </i>
   <i type="string" name="PRECFOCK"></i>
   <i type="logical" name="LSYMGRAD"> F  </i>
   <i type="logical" name="LHFONE"> F  </i>
   <i type="logical" name="LRHFCALC"> F  </i>
   <i type="logical" name="LTHOMAS"> F  </i>
   <i type="logical" name="LMODELHF"> F  </i>
   <i name="ENCUT4O">     -1.00000000</i>
   <i type="int" name="EXXOEP">     0</i>
   <i type="int" name="FOURORBIT">     0</i>
   <i name="AEXX">      0.00000000</i>
   <i name="HFALPHA">      0.00000000</i>
   <i name="MCALPHA">      0.00000000</i>
   <i name="ALDAX">      1.00000000</i>
   <i name="AGGAX">      1.00000000</i>
   <i name="ALDAC">      1.00000000</i>
   <i name="AGGAC">      1.00000000</i>
   <i type="int" name="NKREDX">     1</i>
   <i type="int" name="NKREDY">     1</i>
   <i type="int" name="NKREDZ">     1</i>
   <i type="logical" name="SHIFTRED"> F  </i>
   <i type="logical" name="ODDONLY"> F  </i>
   <i type="logical" name="EVENONLY"> F  </i>
   <i type="int" name="LMAXFOCK">     0</i>
   <i type="int" name="NMAXFOCKAE">     0</i>
   <i type="logical" name="LFOCKAEDFT"> F  </i>
   <i name="HFSCREEN">      0.00000000</i>
   <i name="HFSCREENC">      0.00000000</i>
   <i type="int" name="NBANDSGWLOW">     0</i>
  </separator>
  <separator name="vdW DFT" >
   <i type="logical" name="LUSE_VDW"> F  </i>
   <i name="Zab_VDW">     -0.84910000</i>
   <i name="PARAM1">      0.12340000</i>
   <i name="PARAM2">      1.00000000</i>
   <i name="PARAM3">      0.00000000</i>
  </separator>
  <separator name="model GW" >
   <i type="int" name="MODEL_GW">     0</i>
   <i name="MODEL_EPS0">      3.26191118</i>
   <i name="MODEL_ALPHA">      1.00000000</i>
  </separator>
  <separator name="linear response parameters" >
   <i type="logical" name="LEPSILON"> F  </i>
   <i type="logical" name="LRPA"> F  </i>
   <i type="logical" name="LNABLA"> F  </i>
   <i type="logical" name="LVEL"> F  </i>
   <i type="int" name="KINTER">     0</i>
   <i name="CSHIFT">      0.10000000</i>
   <i name="OMEGAMAX">     -1.00000000</i>
   <i name="DEG_THRESHOLD">      0.00200000</i>
   <i name="RTIME">     -0.10000000</i>
   <i name="WPLASMAI">      0.00000000</i>
   <v name="DFIELD">      0.00000000      0.00000000      0.00000000</v>
   <v name="WPLASMA">      0.00000000      0.00000000      0.00000000      0.00000000      0.00000000      0.00000000      0.00000000      0.00000000      0.00000000</v>
  </separator>
  <separator name="orbital magnetization" >
   <i type="logical" name="NUCIND"> F  </i>
   <v name="MAGPOS">      0.00000000      0.00000000      0.00000000</v>
   <i type="logical" name="LNICSALL"> T  </i>
   <i type="logical" name="ORBITALMAG"> F  </i>
   <i type="logical" name="LMAGBLOCH"> F  </i>
   <i type="logical" name="LCHIMAG"> F  </i>
   <i type="logical" name="LGAUGE"> T  </i>
   <i type="int" name="MAGATOM">     0</i>
   <v name="MAGDIPOL">      0.00000000      0.00000000      0.00000000</v>
   <v name="AVECCONST">      0.00000000      0.00000000      0.00000000</v>
  </separator>
  <separator name="response functions" >
   <i type="logical" name="LADDER"> F  </i>
   <i type="logical" name="LRPAFORCE"> F  </i>
   <i type="logical" name="LFXC"> F  </i>
   <i type="logical" name="LHARTREE"> T  </i>
   <i type="int" name="IBSE">     0</i>
   <v type="int" name="KPOINT">    -1     0     0     0</v>
   <i type="logical" name="LTCTE"> F  </i>
   <i type="logical" name="LTETE"> F  </i>
   <i type="logical" name="LTRIPLET"> F  </i>
   <i type="logical" name="LFXCEPS"> F  </i>
   <i type="logical" name="LFXHEG"> F  </i>
   <i type="int" name="NATURALO">     2</i>
   <i type="logical" name="L2ORDER"> F  </i>
   <i type="logical" name="LMP2LT"> F  </i>
   <i type="logical" name="LUSEW"> F  </i>
   <i name="ENCUTGW">     -2.00000000</i>
   <i name="ENCUTGWSOFT">     -2.00000000</i>
   <i name="ENCUTLF">     -1.00000000</i>
   <i type="int" name="LMAXMP2">    -1</i>
   <i name="SCISSOR">      0.00000000</i>
   <i type="int" name="NOMEGA">     0</i>
   <i type="int" name="NOMEGAR">     0</i>
   <i type="int" name="NBANDSGW">    -1</i>
   <i type="int" name="NBANDSO">    -1</i>
   <i type="int" name="NBANDSV">    -1</i>
   <i type="int" name="NELM">     1</i>
   <i type="int" name="NELMHF">     1</i>
   <i type="int" name="DIM">     3</i>
   <i type="int" name="ANTIRES">     0</i>
   <i name="OMEGAMAX">    -30.00000000</i>
   <i name="OMEGAMIN">    -30.00000000</i>
   <i name="OMEGATL">   -200.00000000</i>
   <i type="int" name="OMEGAGRID">   140</i>
   <i name="CSHIFT">     -0.10000000</i>
   <i type="logical" name="SELFENERGY"> F  </i>
   <i type="logical" name="LSPECTRAL"> F  </i>
   <i type="logical" name="LSPECTRALGW"> F  </i>
   <i type="logical" name="LSINGLES"> F  </i>
   <i type="logical" name="LFERMIGW"> F  </i>
   <i type="logical" name="ODDONLYGW"> F  </i>
   <i type="logical" name="EVENONLYGW"> F  </i>
   <i type="int" name="NKREDLFX">     1</i>
   <i type="int" name="NKREDLFY">     1</i>
   <i type="int" name="NKREDLFZ">     1</i>
   <i type="int" name="MAXMEM">  2800</i>
   <i type="int" name="TELESCOPE">     0</i>
   <i type="int" name="TAUPAR">     1</i>
   <i type="int" name="OMEGAPAR">    -1</i>
   <i name="LAMBDA">      1.00000000</i>
  </separator>
  <separator name="External order field" >
   <i name="OFIELD_KAPPA">      0.00000000</i>
   <v name="OFIELD_K">      0.00000000      0.00000000      0.00000000</v>
   <i name="OFIELD_Q6_NEAR">      0.00000000</i>
   <i name="OFIELD_Q6_FAR">      0.00000000</i>
   <i name="OFIELD_A">      0.00000000</i>
  </separator>
 </parameters>
 <atominfo>
  <atoms>      64 </atoms>
  <types>       1 </types>
  <array name="atoms" >
   <dimension dim="1">ion</dimension>
   <field type="string">element</field>
   <field type="int">atomtype</field>
   <set>
    <rc><c>C </c><c>   1</c></rc>
    <rc><c>C </c><c>   1</c></rc>
    <rc><c>C </c><c>   1</c></rc>
    <rc><c>C </c><c>   1</c></rc>
    <rc><c>C </c><c>   1</c></rc>
    <rc><c>C </c><c>   1</c></rc>
    <rc><c>C </c><c>   1</c></rc>
    <rc><c>C </c><c>   1</c></rc>
    <rc><c>C </c><c>   1</c></rc>
    <rc><c>C </c><c>   1</c></rc>
    <rc><c>C </c><c>   1</c></rc>
    <rc><c>C </c><c>   1</c></rc>
    <rc><c>C </c><c>   1</c></rc>
    <rc><c>C </c><c>   1</c></rc>
    <rc><c>C </c><c>   1</c></rc>
    <rc><c>C </c><c>   1</c></rc>
    <rc><c>C </c><c>   1</c></rc>
    <rc><c>C </c><c>   1</c></rc>
    <rc><c>C </c><c>   1</c></rc>
    <rc><c>C </c><c>   1</c></rc>
    <rc><c>C </c><c>   1</c></rc>
    <rc><c>C </c><c>   1</c></rc>
    <rc><c>C </c><c>   1</c></rc>
    <rc><c>C </c><c>   1</c></rc>
    <rc><c>C </c><c>   1</c></rc>
    <rc><c>C </c><c>   1</c></rc>
    <rc><c>C </c><c>   1</c></rc>
    <rc><c>C </c><c>   1</c></rc>
    <rc><c>C </c><c>   1</c></rc>
    <rc><c>C </c><c>   1</c></rc>
    <rc><c>C </c><c>   1</c></rc>
    <rc><c>C </c><c>   1</c></rc>
    <rc><c>C </c><c>   1</c></rc>
    <rc><c>C </c><c>   1</c></rc>
    <rc><c>C </c><c>   1</c></rc>
    <rc><c>C </c><c>   1</c></rc>
    <rc><c>C </c><c>   1</c></rc>
    <rc><c>C </c><c>   1</c></rc>
    <rc><c>C </c><c>   1</c></rc>
    <rc><c>C </c><c>   1</c></rc>
    <rc><c>C </c><c>   1</c></rc>
    <rc><c>C </c><c>   1</c></rc>
    <rc><c>C </c><c>   1</c></rc>
    <rc><c>C </c><c>   1</c></rc>
    <rc><c>C </c><c>   1</c></rc>
    <rc><c>C </c><c>   1</c></rc>
    <rc><c>C </c><c>   1</c></rc>
    <rc><c>C </c><c>   1</c></rc>
    <rc><c>C </c><c>   1</c></rc>
    <rc><c>C </c><c>   1</c></rc>
    <rc><c>C </c><c>   1</c></rc>
    <rc><c>C </c><c>   1</c></rc>
    <rc><c>C </c><c>   1</c></rc>
    <rc><c>C </c><c>   1</c></rc>
    <rc><c>C </c><c>   1</c></rc>
    <rc><c>C </c><c>   1</c></rc>
    <rc><c>C </c><c>   1</c></rc>
    <rc><c>C </c><c>   1</c></rc>
    <rc><c>C </c><c>   1</c></rc>
    <rc><c>C </c><c>   1</c></rc>
    <rc><c>C </c><c>   1</c></rc>
    <rc><c>C </c><c>   1</c></rc>
    <rc><c>C </c><c>   1</c></rc>
    <rc><c>C </c><c>   1</c></rc>
   </set>
  </array>
  <array name="atomtypes" >
   <dimension dim="1">type</dimension>
   <field type="int">atomspertype</field>
   <field type="string">element</field>
   <field>mass</field>
   <field>valence</field>
   <field type="string">pseudopotential</field>
   <set>
    <rc><c>  64</c><c>C </c><c>     12.01100000</c><c>      4.00000000</c><c> PAW_PBE C 08Apr2002                    </c></rc>
   </set>
  </array>
 </atominfo>
 <structure name="initialpos" >
  <crystal>
   <varray name="basis" >
    <v>       6.96126624       0.00000000       0.00000000 </v>
    <v>       0.00000000       6.96126624       0.00000000 </v>
    <v>       0.00000000       0.00000000       7.17999872 </v>
   </varray>
   <i name="volume">    347.93719203 </i>
   <varray name="rec_basis" >
    <v>       0.14365203       0.00000000       0.00000000 </v>
    <v>       0.00000000       0.14365203       0.00000000 </v>
    <v>       0.00000000       0.00000000       0.13927579 </v>
   </varray>
  </crystal>
  <varray name="positions" >
   <v>       0.12500000       0.37500000       0.12500000 </v>
   <v>       0.62500000       0.37500000       0.12500000 </v>
   <v>       0.12500000       0.87500000       0.12500000 </v>
   <v>       0.62500000       0.87500000       0.12500000 </v>
   <v>       0.12500000       0.37500000       0.62500000 </v>
   <v>       0.62500000       0.37500000       0.62500000 </v>
   <v>       0.12500000       0.87500000       0.62500000 </v>
   <v>       0.62500000       0.87500000       0.62500000 </v>
   <v>       0.00000000       0.00000000       0.25000000 </v>
   <v>       0.50000000       0.00000000       0.25000000 </v>
   <v>       0.00000000       0.50000000       0.25000000 </v>
   <v>       0.50000000       0.50000000       0.25000000 </v>
   <v>       0.00000000       0.00000000       0.75000000 </v>
   <v>       0.50000000       0.00000000       0.75000000 </v>
   <v>       0.00000000       0.50000000       0.75000000 </v>
   <v>       0.50000000       0.50000000       0.75000000 </v>
   <v>       0.12500000       0.12500000       0.37500000 </v>
   <v>       0.62500000       0.12500000       0.37500000 </v>
   <v>       0.12500000       0.62500000       0.37500000 </v>
   <v>       0.62500000       0.62500000       0.37500000 </v>
   <v>       0.12500000       0.12500000       0.87500000 </v>
   <v>       0.62500000       0.12500000       0.87500000 </v>
   <v>       0.12500000       0.62500000       0.87500000 </v>
   <v>       0.62500000       0.62500000       0.87500000 </v>
   <v>       0.00000000       0.25000000       0.00000000 </v>
   <v>       0.50000000       0.25000000       0.00000000 </v>
   <v>       0.00000000       0.75000000       0.00000000 </v>
   <v>       0.50000000       0.75000000       0.00000000 </v>
   <v>       0.00000000       0.25000000       0.50000000 </v>
   <v>       0.50000000       0.25000000       0.50000000 </v>
   <v>       0.00000000       0.75000000       0.50000000 </v>
   <v>       0.50000000       0.75000000       0.50000000 </v>
   <v>       0.37500000       0.37500000       0.37500000 </v>
   <v>       0.87500000       0.37500000       0.37500000 </v>
   <v>       0.37500000       0.87500000       0.37500000 </v>
   <v>       0.87500000       0.87500000       0.37500000 </v>
   <v>       0.37500000       0.37500000       0.87500000 </v>
   <v>       0.87500000       0.37500000       0.87500000 </v>
   <v>       0.37500000       0.87500000       0.87500000 </v>
   <v>       0.87500000       0.87500000       0.87500000 </v>
   <v>       0.25000000       0.00000000       0.00000000 </v>
   <v>       0.75000000       0.00000000       0.00000000 </v>
   <v>       0.25000000       0.50000000       0.00000000 </v>
   <v>       0.75000000       0.50000000       0.00000000 </v>
   <v>       0.25000000       0.00000000       0.50000000 </v>
   <v>       0.75000000       0.00000000       0.50000000 </v>
   <v>       0.25000000       0.50000000       0.50000000 </v>
   <v>       0.75000000       0.50000000       0.50000000 </v>
   <v>       0.37500000       0.12500000       0.12500000 </v>
   <v>       0.87500000       0.12500000       0.12500000 </v>
   <v>       0.37500000       0.62500000       0.12500000 </v>
   <v>       0.87500000       0.62500000       0.12500000 </v>
   <v>       0.37500000       0.12500000       0.62500000 </v>
   <v>       0.87500000       0.12500000       0.62500000 </v>
   <v>       0.37500000       0.62500000       0.62500000 </v>
   <v>       0.87500000       0.62500000       0.62500000 </v>
   <v>       0.25000000       0.25000000       0.25000000 </v>
   <v>       0.75000000       0.25000000       0.25000000 </v>
   <v>       0.25000000       0.75000000       0.25000000 </v>
   <v>       0.75000000       0.75000000       0.25000000 </v>
   <v>       0.25000000       0.25000000       0.75000000 </v>
   <v>       0.75000000       0.25000000       0.75000000 </v>
   <v>       0.25000000       0.75000000       0.75000000 </v>
   <v>       0.75000000       0.75000000       0.75000000 </v>
  </varray>
 </structure>
 <calculation>
  <scstep>
   <time name="dav">   26.71   26.72</time>
   <time name="total">   26.86   26.87</time>
   <energy>
    <i name="alphaZ">    959.20401551 </i>
    <i name="ewald"> -11294.92357284 </i>
    <i name="hartreedc">   -533.62563795 </i>
    <i name="XCdc">    923.78795701 </i>
    <i name="pawpsdc">   2421.21235816 </i>
    <i name="pawaedc">  -2494.84305711 </i>
    <i name="eentropy">     -0.00660550 </i>
    <i name="bandstr">   1116.66279264 </i>
    <i name="atom">   9416.14232778 </i>
    <i name="e_fr_energy">    513.61057770 </i>
    <i name="e_wo_entrp">    513.61718320 </i>
    <i name="e_0_energy">    513.61388045 </i>
   </energy>
  </scstep>
  <scstep>
   <time name="dav">   32.53   32.54</time>
   <time name="total">   32.54   32.54</time>
   <energy>
    <i name="e_fr_energy">   -562.69746083 </i>
    <i name="e_wo_entrp">   -562.69746083 </i>
    <i name="e_0_energy">   -562.69746083 </i>
   </energy>
  </scstep>
  <scstep>
   <time name="dav">   32.81   32.81</time>
   <time name="total">   32.81   32.82</time>
   <energy>
    <i name="e_fr_energy">   -602.72177116 </i>
    <i name="e_wo_entrp">   -602.72177116 </i>
    <i name="e_0_energy">   -602.72177116 </i>
   </energy>
  </scstep>
  <scstep>
   <time name="dav">   33.44   33.44</time>
   <time name="total">   33.45   33.45</time>
   <energy>
    <i name="e_fr_energy">   -603.12269081 </i>
    <i name="e_wo_entrp">   -603.12269081 </i>
    <i name="e_0_energy">   -603.12269081 </i>
   </energy>
  </scstep>
  <scstep>
   <time name="dav">   30.98   30.99</time>
   <time name="total">   31.75   31.75</time>
   <energy>
    <i name="e_fr_energy">   -603.13056141 </i>
    <i name="e_wo_entrp">   -603.13056141 </i>
    <i name="e_0_energy">   -603.13056141 </i>
   </energy>
  </scstep>
  <scstep>
   <time name="dav">   30.18   30.18</time>
   <time name="total">   31.05   31.05</time>
   <energy>
    <i name="e_fr_energy">   -585.91225905 </i>
    <i name="e_wo_entrp">   -585.91225905 </i>
    <i name="e_0_energy">   -585.91225905 </i>
   </energy>
  </scstep>
  <scstep>
   <time name="dav">   31.88   31.88</time>
   <time name="total">   32.73   32.74</time>
   <energy>
    <i name="e_fr_energy">   -580.10641787 </i>
    <i name="e_wo_entrp">   -580.10641787 </i>
    <i name="e_0_energy">   -580.10641787 </i>
   </energy>
  </scstep>
  <scstep>
   <time name="dav">   31.81   31.82</time>
   <time name="total">   32.68   32.68</time>
   <energy>
    <i name="e_fr_energy">   -580.17170327 </i>
    <i name="e_wo_entrp">   -580.17170327 </i>
    <i name="e_0_energy">   -580.17170327 </i>
   </energy>
  </scstep>
  <scstep>
   <time name="dav">   32.76   32.76</time>
   <time name="total">   33.64   33.64</time>
   <energy>
    <i name="e_fr_energy">   -580.17377520 </i>
    <i name="e_wo_entrp">   -580.17377520 </i>
    <i name="e_0_energy">   -580.17377520 </i>
   </energy>
  </scstep>
  <scstep>
   <time name="dav">   31.11   31.11</time>
   <time name="total">   31.97   31.98</time>
   <energy>
    <i name="e_fr_energy">   -580.17420946 </i>
    <i name="e_wo_entrp">   -580.17420946 </i>
    <i name="e_0_energy">   -580.17420946 </i>
   </energy>
  </scstep>
  <scstep>
   <time name="dav">   32.72   32.72</time>
   <time name="total">   33.58   33.58</time>
   <energy>
    <i name="e_fr_energy">   -580.17421555 </i>
    <i name="e_wo_entrp">   -580.17421555 </i>
    <i name="e_0_energy">   -580.17421555 </i>
   </energy>
  </scstep>
  <scstep>
   <time name="dav">   32.01   32.01</time>
   <time name="total">   32.89   32.90</time>
   <energy>
    <i name="e_fr_energy">   -580.17421534 </i>
    <i name="e_wo_entrp">   -580.17421534 </i>
    <i name="e_0_energy">   -580.17421534 </i>
   </energy>
  </scstep>
  <scstep>
   <time name="dav">   27.50   27.51</time>
   <time name="total">   28.37   28.37</time>
   <energy>
    <i name="e_fr_energy">   -580.17421539 </i>
    <i name="e_wo_entrp">   -580.17421539 </i>
    <i name="e_0_energy">   -580.17421539 </i>
   </energy>
  </scstep>
  <scstep>
   <time name="dav">   25.25   25.25</time>
   <time name="total">   26.12   26.12</time>
   <energy>
    <i name="e_fr_energy">   -580.17421541 </i>
    <i name="e_wo_entrp">   -580.17421541 </i>
    <i name="e_0_energy">   -580.17421541 </i>
   </energy>
  </scstep>
  <scstep>
   <time name="dav">   22.73   22.73</time>
   <time name="total">   22.83   22.83</time>
   <energy>
    <i name="alphaZ">    959.20401551 </i>
    <i name="ewald"> -11294.92357284 </i>
    <i name="hartreedc">   -823.77626193 </i>
    <i name="XCdc">    951.27006001 </i>
    <i name="pawpsdc">   4395.68012127 </i>
    <i name="pawaedc">  -4477.54603675 </i>
    <i name="eentropy">     -0.00000000 </i>
    <i name="bandstr">    293.77513154 </i>
    <i name="atom">   9416.14232778 </i>
    <i name="e_fr_energy">   -580.17421542 </i>
    <i name="e_wo_entrp">   -580.17421542 </i>
    <i name="e_0_energy">   -580.17421542 </i>
   </energy>
  </scstep>
  <structure>
   <crystal>
    <varray name="basis" >
     <v>       6.96126624       0.00000000       0.00000000 </v>
     <v>       0.00000000       6.96126624       0.00000000 </v>
     <v>       0.00000000       0.00000000       7.17999872 </v>
    </varray>
    <i name="volume">    347.93719203 </i>
    <varray name="rec_basis" >
     <v>       0.14365203       0.00000000       0.00000000 </v>
     <v>       0.00000000       0.14365203       0.00000000 </v>
     <v>       0.00000000       0.00000000       0.13927579 </v>
    </varray>
   </crystal>
   <varray name="positions" >
    <v>       0.12500000       0.37500000       0.12500000 </v>
    <v>       0.62500000       0.37500000       0.12500000 </v>
    <v>       0.12500000       0.87500000       0.12500000 </v>
    <v>       0.62500000       0.87500000       0.12500000 </v>
    <v>       0.12500000       0.37500000       0.62500000 </v>
    <v>       0.62500000       0.37500000       0.62500000 </v>
    <v>       0.12500000       0.87500000       0.62500000 </v>
    <v>       0.62500000       0.87500000       0.62500000 </v>
    <v>       0.00000000       0.00000000       0.25000000 </v>
    <v>       0.50000000       0.00000000       0.25000000 </v>
    <v>       0.00000000       0.50000000       0.25000000 </v>
    <v>       0.50000000       0.50000000       0.25000000 </v>
    <v>       0.00000000       0.00000000       0.75000000 </v>
    <v>       0.50000000       0.00000000       0.75000000 </v>
    <v>       0.00000000       0.50000000       0.75000000 </v>
    <v>       0.50000000       0.50000000       0.75000000 </v>
    <v>       0.12500000       0.12500000       0.37500000 </v>
    <v>       0.62500000       0.12500000       0.37500000 </v>
    <v>       0.12500000       0.62500000       0.37500000 </v>
    <v>       0.62500000       0.62500000       0.37500000 </v>
    <v>       0.12500000       0.12500000       0.87500000 </v>
    <v>       0.62500000       0.12500000       0.87500000 </v>
    <v>       0.12500000       0.62500000       0.87500000 </v>
    <v>       0.62500000       0.62500000       0.87500000 </v>
    <v>       0.00000000       0.25000000       0.00000000 </v>
    <v>       0.50000000       0.25000000       0.00000000 </v>
    <v>       0.00000000       0.75000000       0.00000000 </v>
    <v>       0.50000000       0.75000000       0.00000000 </v>
    <v>       0.00000000       0.25000000       0.50000000 </v>
    <v>       0.50000000       0.25000000       0.50000000 </v>
    <v>       0.00000000       0.75000000       0.50000000 </v>
    <v>       0.50000000       0.75000000       0.50000000 </v>
    <v>       0.37500000       0.37500000       0.37500000 </v>
    <v>       0.87500000       0.37500000       0.37500000 </v>
    <v>       0.37500000       0.87500000       0.37500000 </v>
    <v>       0.87500000       0.87500000       0.37500000 </v>
    <v>       0.37500000       0.37500000       0.87500000 </v>
    <v>       0.87500000       0.37500000       0.87500000 </v>
    <v>       0.37500000       0.87500000       0.87500000 </v>
    <v>       0.87500000       0.87500000       0.87500000 </v>
    <v>       0.25000000       0.00000000       0.00000000 </v>
    <v>       0.75000000       0.00000000       0.00000000 </v>
    <v>       0.25000000       0.50000000       0.00000000 </v>
    <v>       0.75000000       0.50000000       0.00000000 </v>
    <v>       0.25000000       0.00000000       0.50000000 </v>
    <v>       0.75000000       0.00000000       0.50000000 </v>
    <v>       0.25000000       0.50000000       0.50000000 </v>
    <v>       0.75000000       0.50000000       0.50000000 </v>
    <v>       0.37500000       0.12500000       0.12500000 </v>
    <v>       0.87500000       0.12500000       0.12500000 </v>
    <v>       0.37500000       0.62500000       0.12500000 </v>
    <v>       0.87500000       0.62500000       0.12500000 </v>
    <v>       0.37500000       0.12500000       0.62500000 </v>
    <v>       0.87500000       0.12500000       0.62500000 </v>
    <v>       0.37500000       0.62500000       0.62500000 </v>
    <v>       0.87500000       0.62500000       0.62500000 </v>
    <v>       0.25000000       0.25000000       0.25000000 </v>
    <v>       0.75000000       0.25000000       0.25000000 </v>
    <v>       0.25000000       0.75000000       0.25000000 </v>
    <v>       0.75000000       0.75000000       0.25000000 </v>
    <v>       0.25000000       0.25000000       0.75000000 </v>
    <v>       0.75000000       0.25000000       0.75000000 </v>
    <v>       0.25000000       0.75000000       0.75000000 </v>
    <v>       0.75000000       0.75000000       0.75000000 </v>
   </varray>
  </structure>
  <varray name="forces" >
   <v>       0.00000000       0.00000000       0.00000000 </v>
   <v>       0.00000000      -0.00000000      -0.00000000 </v>
   <v>      -0.00000000      -0.00000000      -0.00000000 </v>
   <v>       0.00000000      -0.00000000       0.00000000 </v>
   <v>      -0.00000000      -0.00000000      -0.00000000 </v>
   <v>       0.00000000      -0.00000000       0.00000000 </v>
   <v>       0.00000000      -0.00000000       0.00000000 </v>
   <v>       0.00000000      -0.00000000      -0.00000000 </v>
   <v>       0.00000000       0.00000000      -0.00000000 </v>
   <v>      -0.00000000       0.00000000       0.00000000 </v>
   <v>      -0.00000000       0.00000000      -0.00000000 </v>
   <v>       0.00000000       0.00000000      -0.00000000 </v>
   <v>       0.00000000       0.00000000       0.00000000 </v>
   <v>       0.00000000       0.00000000      -0.00000000 </v>
   <v>      -0.00000000       0.00000000      -0.00000000 </v>
   <v>       0.00000000       0.00000000       0.00000000 </v>
   <v>       0.00000000      -0.00000000       0.00000000 </v>
   <v>      -0.00000000      -0.00000000      -0.00000000 </v>
   <v>      -0.00000000      -0.00000000       0.00000000 </v>
   <v>       0.00000000      -0.00000000       0.00000000 </v>
   <v>      -0.00000000      -0.00000000       0.00000000 </v>
   <v>       0.00000000      -0.00000000      -0.00000000 </v>
   <v>       0.00000000      -0.00000000      -0.00000000 </v>
   <v>       0.00000000      -0.00000000      -0.00000000 </v>
   <v>       0.00000000       0.00000000      -0.00000000 </v>
   <v>       0.00000000       0.00000000      -0.00000000 </v>
   <v>      -0.00000000       0.00000000       0.00000000 </v>
   <v>       0.00000000       0.00000000       0.00000000 </v>
   <v>       0.00000000       0.00000000      -0.00000000 </v>
   <v>       0.00000000       0.00000000      -0.00000000 </v>
   <v>      -0.00000000       0.00000000       0.00000000 </v>
   <v>       0.00000000       0.00000000       0.00000000 </v>
   <v>       0.00000000      -0.00000000      -0.00000000 </v>
   <v>      -0.00000000      -0.00000000      -0.00000000 </v>
   <v>      -0.00000000      -0.00000000       0.00000000 </v>
   <v>       0.00000000      -0.00000000       0.00000000 </v>
   <v>      -0.00000000      -0.00000000       0.00000000 </v>
   <v>      -0.00000000      -0.00000000      -0.00000000 </v>
   <v>       0.00000000      -0.00000000      -0.00000000 </v>
   <v>      -0.00000000      -0.00000000      -0.00000000 </v>
   <v>      -0.00000000       0.00000000      -0.00000000 </v>
   <v>      -0.00000000       0.00000000      -0.00000000 </v>
   <v>       0.00000000       0.00000000       0.00000000 </v>
   <v>       0.00000000       0.00000000      -0.00000000 </v>
   <v>       0.00000000       0.00000000       0.00000000 </v>
   <v>      -0.00000000       0.00000000       0.00000000 </v>
   <v>      -0.00000000       0.00000000      -0.00000000 </v>
   <v>      -0.00000000       0.00000000       0.00000000 </v>
   <v>      -0.00000000      -0.00000000      -0.00000000 </v>
   <v>      -0.00000000      -0.00000000      -0.00000000 </v>
   <v>       0.00000000      -0.00000000      -0.00000000 </v>
   <v>      -0.00000000      -0.00000000       0.00000000 </v>
   <v>       0.00000000      -0.00000000       0.00000000 </v>
   <v>      -0.00000000      -0.00000000      -0.00000000 </v>
   <v>      -0.00000000      -0.00000000       0.00000000 </v>
   <v>      -0.00000000      -0.00000000      -0.00000000 </v>
   <v>       0.00000000       0.00000000       0.00000000 </v>
   <v>      -0.00000000       0.00000000       0.00000000 </v>
   <v>      -0.00000000       0.00000000      -0.00000000 </v>
   <v>      -0.00000000       0.00000000      -0.00000000 </v>
   <v>      -0.00000000       0.00000000      -0.00000000 </v>
   <v>      -0.00000000       0.00000000       0.00000000 </v>
   <v>       0.00000000       0.00000000       0.00000000 </v>
   <v>      -0.00000000       0.00000000       0.00000000 </v>
  </varray>
  <varray name="stress" >
   <v>     289.30973269       0.00000000       0.00000000 </v>
   <v>       0.00000000     289.30973269       0.00000000 </v>
   <v>       0.00000000       0.00000000     -21.32639238 </v>
  </varray>
  <energy>
   <i name="e_fr_energy">   -580.17421542 </i>
   <i name="e_wo_entrp">   -580.17421542 </i>
   <i name="e_0_energy">     -0.00000000 </i>
  </energy>
  <kpoints>
   <generation param="Gamma">
    <v type="int" name="divisions">       6        6        6 </v>
    <v name="usershift">      0.00000000       0.00000000       0.00000000 </v>
    <v name="genvec1">      0.16666667       0.00000000       0.00000000 </v>
    <v name="genvec2">      0.00000000       0.16666667       0.00000000 </v>
    <v name="genvec3">      0.00000000       0.00000000       0.16666667 </v>
    <v name="shift">      0.00000000       0.00000000       0.00000000 </v>
   </generation>
   <varray name="kpointlist" >
    <v>       0.00000000       0.00000000       0.00000000 </v>
    <v>       0.16666667       0.00000000       0.00000000 </v>
    <v>       0.33333333       0.00000000       0.00000000 </v>
    <v>       0.50000000       0.00000000       0.00000000 </v>
    <v>       0.00000000       0.16666667       0.00000000 </v>
    <v>       0.16666667       0.16666667       0.00000000 </v>
    <v>       0.33333333       0.16666667       0.00000000 </v>
    <v>       0.50000000       0.16666667       0.00000000 </v>
    <v>       0.00000000       0.33333333       0.00000000 </v>
    <v>       0.16666667       0.33333333       0.00000000 </v>
    <v>       0.33333333       0.33333333       0.00000000 </v>
    <v>       0.50000000       0.33333333       0.00000000 </v>
    <v>       0.00000000       0.50000000       0.00000000 </v>
    <v>       0.16666667       0.50000000       0.00000000 </v>
    <v>       0.33333333       0.50000000       0.00000000 </v>
    <v>       0.50000000       0.50000000       0.00000000 </v>
    <v>       0.00000000       0.00000000       0.16666667 </v>
    <v>       0.16666667       0.00000000       0.16666667 </v>
    <v>       0.33333333       0.00000000       0.16666667 </v>
    <v>       0.50000000       0.00000000       0.16666667 </v>
    <v>       0.00000000       0.16666667       0.16666667 </v>
    <v>       0.16666667       0.16666667       0.16666667 </v>
    <v>       0.33333333       0.16666667       0.16666667 </v>
    <v>       0.50000000       0.16666667       0.16666667 </v>
    <v>       0.00000000       0.33333333       0.16666667 </v>
    <v>       0.16666667       0.33333333       0.16666667 </v>
    <v>       0.33333333       0.33333333       0.16666667 </v>
    <v>       0.50000000       0.33333333       0.16666667 </v>
    <v>       0.00000000       0.50000000       0.16666667 </v>
    <v>       0.16666667       0.50000000       0.16666667 </v>
    <v>       0.33333333       0.50000000       0.16666667 </v>
    <v>       0.50000000       0.50000000       0.16666667 </v>
    <v>       0.00000000      -0.33333333       0.16666667 </v>
    <v>       0.16666667      -0.33333333       0.16666667 </v>
    <v>       0.33333333      -0.33333333       0.16666667 </v>
    <v>       0.50000000      -0.33333333       0.16666667 </v>
    <v>       0.00000000      -0.16666667       0.16666667 </v>
    <v>       0.16666667      -0.16666667       0.16666667 </v>
    <v>       0.33333333      -0.16666667       0.16666667 </v>
    <v>       0.50000000      -0.16666667       0.16666667 </v>
    <v>       0.00000000       0.00000000       0.33333333 </v>
    <v>       0.16666667       0.00000000       0.33333333 </v>
    <v>       0.33333333       0.00000000       0.33333333 </v>
    <v>       0.50000000       0.00000000       0.33333333 </v>
    <v>       0.00000000       0.16666667       0.33333333 </v>
    <v>       0.16666667       0.16666667       0.33333333 </v>
    <v>       0.33333333       0.16666667       0.33333333 </v>
    <v>       0.50000000       0.16666667       0.33333333 </v>
    <v>       0.00000000       0.33333333       0.33333333 </v>
    <v>       0.16666667       0.33333333       0.33333333 </v>
    <v>       0.33333333       0.33333333       0.33333333 </v>
    <v>       0.50000000       0.33333333       0.33333333 </v>
    <v>       0.00000000       0.50000000       0.33333333 </v>
    <v>       0.16666667       0.50000000       0.33333333 </v>
    <v>       0.33333333       0.50000000       0.33333333 </v>
    <v>       0.50000000       0.50000000       0.33333333 </v>
    <v>       0.00000000      -0.33333333       0.33333333 </v>
    <v>       0.16666667      -0.33333333       0.33333333 </v>
    <v>       0.33333333      -0.33333333       0.33333333 </v>
    <v>       0.50000000      -0.33333333       0.33333333 </v>
    <v>       0.00000000      -0.16666667       0.33333333 </v>
    <v>       0.16666667      -0.16666667       0.33333333 </v>
    <v>       0.33333333      -0.16666667       0.33333333 </v>
    <v>       0.50000000      -0.16666667       0.33333333 </v>
    <v>       0.00000000       0.00000000       0.50000000 </v>
    <v>       0.16666667       0.00000000       0.50000000 </v>
    <v>       0.33333333       0.00000000       0.50000000 </v>
    <v>       0.50000000       0.00000000       0.50000000 </v>
    <v>       0.00000000       0.16666667       0.50000000 </v>
    <v>       0.16666667       0.16666667       0.50000000 </v>
    <v>       0.33333333       0.16666667       0.50000000 </v>
    <v>       0.50000000       0.16666667       0.50000000 </v>
    <v>       0.00000000       0.33333333       0.50000000 </v>
    <v>       0.16666667       0.33333333       0.50000000 </v>
    <v>       0.33333333       0.33333333       0.50000000 </v>
    <v>       0.50000000       0.33333333       0.50000000 </v>
    <v>       0.00000000       0.50000000       0.50000000 </v>
    <v>       0.16666667       0.50000000       0.50000000 </v>
    <v>       0.33333333       0.50000000       0.50000000 </v>
    <v>       0.50000000       0.50000000       0.50000000 </v>
   </varray>
   <varray name="weights" >
    <v>       0.00462963 </v>
    <v>       0.00925926 </v>
    <v>       0.00925926 </v>
    <v>       0.00462963 </v>
    <v>       0.00925926 </v>
    <v>       0.01851852 </v>
    <v>       0.01851852 </v>
    <v>       0.00925926 </v>
    <v>       0.00925926 </v>
    <v>       0.01851852 </v>
    <v>       0.01851852 </v>
    <v>       0.00925926 </v>
    <v>       0.00462963 </v>
    <v>       0.00925926 </v>
    <v>       0.00925926 </v>
    <v>       0.00462963 </v>
    <v>       0.00925926 </v>
    <v>       0.01851852 </v>
    <v>       0.01851852 </v>
    <v>       0.00925926 </v>
    <v>       0.00925926 </v>
    <v>       0.01851852 </v>
    <v>       0.01851852 </v>
    <v>       0.00925926 </v>
    <v>       0.00925926 </v>
    <v>       0.01851852 </v>
    <v>       0.01851852 </v>
    <v>       0.00925926 </v>
    <v>       0.00925926 </v>
    <v>       0.01851852 </v>
    <v>       0.01851852 </v>
    <v>       0.00925926 </v>
    <v>       0.00925926 </v>
    <v>       0.01851852 </v>
    <v>       0.01851852 </v>
    <v>       0.00925926 </v>
    <v>       0.00925926 </v>
    <v>       0.01851852 </v>
    <v>       0.01851852 </v>
    <v>       0.00925926 </v>
    <v>       0.00925926 </v>
    <v>       0.01851852 </v>
    <v>       0.01851852 </v>
    <v>       0.00925926 </v>
    <v>       0.00925926 </v>
    <v>       0.01851852 </v>
    <v>       0.01851852 </v>
    <v>       0.00925926 </v>
    <v>       0.00925926 </v>
    <v>       0.01851852 </v>
    <v>       0.01851852 </v>
    <v>       0.00925926 </v>
    <v>       0.00925926 </v>
    <v>       0.01851852 </v>
    <v>       0.01851852 </v>
    <v>       0.00925926 </v>
    <v>       0.00925926 </v>
    <v>       0.01851852 </v>
    <v>       0.01851852 </v>
    <v>       0.00925926 </v>
    <v>       0.00925926 </v>
    <v>       0.01851852 </v>
    <v>       0.01851852 </v>
    <v>       0.00925926 </v>
    <v>       0.00462963 </v>
    <v>       0.00925926 </v>
    <v>       0.00925926 </v>
    <v>       0.00462963 </v>
    <v>       0.00925926 </v>
    <v>       0.01851852 </v>
    <v>       0.01851852 </v>
    <v>       0.00925926 </v>
    <v>       0.00925926 </v>
    <v>       0.01851852 </v>
    <v>       0.01851852 </v>
    <v>       0.00925926 </v>
    <v>       0.00462963 </v>
    <v>       0.00925926 </v>
    <v>       0.00925926 </v>
    <v>       0.00462963 </v>
   </varray>
  </kpoints>
  <scstep>
   <time name="total">   64.15   64.15</time>
   <energy>
    <i name="e_fr_energy">   -372.34219559 </i>
    <i name="e_wo_entrp">   -372.34219559 </i>
    <i name="e_0_energy">   -372.34219559 </i>
   </energy>
  </scstep>
  <scstep>
   <time name="total">   48.19   48.19</time>
   <energy>
    <i name="e_fr_energy">   -315.04254563 </i>
    <i name="e_wo_entrp">   -315.04254563 </i>
    <i name="e_0_energy">   -315.04254563 </i>
   </energy>
  </scstep>
  <scstep>
   <time name="total">   48.83   48.83</time>
   <energy>
    <i name="e_fr_energy">   -314.52355601 </i>
    <i name="e_wo_entrp">   -314.52355601 </i>
    <i name="e_0_energy">   -314.52355601 </i>
   </energy>
  </scstep>
  <scstep>
   <time name="total">   49.15   49.15</time>
   <energy>
    <i name="e_fr_energy">   -315.30816716 </i>
    <i name="e_wo_entrp">   -315.30816716 </i>
    <i name="e_0_energy">   -315.30816716 </i>
   </energy>
  </scstep>
  <scstep>
   <time name="total">   47.77   47.77</time>
   <energy>
    <i name="e_fr_energy">   -315.55264664 </i>
    <i name="e_wo_entrp">   -315.55264664 </i>
    <i name="e_0_energy">   -315.55264664 </i>
   </energy>
  </scstep>
  <scstep>
   <time name="total">   48.27   48.27</time>
   <energy>
    <i name="e_fr_energy">   -315.51330835 </i>
    <i name="e_wo_entrp">   -315.51330835 </i>
    <i name="e_0_energy">   -315.51330835 </i>
   </energy>
  </scstep>
  <scstep>
   <time name="total">   51.41   51.41</time>
   <energy>
    <i name="e_fr_energy">   -315.49214478 </i>
    <i name="e_wo_entrp">   -315.49214478 </i>
    <i name="e_0_energy">   -315.49214478 </i>
   </energy>
  </scstep>
  <scstep>
   <time name="total">   50.85   50.85</time>
   <energy>
    <i name="e_fr_energy">   -315.49080768 </i>
    <i name="e_wo_entrp">   -315.49080768 </i>
    <i name="e_0_energy">   -315.49080768 </i>
   </energy>
  </scstep>
  <scstep>
   <time name="total">   50.10   50.10</time>
   <energy>
    <i name="e_fr_energy">   -315.49018345 </i>
    <i name="e_wo_entrp">   -315.49018345 </i>
    <i name="e_0_energy">   -315.49018345 </i>
   </energy>
  </scstep>
  <scstep>
   <time name="total">   51.33   51.33</time>
   <energy>
    <i name="e_fr_energy">   -315.49033320 </i>
    <i name="e_wo_entrp">   -315.49033320 </i>
    <i name="e_0_energy">   -315.49033320 </i>
   </energy>
  </scstep>
  <scstep>
   <time name="total">   51.71   51.72</time>
   <energy>
    <i name="e_fr_energy">   -315.49032821 </i>
    <i name="e_wo_entrp">   -315.49032821 </i>
    <i name="e_0_energy">   -315.49032821 </i>
   </energy>
  </scstep>
  <kpoints>
   <generation param="Gamma">
    <v type="int" name="divisions">       6        6        6 </v>
    <v name="usershift">      0.00000000       0.00000000       0.00000000 </v>
    <v name="genvec1">      0.16666667       0.00000000       0.00000000 </v>
    <v name="genvec2">      0.00000000       0.16666667       0.00000000 </v>
    <v name="genvec3">      0.00000000       0.00000000       0.16666667 </v>
    <v name="shift">      0.00000000       0.00000000       0.00000000 </v>
   </generation>
   <varray name="kpointlist" >
    <v>       0.00000000       0.00000000       0.00000000 </v>
    <v>       0.16666667       0.00000000       0.00000000 </v>
    <v>       0.33333333       0.00000000       0.00000000 </v>
    <v>       0.50000000       0.00000000       0.00000000 </v>
    <v>       0.16666667       0.16666667       0.00000000 </v>
    <v>       0.33333333       0.16666667       0.00000000 </v>
    <v>       0.50000000       0.16666667       0.00000000 </v>
    <v>      -0.33333333       0.16666667       0.00000000 </v>
    <v>      -0.16666667       0.16666667       0.00000000 </v>
    <v>       0.33333333       0.33333333       0.00000000 </v>
    <v>       0.50000000       0.33333333       0.00000000 </v>
    <v>      -0.33333333       0.33333333       0.00000000 </v>
    <v>       0.50000000       0.50000000       0.00000000 </v>
    <v>       0.00000000       0.00000000       0.16666667 </v>
    <v>       0.16666667       0.00000000       0.16666667 </v>
    <v>       0.33333333       0.00000000       0.16666667 </v>
    <v>       0.50000000       0.00000000       0.16666667 </v>
    <v>       0.16666667       0.16666667       0.16666667 </v>
    <v>       0.33333333       0.16666667       0.16666667 </v>
    <v>       0.50000000       0.16666667       0.16666667 </v>
    <v>      -0.33333333       0.16666667       0.16666667 </v>
    <v>      -0.16666667       0.16666667       0.16666667 </v>
    <v>       0.33333333       0.33333333       0.16666667 </v>
    <v>       0.50000000       0.33333333       0.16666667 </v>
    <v>      -0.33333333       0.33333333       0.16666667 </v>
    <v>       0.50000000       0.50000000       0.16666667 </v>
    <v>       0.00000000       0.00000000       0.33333333 </v>
    <v>       0.16666667       0.00000000       0.33333333 </v>
    <v>       0.33333333       0.00000000       0.33333333 </v>
    <v>       0.50000000       0.00000000       0.33333333 </v>
    <v>       0.16666667       0.16666667       0.33333333 </v>
    <v>       0.33333333       0.16666667       0.33333333 </v>
    <v>       0.50000000       0.16666667       0.33333333 </v>
    <v>      -0.33333333       0.16666667       0.33333333 </v>
    <v>      -0.16666667       0.16666667       0.33333333 </v>
    <v>       0.33333333       0.33333333       0.33333333 </v>
    <v>       0.50000000       0.33333333       0.33333333 </v>
    <v>      -0.33333333       0.33333333       0.33333333 </v>
    <v>       0.50000000       0.50000000       0.33333333 </v>
    <v>       0.00000000       0.00000000       0.50000000 </v>
    <v>       0.16666667       0.00000000       0.50000000 </v>
    <v>       0.33333333       0.00000000       0.50000000 </v>
    <v>       0.50000000       0.00000000       0.50000000 </v>
    <v>       0.16666667       0.16666667       0.50000000 </v>
    <v>       0.33333333       0.16666667       0.50000000 </v>
    <v>       0.50000000       0.16666667       0.50000000 </v>
    <v>      -0.33333333       0.16666667       0.50000000 </v>
    <v>      -0.16666667       0.16666667       0.50000000 </v>
    <v>       0.33333333       0.33333333       0.50000000 </v>
    <v>       0.50000000       0.33333333       0.50000000 </v>
    <v>      -0.33333333       0.33333333       0.50000000 </v>
    <v>       0.50000000       0.50000000       0.50000000 </v>
   </varray>
   <varray name="weights" >
    <v>       0.00462963 </v>
    <v>       0.01851852 </v>
    <v>       0.01851852 </v>
    <v>       0.00925926 </v>
    <v>       0.00925926 </v>
    <v>       0.01851852 </v>
    <v>       0.01851852 </v>
    <v>       0.01851852 </v>
    <v>       0.00925926 </v>
    <v>       0.00925926 </v>
    <v>       0.01851852 </v>
    <v>       0.00925926 </v>
    <v>       0.00462963 </v>
    <v>       0.00925926 </v>
    <v>       0.03703704 </v>
    <v>       0.03703704 </v>
    <v>       0.01851852 </v>
    <v>       0.01851852 </v>
    <v>       0.03703704 </v>
    <v>       0.03703704 </v>
    <v>       0.03703704 </v>
    <v>       0.01851852 </v>
    <v>       0.01851852 </v>
    <v>       0.03703704 </v>
    <v>       0.01851852 </v>
    <v>       0.00925926 </v>
    <v>       0.00925926 </v>
    <v>       0.03703704 </v>
    <v>       0.03703704 </v>
    <v>       0.01851852 </v>
    <v>       0.01851852 </v>
    <v>       0.03703704 </v>
    <v>       0.03703704 </v>
    <v>       0.03703704 </v>
    <v>       0.01851852 </v>
    <v>       0.01851852 </v>
    <v>       0.03703704 </v>
    <v>       0.01851852 </v>
    <v>       0.00925926 </v>
    <v>       0.00462963 </v>
    <v>       0.01851852 </v>
    <v>       0.01851852 </v>
    <v>       0.00925926 </v>
    <v>       0.00925926 </v>
    <v>       0.01851852 </v>
    <v>       0.01851852 </v>
    <v>       0.01851852 </v>
    <v>       0.00925926 </v>
    <v>       0.00925926 </v>
    <v>       0.01851852 </v>
    <v>       0.00925926 </v>
    <v>       0.00462963 </v>
   </varray>
  </kpoints>
  <scstep>
   <time name="total">   44.19   44.19</time>
   <energy>
    <i name="e_fr_energy">   -374.93984441 </i>
    <i name="e_wo_entrp">   -374.93984441 </i>
    <i name="e_0_energy">   -374.93984441 </i>
   </energy>
  </scstep>
  <scstep>
   <time name="total">   31.62   31.62</time>
   <energy>
    <i name="e_fr_energy">   -314.77935813 </i>
    <i name="e_wo_entrp">   -314.77935813 </i>
    <i name="e_0_energy">   -314.77935813 </i>
   </energy>
  </scstep>
  <scstep>
   <time name="total">   32.41   32.41</time>
   <energy>
    <i name="e_fr_energy">   -314.13234172 </i>
    <i name="e_wo_entrp">   -314.13234172 </i>
    <i name="e_0_energy">   -314.13234172 </i>
   </energy>
  </scstep>
  <scstep>
   <time name="total">   31.26   31.26</time>
   <energy>
    <i name="e_fr_energy">   -314.89275189 </i>
    <i name="e_wo_entrp">   -314.89275189 </i>
    <i name="e_0_energy">   -314.89275189 </i>
   </energy>
  </scstep>
  <scstep>
   <time name="total">   32.08   32.08</time>
   <energy>
    <i name="e_fr_energy">   -315.15307435 </i>
    <i name="e_wo_entrp">   -315.15307435 </i>
    <i name="e_0_energy">   -315.15307435 </i>
   </energy>
  </scstep>
  <scstep>
   <time name="total">   33.63   33.63</time>
   <energy>
    <i name="e_fr_energy">   -315.11144749 </i>
    <i name="e_wo_entrp">   -315.11144749 </i>
    <i name="e_0_energy">   -315.11144749 </i>
   </energy>
  </scstep>
  <scstep>
   <time name="total">   35.64   35.64</time>
   <energy>
    <i name="e_fr_energy">   -315.09059478 </i>
    <i name="e_wo_entrp">   -315.09059478 </i>
    <i name="e_0_energy">   -315.09059478 </i>
   </energy>
  </scstep>
  <scstep>
   <time name="total">   32.56   32.56</time>
   <energy>
    <i name="e_fr_energy">   -315.08917206 </i>
    <i name="e_wo_entrp">   -315.08917206 </i>
    <i name="e_0_energy">   -315.08917206 </i>
   </energy>
  </scstep>
  <scstep>
   <time name="total">   33.17   33.17</time>
   <energy>
    <i name="e_fr_energy">   -315.08849218 </i>
    <i name="e_wo_entrp">   -315.08849218 </i>
    <i name="e_0_energy">   -315.08849218 </i>
   </energy>
  </scstep>
  <scstep>
   <time name="total">   33.61   33.61</time>
   <energy>
    <i name="e_fr_energy">   -315.08863005 </i>
    <i name="e_wo_entrp">   -315.08863005 </i>
    <i name="e_0_energy">   -315.08863005 </i>
   </energy>
  </scstep>
  <scstep>
   <time name="total">   35.62   35.62</time>
   <energy>
    <i name="e_fr_energy">   -315.08863546 </i>
    <i name="e_wo_entrp">   -315.08863546 </i>
    <i name="e_0_energy">   -315.08863546 </i>
   </energy>
  </scstep>
  <kpoints>
   <generation param="Gamma">
    <v type="int" name="divisions">       6        6        6 </v>
    <v name="usershift">      0.00000000       0.00000000       0.00000000 </v>
    <v name="genvec1">      0.16666667       0.00000000       0.00000000 </v>
    <v name="genvec2">      0.00000000       0.16666667       0.00000000 </v>
    <v name="genvec3">      0.00000000       0.00000000       0.16666667 </v>
    <v name="shift">      0.00000000       0.00000000       0.00000000 </v>
   </generation>
   <varray name="kpointlist" >
    <v>       0.00000000       0.00000000       0.00000000 </v>
    <v>       0.16666667       0.00000000       0.00000000 </v>
    <v>       0.33333333       0.00000000       0.00000000 </v>
    <v>       0.50000000       0.00000000       0.00000000 </v>
    <v>       0.16666667       0.16666667       0.00000000 </v>
    <v>       0.33333333       0.16666667       0.00000000 </v>
    <v>       0.50000000       0.16666667       0.00000000 </v>
    <v>       0.33333333       0.33333333       0.00000000 </v>
    <v>       0.50000000       0.33333333       0.00000000 </v>
    <v>       0.50000000       0.50000000       0.00000000 </v>
    <v>       0.00000000       0.00000000       0.16666667 </v>
    <v>       0.16666667       0.00000000       0.16666667 </v>
    <v>       0.33333333       0.00000000       0.16666667 </v>
    <v>       0.50000000       0.00000000       0.16666667 </v>
    <v>       0.16666667       0.16666667       0.16666667 </v>
    <v>       0.33333333       0.16666667       0.16666667 </v>
    <v>       0.50000000       0.16666667       0.16666667 </v>
    <v>       0.33333333       0.33333333       0.16666667 </v>
    <v>       0.50000000       0.33333333       0.16666667 </v>
    <v>       0.50000000       0.50000000       0.16666667 </v>
    <v>       0.00000000       0.00000000       0.33333333 </v>
    <v>       0.16666667       0.00000000       0.33333333 </v>
    <v>       0.33333333       0.00000000       0.33333333 </v>
    <v>       0.50000000       0.00000000       0.33333333 </v>
    <v>       0.16666667       0.16666667       0.33333333 </v>
    <v>       0.33333333       0.16666667       0.33333333 </v>
    <v>       0.50000000       0.16666667       0.33333333 </v>
    <v>       0.33333333       0.33333333       0.33333333 </v>
    <v>       0.50000000       0.33333333       0.33333333 </v>
    <v>       0.50000000       0.50000000       0.33333333 </v>
    <v>       0.00000000       0.00000000       0.50000000 </v>
    <v>       0.16666667       0.00000000       0.50000000 </v>
    <v>       0.33333333       0.00000000       0.50000000 </v>
    <v>       0.50000000       0.00000000       0.50000000 </v>
    <v>       0.16666667       0.16666667       0.50000000 </v>
    <v>       0.33333333       0.16666667       0.50000000 </v>
    <v>       0.50000000       0.16666667       0.50000000 </v>
    <v>       0.33333333       0.33333333       0.50000000 </v>
    <v>       0.50000000       0.33333333       0.50000000 </v>
    <v>       0.50000000       0.50000000       0.50000000 </v>
   </varray>
   <varray name="weights" >
    <v>       0.00462963 </v>
    <v>       0.01851852 </v>
    <v>       0.01851852 </v>
    <v>       0.00925926 </v>
    <v>       0.01851852 </v>
    <v>       0.03703704 </v>
    <v>       0.01851852 </v>
    <v>       0.01851852 </v>
    <v>       0.01851852 </v>
    <v>       0.00462963 </v>
    <v>       0.00925926 </v>
    <v>       0.03703704 </v>
    <v>       0.03703704 </v>
    <v>       0.01851852 </v>
    <v>       0.03703704 </v>
    <v>       0.07407407 </v>
    <v>       0.03703704 </v>
    <v>       0.03703704 </v>
    <v>       0.03703704 </v>
    <v>       0.00925926 </v>
    <v>       0.00925926 </v>
    <v>       0.03703704 </v>
    <v>       0.03703704 </v>
    <v>       0.01851852 </v>
    <v>       0.03703704 </v>
    <v>       0.07407407 </v>
    <v>       0.03703704 </v>
    <v>       0.03703704 </v>
    <v>       0.03703704 </v>
    <v>       0.00925926 </v>
    <v>       0.00462963 </v>
    <v>       0.01851852 </v>
    <v>       0.01851852 </v>
    <v>       0.00925926 </v>
    <v>       0.01851852 </v>
    <v>       0.03703704 </v>
    <v>       0.01851852 </v>
    <v>       0.01851852 </v>
    <v>       0.01851852 </v>
    <v>       0.00462963 </v>
   </varray>
  </kpoints>
  <dynmat>
   <varray name="hessian" >
    <v>      -4.06212054       0.00000000       0.00000000       0.01438613       0.00000000      -0.00000000       0.00810126      -0.00000000      -0.00000000       0.01225246       0.00000000      -0.00000000       0.00924785       0.00000000       0.00000000       0.01081946       0.00000000       0.00000000      -0.04911770      -0.00000000       0.00000000       0.00471046       0.00000000       0.00000000      -0.01388226      -0.00733131       0.00239624       0.01022109      -0.01304003      -0.01942157       0.83974246      -0.23634754      -0.24889683      -0.00436082      -0.00733131      -0.00694259       0.03003846      -0.01891583      -0.01953083      -0.00282876      -0.00228242      -0.00268443      -0.01419582       0.00464389      -0.00962225       0.00706773      -0.01891583      -0.00862953      -0.12243065       0.06632491      -0.06222555      -0.00598339       0.00327094      -0.00344955      -0.12243065       0.06632491       0.06222555      -0.00598339       0.00327094       0.00344955      -0.12243065      -0.06632491      -0.06222555      -0.00598339      -0.00327094      -0.00344955      -0.12243065      -0.06632491       0.06222555      -0.00598339      -0.00327094       0.00344955       0.83974246       0.23634754       0.24889683      -0.00436082       0.00733131       0.00694259      -0.01388226       0.00733131      -0.00239624       0.01022109       0.01304003       0.01942157      -0.01419582      -0.00464389       0.00962225       0.00706773       0.01891583       0.00862953       0.03003846       0.01891583       0.01953083      -0.00282876       0.00228242       0.00268443       0.13182270      -0.06632491       0.13769364       0.13182270      -0.06632491      -0.13769364       0.00735036      -0.00327094      -0.00627685       0.00735036      -0.00327094       0.00627685       0.13182270       0.06632491      -0.13769364       0.13182270       0.06632491       0.13769364       0.00735036       0.00327094       0.00627685       0.00735036       0.00327094      -0.00627685      -0.01388226       0.00733131       0.00239624       0.01022109       0.01304003      -0.01942157       0.83974246       0.23634754      -0.24889683      -0.00436082       0.00733131      -0.00694259       0.03003846       0.01891583      -0.01953083      -0.00282876       0.00228242      -0.00268443      -0.01419582      -0.00464389      -0.00962225       0.00706773       0.01891583      -0.00862953       0.14345350      -0.15380331       0.06417963       0.14345350       0.15380331       0.06417963       0.14345350       0.15380331      -0.06417963       0.14345350      -0.15380331      -0.06417963       0.00691556       0.00549093       0.00363325       0.00691556      -0.00549093       0.00363325       0.00691556      -0.00549093      -0.00363325       0.00691556       0.00549093      -0.00363325       0.83974246      -0.23634754       0.24889683      -0.00436082      -0.00733131       0.00694259      -0.01388226      -0.00733131      -0.00239624       0.01022109      -0.01304003       0.01942157      -0.01419582       0.00464389       0.00962225       0.00706773      -0.01891583       0.00862953       0.03003846      -0.01891583       0.01953083      -0.00282876      -0.00228242       0.00268443 </v>
    <v>       0.00000000      -4.06212054      -0.00000000       0.00000000       0.00810126      -0.00000000      -0.00000000       0.01438613      -0.00000000       0.00000000       0.01225246       0.00000000       0.00000000       0.00924785       0.00000000       0.00000000      -0.04911770       0.00000000      -0.00000000       0.01081946       0.00000000       0.00000000       0.00471046      -0.00000000      -0.00733131      -0.00436082       0.00694259      -0.01304003       0.01022109       0.01942157      -0.23634754       0.83974246       0.24889683      -0.00733131      -0.01388226      -0.00239624      -0.01891583       0.00706773       0.00862953      -0.00228242      -0.00282876       0.00268443       0.00464389      -0.01419582       0.00962225      -0.01891583       0.03003846       0.01953083      -0.06632491       0.13182270      -0.13769364      -0.00327094       0.00735036       0.00627685      -0.06632491       0.13182270       0.13769364      -0.00327094       0.00735036      -0.00627685       0.06632491       0.13182270       0.13769364       0.00327094       0.00735036      -0.00627685       0.06632491       0.13182270      -0.13769364       0.00327094       0.00735036       0.00627685       0.23634754       0.83974246       0.24889683       0.00733131      -0.01388226      -0.00239624       0.00733131      -0.00436082       0.00694259       0.01304003       0.01022109       0.01942157      -0.00464389      -0.01419582       0.00962225       0.01891583       0.03003846       0.01953083       0.01891583       0.00706773       0.00862953       0.00228242      -0.00282876       0.00268443       0.06632491      -0.12243065       0.06222555       0.06632491      -0.12243065      -0.06222555       0.00327094      -0.00598339       0.00344955       0.00327094      -0.00598339      -0.00344955      -0.06632491      -0.12243065       0.06222555      -0.06632491      -0.12243065      -0.06222555      -0.00327094      -0.00598339       0.00344955      -0.00327094      -0.00598339      -0.00344955       0.00733131      -0.00436082      -0.00694259       0.01304003       0.01022109      -0.01942157       0.23634754       0.83974246      -0.24889683       0.00733131      -0.01388226       0.00239624       0.01891583       0.00706773      -0.00862953       0.00228242      -0.00282876      -0.00268443      -0.00464389      -0.01419582      -0.00962225       0.01891583       0.03003846      -0.01953083      -0.15380331       0.14345350      -0.06417963       0.15380331       0.14345350       0.06417963       0.15380331       0.14345350      -0.06417963      -0.15380331       0.14345350       0.06417963       0.00549093       0.00691556      -0.00363325      -0.00549093       0.00691556       0.00363325      -0.00549093       0.00691556      -0.00363325       0.00549093       0.00691556       0.00363325      -0.23634754       0.83974246      -0.24889683      -0.00733131      -0.01388226       0.00239624      -0.00733131      -0.00436082      -0.00694259      -0.01304003       0.01022109      -0.01942157       0.00464389      -0.01419582      -0.00962225      -0.01891583       0.03003846      -0.01953083      -0.01891583       0.00706773      -0.00862953      -0.00228242      -0.00282876      -0.00268443 </v>
    <v>       0.00000000      -0.00000000      -3.97506416      -0.00000000      -0.00000000       0.00658621      -0.00000000      -0.00000000       0.00658621      -0.00000000       0.00000000      -0.04703007       0.00000000       0.00000000       0.01557501       0.00000000       0.00000000       0.01025686       0.00000000       0.00000000       0.01025686       0.00000000      -0.00000000       0.00443612       0.00239624       0.00694259      -0.01220869      -0.01942157       0.01942157       0.02811218      -0.24889683       0.24889683       0.82347014      -0.00694259      -0.00239624      -0.01220869      -0.01953083       0.00862953       0.00610264      -0.00268443       0.00268443      -0.00277733      -0.00962225       0.00962225      -0.00799392      -0.00862953       0.01953083       0.00610264       0.06222555      -0.13769364       0.13586699       0.00344955       0.00627685       0.00748238      -0.06222555       0.13769364       0.13586699      -0.00344955      -0.00627685       0.00748238       0.06222555       0.13769364       0.13586699       0.00344955      -0.00627685       0.00748238      -0.06222555      -0.13769364       0.13586699      -0.00344955       0.00627685       0.00748238       0.24889683       0.24889683       0.82347014       0.00694259      -0.00239624      -0.01220869      -0.00239624       0.00694259      -0.01220869       0.01942157       0.01942157       0.02811218       0.00962225       0.00962225      -0.00799392       0.00862953       0.01953083       0.00610264       0.01953083       0.00862953       0.00610264       0.00268443       0.00268443      -0.00277733       0.13769364      -0.06222555       0.13586699      -0.13769364       0.06222555       0.13586699      -0.00627685      -0.00344955       0.00748238       0.00627685       0.00344955       0.00748238      -0.13769364      -0.06222555       0.13586699       0.13769364       0.06222555       0.13586699       0.00627685      -0.00344955       0.00748238      -0.00627685       0.00344955       0.00748238       0.00239624      -0.00694259      -0.01220869      -0.01942157      -0.01942157       0.02811218      -0.24889683      -0.24889683       0.82347014      -0.00694259       0.00239624      -0.01220869      -0.01953083      -0.00862953       0.00610264      -0.00268443      -0.00268443      -0.00277733      -0.00962225      -0.00962225      -0.00799392      -0.00862953      -0.01953083       0.00610264      -0.06417963       0.06417963      -0.11883032      -0.06417963      -0.06417963      -0.11883032       0.06417963       0.06417963      -0.11883032       0.06417963      -0.06417963      -0.11883032      -0.00363325       0.00363325      -0.00436815      -0.00363325      -0.00363325      -0.00436815       0.00363325       0.00363325      -0.00436815       0.00363325      -0.00363325      -0.00436815       0.24889683      -0.24889683       0.82347014       0.00694259       0.00239624      -0.01220869      -0.00239624      -0.00694259      -0.01220869       0.01942157      -0.01942157       0.02811218       0.00962225      -0.00962225      -0.00799392       0.00862953      -0.01953083       0.00610264       0.01953083      -0.00862953       0.00610264       0.00268443      -0.00268443      -0.00277733 </v>
    <v>       0.01438613       0.00000000      -0.00000000      -4.06212054       0.00000000       0.00000000       0.01225246       0.00000000      -0.00000000       0.00810126      -0.00000000      -0.00000000       0.01081946       0.00000000       0.00000000       0.00924785       0.00000000       0.00000000       0.00471046       0.00000000       0.00000000      -0.04911770      -0.00000000       0.00000000       0.01022109      -0.01304003      -0.01942157      -0.01388226      -0.00733131       0.00239624      -0.00436082      -0.00733131      -0.00694259       0.83974246      -0.23634754      -0.24889683      -0.00282876      -0.00228242      -0.00268443       0.03003846      -0.01891583      -0.01953083       0.00706773      -0.01891583      -0.00862953      -0.01419582       0.00464389      -0.00962225      -0.00598339       0.00327094      -0.00344955      -0.12243065       0.06632491      -0.06222555      -0.00598339       0.00327094       0.00344955      -0.12243065       0.06632491       0.06222555      -0.00598339      -0.00327094      -0.00344955      -0.12243065      -0.06632491      -0.06222555      -0.00598339      -0.00327094       0.00344955      -0.12243065      -0.06632491       0.06222555      -0.00436082       0.00733131       0.00694259       0.83974246       0.23634754       0.24889683       0.01022109       0.01304003       0.01942157      -0.01388226       0.00733131      -0.00239624       0.00706773       0.01891583       0.00862953      -0.01419582      -0.00464389       0.00962225      -0.00282876       0.00228242       0.00268443       0.03003846       0.01891583       0.01953083       0.13182270      -0.06632491      -0.13769364       0.13182270      -0.06632491       0.13769364       0.00735036      -0.00327094       0.00627685       0.00735036      -0.00327094      -0.00627685       0.13182270       0.06632491       0.13769364       0.13182270       0.06632491      -0.13769364       0.00735036       0.00327094      -0.00627685       0.00735036       0.00327094       0.00627685       0.01022109       0.01304003      -0.01942157      -0.01388226       0.00733131       0.00239624      -0.00436082       0.00733131      -0.00694259       0.83974246       0.23634754      -0.24889683      -0.00282876       0.00228242      -0.00268443       0.03003846       0.01891583      -0.01953083       0.00706773       0.01891583      -0.00862953      -0.01419582      -0.00464389      -0.00962225       0.14345350       0.15380331       0.06417963       0.14345350      -0.15380331       0.06417963       0.14345350      -0.15380331      -0.06417963       0.14345350       0.15380331      -0.06417963       0.00691556      -0.00549093       0.00363325       0.00691556       0.00549093       0.00363325       0.00691556       0.00549093      -0.00363325       0.00691556      -0.00549093      -0.00363325      -0.00436082      -0.00733131       0.00694259       0.83974246      -0.23634754       0.24889683       0.01022109      -0.01304003       0.01942157      -0.01388226      -0.00733131      -0.00239624       0.00706773      -0.01891583       0.00862953      -0.01419582       0.00464389       0.00962225      -0.00282876      -0.00228242       0.00268443       0.03003846      -0.01891583       0.01953083 </v>
[...]
      </set>
     </set>
    </set>
   </array>
  </eigenvalues>
  <separator name="orbital magnetization" >
   <v name="MAGDIPOLOUT">      0.00000000      0.00000000      0.00000000</v>
  </separator>
  <dos>
   <i name="efermi">     10.83694919 </i>
   <total>
    <array>
     <dimension dim="1">gridpoints</dimension>
     <dimension dim="2">spin</dimension>
     <field>energy</field>
     <field>total</field>
     <field>integrated</field>
     <set>
      <set comment="spin 1">
       <r>   -13.3754     0.0000     0.0000 </r>
       <r>   -13.2507     0.0000     0.0000 </r>
       <r>   -13.1259     0.0000     0.0000 </r>
       <r>   -13.0011     0.0000     0.0000 </r>
       <r>   -12.8764     0.0000     0.0000 </r>
       <r>   -12.7516     0.0000     0.0000 </r>
       <r>   -12.6268     0.0000     0.0000 </r>
       <r>   -12.5021     0.0000     0.0000 </r>
       <r>   -12.3773     0.0000     0.0000 </r>
       <r>   -12.2525     0.0000     0.0000 </r>
       <r>   -12.1278     0.0000     0.0000 </r>
       <r>   -12.0030     0.0000     0.0000 </r>
       <r>   -11.8782     0.0000     0.0000 </r>
       <r>   -11.7535     0.0024     0.0003 </r>
       <r>   -11.6287     0.2191     0.0276 </r>
       <r>   -11.5039     1.1790     0.1747 </r>
       <r>   -11.3792     1.3231     0.3398 </r>
       <r>   -11.2544     2.7473     0.6826 </r>
       <r>   -11.1296     1.4267     0.8606 </r>
       <r>   -11.0049     3.3874     1.2832 </r>
       <r>   -10.8801     2.7745     1.6294 </r>
       <r>   -10.7554     3.5695     2.0747 </r>
       <r>   -10.6306     2.4105     2.3755 </r>
       <r>   -10.5058     4.1634     2.8949 </r>
       <r>   -10.3811     4.3463     3.4372 </r>
       <r>   -10.2563     4.5679     4.0071 </r>
       <r>   -10.1315     2.6265     4.3348 </r>
       <r>   -10.0068     4.2114     4.8603 </r>
       <r>    -9.8820     5.9859     5.6071 </r>
       <r>    -9.7572     5.1962     6.2554 </r>
       <r>    -9.6325     4.6008     6.8294 </r>
       <r>    -9.5077     3.5421     7.2714 </r>
       <r>    -9.3829     6.5699     8.0911 </r>
       <r>    -9.2582     5.2017     8.7401 </r>
       <r>    -9.1334     5.3731     9.4104 </r>
       <r>    -9.0086     5.2147    10.0611 </r>
       <r>    -8.8839     8.0419    11.0644 </r>
       <r>    -8.7591     5.5390    11.7555 </r>
       <r>    -8.6343     5.4860    12.4399 </r>
       <r>    -8.5096     4.0078    12.9400 </r>
       <r>    -8.3848     7.8434    13.9186 </r>
       <r>    -8.2600     7.7617    14.8870 </r>
       <r>    -8.1353     7.5474    15.8286 </r>
       <r>    -8.0105     6.9842    16.7000 </r>
       <r>    -7.8857     5.3744    17.3706 </r>
       <r>    -7.7610     7.2987    18.2812 </r>
       <r>    -7.6362     7.2779    19.1892 </r>
       <r>    -7.5114     6.8471    20.0435 </r>
       <r>    -7.3867     8.5506    21.1103 </r>
       <r>    -7.2619     8.4869    22.1692 </r>
       <r>    -7.1371     8.2300    23.1961 </r>
       <r>    -7.0124     6.3754    23.9915 </r>
       <r>    -6.8876     8.8807    25.0995 </r>
       <r>    -6.7628    10.8280    26.4504 </r>
       <r>    -6.6381     7.0743    27.3331 </r>
       <r>    -6.5133     6.6953    28.1684 </r>
       <r>    -6.3885     8.4632    29.2243 </r>
       <r>    -6.2638     9.9786    30.4693 </r>
       <r>    -6.1390    10.0558    31.7240 </r>
       <r>    -6.0142    12.2404    33.2511 </r>
       <r>    -5.8895     9.1805    34.3966 </r>
       <r>    -5.7647    10.4794    35.7040 </r>
       <r>    -5.6399     9.1396    36.8443 </r>
       <r>    -5.5152    11.2230    38.2446 </r>
       <r>    -5.3904    10.7994    39.5920 </r>
       <r>    -5.2657    13.7287    41.3049 </r>
       <r>    -5.1409    11.9132    42.7912 </r>
       <r>    -5.0161     9.0279    43.9176 </r>
       <r>    -4.8914     9.2206    45.0680 </r>
       <r>    -4.7666    11.8144    46.5420 </r>
       <r>    -4.6418    11.5087    47.9779 </r>
       <r>    -4.5171    10.3538    49.2697 </r>
       <r>    -4.3923     6.6906    50.1045 </r>
       <r>    -4.2675     8.9439    51.2204 </r>
       <r>    -4.1428     9.4483    52.3992 </r>
       <r>    -4.0180     7.6217    53.3501 </r>
       <r>    -3.8932     8.2031    54.3736 </r>
       <r>    -3.7685    10.0277    55.6247 </r>
       <r>    -3.6437     5.6779    56.3331 </r>
       <r>    -3.5189     6.5614    57.1518 </r>
       <r>    -3.3942    10.9094    58.5129 </r>
       <r>    -3.2694     9.2357    59.6652 </r>
       <r>    -3.1446     8.4797    60.7232 </r>
       <r>    -3.0199     7.6429    61.6767 </r>
       <r>    -2.8951     8.6362    62.7543 </r>
       <r>    -2.7703     7.1506    63.6464 </r>
       <r>    -2.6456     7.4526    64.5762 </r>
       <r>    -2.5208     9.5882    65.7725 </r>
       <r>    -2.3960    12.1767    67.2918 </r>
       <r>    -2.2713    10.2499    68.5706 </r>
       <r>    -2.1465     7.8892    69.5549 </r>
       <r>    -2.0217    10.3727    70.8491 </r>
       <r>    -1.8970    11.1538    72.2407 </r>
       <r>    -1.7722     8.9108    73.3525 </r>
       <r>    -1.6474    12.3622    74.8948 </r>
       <r>    -1.5227    12.2768    76.4266 </r>
       <r>    -1.3979    20.6131    78.9984 </r>
       <r>    -1.2731    16.3738    81.0413 </r>
       <r>    -1.1484    14.7069    82.8762 </r>
       <r>    -1.0236    21.3584    85.5410 </r>
       <r>    -0.8988    20.4305    88.0900 </r>
       <r>    -0.7741     9.7965    89.3123 </r>
       <r>    -0.6493    10.6109    90.6362 </r>
       <r>    -0.5245     7.8919    91.6208 </r>
       <r>    -0.3998    10.6220    92.9461 </r>
       <r>    -0.2750     9.0309    94.0728 </r>
       <r>    -0.1502    12.9752    95.6917 </r>
       <r>    -0.0255     7.8997    96.6773 </r>
       <r>     0.0993    10.4218    97.9776 </r>
       <r>     0.2240     9.9986    99.2251 </r>
       <r>     0.3488    12.8371   100.8267 </r>
       <r>     0.4736     8.3125   101.8638 </r>
       <r>     0.5983     4.4373   102.4174 </r>
       <r>     0.7231     8.3180   103.4552 </r>
       <r>     0.8479    14.5643   105.2724 </r>
       <r>     0.9726    12.6809   106.8545 </r>
       <r>     1.0974    10.1206   108.1172 </r>
       <r>     1.2222    14.7283   109.9548 </r>
       <r>     1.3469    17.1552   112.0952 </r>
       <r>     1.4717    17.7901   114.3148 </r>
       <r>     1.5965    17.8883   116.5466 </r>
       <r>     1.7212    14.5216   118.3584 </r>
       <r>     1.8460    10.1121   119.6201 </r>
       <r>     1.9708    16.7060   121.7044 </r>
       <r>     2.0955    17.0148   123.8273 </r>
       <r>     2.2203    16.8625   125.9312 </r>
       <r>     2.3451    18.5183   128.2416 </r>
       <r>     2.4698    18.1608   130.5075 </r>
       <r>     2.5946    13.2682   132.1629 </r>
       <r>     2.7194    12.4950   133.7218 </r>
       <r>     2.8441    16.5424   135.7858 </r>
       <r>     2.9689    20.8144   138.3827 </r>
       <r>     3.0937    22.3198   141.1674 </r>
       <r>     3.2184    19.7121   143.6268 </r>
       <r>     3.3432    13.4385   145.3035 </r>
       <r>     3.4680    14.4766   147.1097 </r>
       <r>     3.5927    22.5097   149.9181 </r>
       <r>     3.7175    28.4471   153.4674 </r>
       <r>     3.8423    26.5171   156.7758 </r>
       <r>     3.9670    19.9127   159.2602 </r>
       <r>     4.0918    19.7756   161.7275 </r>
       <r>     4.2166    23.6481   164.6780 </r>
       <r>     4.3413    20.9272   167.2890 </r>
       <r>     4.4661    27.2134   170.6843 </r>
       <r>     4.5909    22.8869   173.5398 </r>
       <r>     4.7156    28.3415   177.0759 </r>
       <r>     4.8404    26.6065   180.3955 </r>
       <r>     4.9652    20.2281   182.9192 </r>
       <r>     5.0899    17.1540   185.0595 </r>
       <r>     5.2147    20.8058   187.6553 </r>
       <r>     5.3395    21.5064   190.3386 </r>
       <r>     5.4642    26.3950   193.6318 </r>
       <r>     5.5890    24.8273   196.7294 </r>
       <r>     5.7137    23.6047   199.6745 </r>
       <r>     5.8385    20.3504   202.2135 </r>
       <r>     5.9633    18.0057   204.4600 </r>
       <r>     6.0880    17.5864   206.6542 </r>
       <r>     6.2128    24.4603   209.7060 </r>
       <r>     6.3376    21.6553   212.4078 </r>
       <r>     6.4623    18.5825   214.7263 </r>
       <r>     6.5871    23.6434   217.6762 </r>
       <r>     6.7119    20.8370   220.2759 </r>
       <r>     6.8366    21.2306   222.9248 </r>
       <r>     6.9614    14.8855   224.7820 </r>
       <r>     7.0862    18.9561   227.1471 </r>
       <r>     7.2109    21.3240   229.8076 </r>
       <r>     7.3357    16.4691   231.8624 </r>
       <r>     7.4605    21.3502   234.5261 </r>
       <r>     7.5852    14.6425   236.3530 </r>
       <r>     7.7100    14.4569   238.1567 </r>
       <r>     7.8348    14.0529   239.9101 </r>
       <r>     7.9595    12.9603   241.5271 </r>
       <r>     8.0843    10.2623   242.8075 </r>
       <r>     8.2091    11.6435   244.2602 </r>
       <r>     8.3338    12.3251   245.7979 </r>
       <r>     8.4586     8.7776   246.8931 </r>
       <r>     8.5834     6.4638   247.6995 </r>
       <r>     8.7081     7.5543   248.6420 </r>
       <r>     8.8329     8.6835   249.7254 </r>
       <r>     8.9577     6.7178   250.5636 </r>
       <r>     9.0824     7.1271   251.4528 </r>
       <r>     9.2072     4.2195   251.9793 </r>
       <r>     9.3320     4.7447   252.5712 </r>
       <r>     9.4567     5.8647   253.3029 </r>
       <r>     9.5815     5.2474   253.9576 </r>
       <r>     9.7063     3.0625   254.3397 </r>
       <r>     9.8310     3.3665   254.7598 </r>
       <r>     9.9558     2.4947   255.0710 </r>
       <r>    10.0806     3.2344   255.4746 </r>
       <r>    10.2053     1.2027   255.6246 </r>
       <r>    10.3301     1.9883   255.8727 </r>
       <r>    10.4549     0.5938   255.9468 </r>
       <r>    10.5796     0.3681   255.9927 </r>
       <r>    10.7044     0.0584   256.0000 </r>
       <r>    10.8292     0.0001   256.0000 </r>
       <r>    10.9539     0.0000   256.0000 </r>
       <r>    11.0787     0.0000   256.0000 </r>
       <r>    11.2034     0.0000   256.0000 </r>
       <r>    11.3282     0.0000   256.0000 </r>
       <r>    11.4530     0.0000   256.0000 </r>
       <r>    11.5777     0.0000   256.0000 </r>
       <r>    11.7025     0.0000   256.0000 </r>
       <r>    11.8273     0.0000   256.0000 </r>
       <r>    11.9520     0.0000   256.0000 </r>
       <r>    12.0768     0.0000   256.0000 </r>
       <r>    12.2016     0.0000   256.0000 </r>
       <r>    12.3263     0.0000   256.0000 </r>
       <r>    12.4511     0.0000   256.0000 </r>
       <r>    12.5759     0.0000   256.0000 </r>
       <r>    12.7006     0.0000   256.0000 </r>
       <r>    12.8254     0.0000   256.0000 </r>
       <r>    12.9502     0.0000   256.0000 </r>
       <r>    13.0749     0.0000   256.0000 </r>
       <r>    13.1997     0.0000   256.0000 </r>
       <r>    13.3245     0.0000   256.0000 </r>
       <r>    13.4492     0.0000   256.0000 </r>
       <r>    13.5740     0.0000   256.0000 </r>
       <r>    13.6988     0.0000   256.0000 </r>
       <r>    13.8235     0.0000   256.0000 </r>
       <r>    13.9483     0.0000   256.0000 </r>
       <r>    14.0731     0.0000   256.0000 </r>
       <r>    14.1978     0.0000   256.0000 </r>
       <r>    14.3226     0.0577   256.0072 </r>
       <r>    14.4474     0.6624   256.0898 </r>
       <r>    14.5721     0.4870   256.1506 </r>
       <r>    14.6969     2.3825   256.4479 </r>
       <r>    14.8217     2.7856   256.7954 </r>
       <r>    14.9464     4.4943   257.3561 </r>
       <r>    15.0712     4.1692   257.8763 </r>
       <r>    15.1960     1.6158   258.0779 </r>
       <r>    15.3207     3.6265   258.5304 </r>
       <r>    15.4455     7.8903   259.5148 </r>
       <r>    15.5703    13.7256   261.2273 </r>
       <r>    15.6950     7.6203   262.1781 </r>
       <r>    15.8198     8.6598   263.2585 </r>
       <r>    15.9446     8.4385   264.3114 </r>
       <r>    16.0693     9.8212   265.5367 </r>
       <r>    16.1941    11.6780   266.9937 </r>
       <r>    16.3189    15.3335   268.9068 </r>
       <r>    16.4436    14.2435   270.6839 </r>
       <r>    16.5684    15.5557   272.6248 </r>
       <r>    16.6931    15.8620   274.6038 </r>
       <r>    16.8179    18.2554   276.8814 </r>
       <r>    16.9427    12.7162   278.4680 </r>
       <r>    17.0674    14.3761   280.2616 </r>
       <r>    17.1922    18.8779   282.6170 </r>
       <r>    17.3170    18.2311   284.8916 </r>
       <r>    17.4417    22.6237   287.7143 </r>
       <r>    17.5665    16.3748   289.7573 </r>
       <r>    17.6913    23.0010   292.6270 </r>
       <r>    17.8160    20.0765   295.1319 </r>
       <r>    17.9408    16.1322   297.1446 </r>
       <r>    18.0656    18.7426   299.4831 </r>
       <r>    18.1903    24.5239   302.5428 </r>
       <r>    18.3151    35.0302   306.9134 </r>
       <r>    18.4399    36.4352   311.4593 </r>
       <r>    18.5646    26.1136   314.7173 </r>
       <r>    18.6894    26.2052   317.9868 </r>
       <r>    18.8142    24.2505   321.0125 </r>
       <r>    18.9389    36.2034   325.5294 </r>
       <r>    19.0637    27.4869   328.9589 </r>
       <r>    19.1885    30.6333   332.7809 </r>
       <r>    19.3132    27.4305   336.2033 </r>
       <r>    19.4380    22.6731   339.0321 </r>
       <r>    19.5628    23.8599   342.0090 </r>
       <r>    19.6875    28.1352   345.5193 </r>
       <r>    19.8123    25.2367   348.6680 </r>
       <r>    19.9371    23.0564   351.5446 </r>
       <r>    20.0618    28.8921   355.1494 </r>
       <r>    20.1866    31.6333   359.0961 </r>
       <r>    20.3114    21.3642   361.7617 </r>
       <r>    20.4361    28.3008   365.2926 </r>
       <r>    20.5609    27.6612   368.7438 </r>
       <r>    20.6857    19.2112   371.1407 </r>
       <r>    20.8104    26.8972   374.4966 </r>
       <r>    20.9352    20.7672   377.0876 </r>
       <r>    21.0600    16.4527   379.1404 </r>
       <r>    21.1847    14.1008   380.8997 </r>
       <r>    21.3095     7.6603   381.8554 </r>
       <r>    21.4343     6.0618   382.6117 </r>
       <r>    21.5590     2.8959   382.9730 </r>
       <r>    21.6838     1.6455   383.1783 </r>
       <r>    21.8086     0.4995   383.2406 </r>
       <r>    21.9333     2.4444   383.5456 </r>
       <r>    22.0581     2.1892   383.8187 </r>
       <r>    22.1828     0.2651   383.8518 </r>
       <r>    22.3076     0.2773   383.8864 </r>
       <r>    22.4324     0.8917   383.9977 </r>
       <r>    22.5571     0.0187   384.0000 </r>
       <r>    22.6819     0.0000   384.0000 </r>
       <r>    22.8067     0.0000   384.0000 </r>
       <r>    22.9314     0.0000   384.0000 </r>
       <r>    23.0562     0.0000   384.0000 </r>
       <r>    23.1810     0.0000   384.0000 </r>
       <r>    23.3057     0.0000   384.0000 </r>
       <r>    23.4305     0.0000   384.0000 </r>
       <r>    23.5553     0.0000   384.0000 </r>
       <r>    23.6800     0.0000   384.0000 </r>
       <r>    23.8048     0.0000   384.0000 </r>
       <r>    23.9296     0.0000   384.0000 </r>
       <r>    24.0543     0.0000   384.0000 </r>
      </set>
     </set>
    </array>
   </total>
  </dos>
 </calculation>
 <structure name="finalpos" >
  <crystal>
   <varray name="basis" >
    <v>       6.96126624       0.00000000       0.00000000 </v>
    <v>       0.00000000       6.96126624       0.00000000 </v>
    <v>       0.00000000       0.00000000       7.17999872 </v>
   </varray>
   <i name="volume">    347.93719203 </i>
   <varray name="rec_basis" >
    <v>       0.14365203       0.00000000       0.00000000 </v>
    <v>       0.00000000       0.14365203       0.00000000 </v>
    <v>       0.00000000       0.00000000       0.13927579 </v>
   </varray>
  </crystal>
  <varray name="positions" >
   <v>       0.12500000       0.37500000       0.12500000 </v>
   <v>       0.62500000       0.37500000       0.12500000 </v>
   <v>       0.12500000       0.87500000       0.12500000 </v>
   <v>       0.62500000       0.87500000       0.12500000 </v>
   <v>       0.12500000       0.37500000       0.62500000 </v>
   <v>       0.62500000       0.37500000       0.62500000 </v>
   <v>       0.12500000       0.87500000       0.62500000 </v>
   <v>       0.62500000       0.87500000       0.62500000 </v>
   <v>       0.00000000       0.00000000       0.25000000 </v>
   <v>       0.50000000       0.00000000       0.25000000 </v>
   <v>       0.00000000       0.50000000       0.25000000 </v>
   <v>       0.50000000       0.50000000       0.25000000 </v>
   <v>       0.00000000       0.00000000       0.75000000 </v>
   <v>       0.50000000       0.00000000       0.75000000 </v>
   <v>       0.00000000       0.50000000       0.75000000 </v>
   <v>       0.50000000       0.50000000       0.75000000 </v>
   <v>       0.12500000       0.12500000       0.37500000 </v>
   <v>       0.62500000       0.12500000       0.37500000 </v>
   <v>       0.12500000       0.62500000       0.37500000 </v>
   <v>       0.62500000       0.62500000       0.37500000 </v>
   <v>       0.12500000       0.12500000       0.87500000 </v>
   <v>       0.62500000       0.12500000       0.87500000 </v>
   <v>       0.12500000       0.62500000       0.87500000 </v>
   <v>       0.62500000       0.62500000       0.87500000 </v>
   <v>       0.00000000       0.25000000       0.00000000 </v>
   <v>       0.50000000       0.25000000       0.00000000 </v>
   <v>       0.00000000       0.75000000       0.00000000 </v>
   <v>       0.50000000       0.75000000       0.00000000 </v>
   <v>       0.00000000       0.25000000       0.50000000 </v>
   <v>       0.50000000       0.25000000       0.50000000 </v>
   <v>       0.00000000       0.75000000       0.50000000 </v>
   <v>       0.50000000       0.75000000       0.50000000 </v>
   <v>       0.37500000       0.37500000       0.37500000 </v>
   <v>       0.87500000       0.37500000       0.37500000 </v>
   <v>       0.37500000       0.87500000       0.37500000 </v>
   <v>       0.87500000       0.87500000       0.37500000 </v>
   <v>       0.37500000       0.37500000       0.87500000 </v>
   <v>       0.87500000       0.37500000       0.87500000 </v>
   <v>       0.37500000       0.87500000       0.87500000 </v>
   <v>       0.87500000       0.87500000       0.87500000 </v>
   <v>       0.25000000       0.00000000       0.00000000 </v>
   <v>       0.75000000       0.00000000       0.00000000 </v>
   <v>       0.25000000       0.50000000       0.00000000 </v>
   <v>       0.75000000       0.50000000       0.00000000 </v>
   <v>       0.25000000       0.00000000       0.50000000 </v>
   <v>       0.75000000       0.00000000       0.50000000 </v>
   <v>       0.25000000       0.50000000       0.50000000 </v>
   <v>       0.75000000       0.50000000       0.50000000 </v>
   <v>       0.37500000       0.12500000       0.12500000 </v>
   <v>       0.87500000       0.12500000       0.12500000 </v>
   <v>       0.37500000       0.62500000       0.12500000 </v>
   <v>       0.87500000       0.62500000       0.12500000 </v>
   <v>       0.37500000       0.12500000       0.62500000 </v>
   <v>       0.87500000       0.12500000       0.62500000 </v>
   <v>       0.37500000       0.62500000       0.62500000 </v>
   <v>       0.87500000       0.62500000       0.62500000 </v>
   <v>       0.25000000       0.25000000       0.25000000 </v>
   <v>       0.75000000       0.25000000       0.25000000 </v>
   <v>       0.25000000       0.75000000       0.25000000 </v>
   <v>       0.75000000       0.75000000       0.25000000 </v>
   <v>       0.25000000       0.25000000       0.75000000 </v>
   <v>       0.75000000       0.25000000       0.75000000 </v>
   <v>       0.25000000       0.75000000       0.75000000 </v>
   <v>       0.75000000       0.75000000       0.75000000 </v>
  </varray>
 </structure>
</modeling>
