  64  64   0   0
  0.5957902E+01  0.7251443E-09  0.7251443E-09  0.7251443E-09  0.5000000E-15
  1.000000000000000E-004
  CAR 
 unknown system                          
     21.93347457    -13.37737204  301      9.35398547      1.00000000
    -13.377  0.0000E+00  0.0000E+00
    -13.260  0.0000E+00  0.0000E+00
    -13.142  0.0000E+00  0.0000E+00
    -13.024  0.0000E+00  0.0000E+00
    -12.907  0.0000E+00  0.0000E+00
    -12.789  0.0000E+00  0.0000E+00
    -12.671  0.0000E+00  0.0000E+00
    -12.553  0.0000E+00  0.0000E+00
    -12.436  0.0000E+00  0.0000E+00
    -12.318  0.0000E+00  0.0000E+00
    -12.200  0.0000E+00  0.0000E+00
    -12.083  0.1020E-13  0.1200E-14
    -11.965  0.2220E-06  0.2613E-07
    -11.847  0.3345E-02  0.3937E-03
    -11.730  0.2432E+00  0.2902E-01
    -11.612  0.1243E+01  0.1753E+00
    -11.494  0.1446E+01  0.3455E+00
    -11.376  0.2876E+01  0.6840E+00
    -11.259  0.1577E+01  0.8696E+00
    -11.141  0.3613E+01  0.1295E+01
    -11.023  0.2923E+01  0.1639E+01
    -10.906  0.3911E+01  0.2099E+01
    -10.788  0.2382E+01  0.2380E+01
    -10.670  0.4721E+01  0.2935E+01
    -10.553  0.4436E+01  0.3457E+01
    -10.435  0.5127E+01  0.4061E+01
    -10.317  0.2424E+01  0.4346E+01
    -10.199  0.4766E+01  0.4907E+01
    -10.082  0.6468E+01  0.5668E+01
     -9.964  0.5678E+01  0.6337E+01
     -9.846  0.4466E+01  0.6862E+01
     -9.729  0.4223E+01  0.7359E+01
     -9.611  0.7018E+01  0.8185E+01
     -9.493  0.5193E+01  0.8797E+01
     -9.375  0.5647E+01  0.9461E+01
     -9.258  0.6980E+01  0.1028E+02
     -9.140  0.7484E+01  0.1116E+02
     -9.022  0.6262E+01  0.1190E+02
     -8.905  0.5545E+01  0.1255E+02
     -8.787  0.4014E+01  0.1303E+02
     -8.669  0.9457E+01  0.1414E+02
     -8.552  0.7614E+01  0.1504E+02
     -8.434  0.9454E+01  0.1615E+02
     -8.316  0.6102E+01  0.1687E+02
     -8.198  0.6564E+01  0.1764E+02
     -8.081  0.7395E+01  0.1851E+02
     -7.963  0.7948E+01  0.1944E+02
     -7.845  0.6863E+01  0.2025E+02
     -7.728  0.1090E+02  0.2154E+02
     -7.610  0.9797E+01  0.2269E+02
     -7.492  0.5763E+01  0.2337E+02
     -7.375  0.7952E+01  0.2430E+02
     -7.257  0.1366E+02  0.2591E+02
     -7.139  0.8796E+01  0.2695E+02
     -7.021  0.5037E+01  0.2754E+02
     -6.904  0.9557E+01  0.2866E+02
     -6.786  0.1043E+02  0.2989E+02
     -6.668  0.1084E+02  0.3117E+02
     -6.551  0.1308E+02  0.3271E+02
     -6.433  0.1122E+02  0.3403E+02
     -6.315  0.1359E+02  0.3563E+02
     -6.197  0.1001E+02  0.3681E+02
     -6.080  0.9186E+01  0.3789E+02
     -5.962  0.1247E+02  0.3935E+02
     -5.844  0.1634E+02  0.4128E+02
     -5.727  0.1117E+02  0.4259E+02
     -5.609  0.8283E+01  0.4357E+02
     -5.491  0.1432E+02  0.4525E+02
     -5.374  0.1059E+02  0.4650E+02
     -5.256  0.1486E+02  0.4825E+02
     -5.138  0.6026E+01  0.4896E+02
     -5.020  0.1112E+02  0.5027E+02
     -4.903  0.1067E+02  0.5152E+02
     -4.785  0.7497E+01  0.5240E+02
     -4.667  0.5168E+01  0.5301E+02
     -4.550  0.1465E+02  0.5474E+02
     -4.432  0.6365E+01  0.5549E+02
     -4.314  0.5175E+01  0.5610E+02
     -4.197  0.1251E+02  0.5757E+02
     -4.079  0.9406E+01  0.5868E+02
     -3.961  0.1068E+02  0.5993E+02
     -3.843  0.4181E+01  0.6042E+02
     -3.726  0.4065E+01  0.6090E+02
     -3.608  0.6970E+01  0.6172E+02
     -3.490  0.4727E+01  0.6228E+02
     -3.373  0.7355E+01  0.6315E+02
     -3.255  0.1249E+02  0.6462E+02
     -3.137  0.8784E+01  0.6565E+02
     -3.020  0.1056E+02  0.6689E+02
     -2.902  0.8949E+01  0.6795E+02
     -2.784  0.1012E+02  0.6914E+02
     -2.666  0.6580E+01  0.6991E+02
     -2.549  0.1225E+02  0.7135E+02
     -2.431  0.1044E+02  0.7258E+02
     -2.313  0.1094E+02  0.7387E+02
     -2.196  0.1180E+02  0.7526E+02
     -2.078  0.2048E+02  0.7767E+02
     -1.960  0.3626E+02  0.8194E+02
     -1.842  0.2586E+02  0.8498E+02
     -1.725  0.9152E+01  0.8606E+02
     -1.607  0.1396E+02  0.8770E+02
     -1.489  0.1475E+02  0.8944E+02
     -1.372  0.6654E+01  0.9022E+02
     -1.254  0.8913E+01  0.9127E+02
     -1.136  0.1501E+02  0.9304E+02
     -1.019  0.1175E+02  0.9442E+02
     -0.901  0.7597E+01  0.9531E+02
     -0.783  0.1040E+02  0.9654E+02
     -0.665  0.1633E+02  0.9846E+02
     -0.548  0.1561E+02  0.1003E+03
     -0.430  0.6284E+01  0.1010E+03
     -0.312  0.4553E+01  0.1016E+03
     -0.195  0.2645E+01  0.1019E+03
     -0.077  0.7481E+01  0.1028E+03
      0.041  0.1522E+02  0.1046E+03
      0.158  0.8709E+01  0.1056E+03
      0.276  0.8276E+01  0.1066E+03
      0.394  0.1156E+02  0.1079E+03
      0.512  0.7242E+01  0.1088E+03
      0.629  0.2469E+02  0.1117E+03
      0.747  0.2289E+02  0.1144E+03
      0.865  0.1552E+02  0.1162E+03
      0.982  0.1115E+02  0.1175E+03
      1.100  0.1376E+02  0.1191E+03
      1.218  0.1618E+02  0.1210E+03
      1.335  0.1784E+02  0.1231E+03
      1.453  0.2152E+02  0.1257E+03
      1.571  0.2425E+02  0.1285E+03
      1.689  0.9117E+01  0.1296E+03
      1.806  0.1117E+02  0.1309E+03
      1.924  0.2001E+02  0.1333E+03
      2.042  0.2503E+02  0.1362E+03
      2.159  0.2239E+02  0.1388E+03
      2.277  0.1281E+02  0.1404E+03
      2.395  0.1501E+02  0.1421E+03
      2.513  0.1617E+02  0.1440E+03
      2.630  0.2642E+02  0.1471E+03
      2.748  0.2031E+02  0.1495E+03
      2.866  0.2090E+02  0.1520E+03
      2.983  0.3022E+02  0.1555E+03
      3.101  0.2593E+02  0.1586E+03
      3.219  0.2674E+02  0.1617E+03
      3.336  0.1245E+02  0.1632E+03
      3.454  0.2495E+02  0.1661E+03
      3.572  0.2844E+02  0.1695E+03
      3.690  0.3446E+02  0.1735E+03
      3.807  0.3507E+02  0.1777E+03
      3.925  0.1626E+02  0.1796E+03
      4.043  0.1631E+02  0.1815E+03
      4.160  0.3010E+02  0.1850E+03
      4.278  0.2157E+02  0.1876E+03
      4.396  0.2235E+02  0.1902E+03
      4.513  0.2487E+02  0.1931E+03
      4.631  0.3187E+02  0.1969E+03
      4.749  0.2158E+02  0.1994E+03
      4.867  0.2046E+02  0.2018E+03
      4.984  0.2434E+02  0.2047E+03
      5.102  0.1886E+02  0.2069E+03
      5.220  0.2830E+02  0.2103E+03
      5.337  0.2147E+02  0.2128E+03
      5.455  0.1483E+02  0.2145E+03
      5.573  0.2568E+02  0.2176E+03
      5.690  0.2444E+02  0.2204E+03
      5.808  0.2327E+02  0.2232E+03
      5.926  0.2606E+02  0.2262E+03
      6.044  0.1764E+02  0.2283E+03
      6.161  0.1284E+02  0.2298E+03
      6.279  0.1913E+02  0.2321E+03
      6.397  0.2352E+02  0.2348E+03
      6.514  0.3265E+02  0.2387E+03
      6.632  0.7608E+01  0.2396E+03
      6.750  0.9204E+01  0.2407E+03
      6.868  0.1348E+02  0.2423E+03
      6.985  0.1323E+02  0.2438E+03
      7.103  0.8525E+01  0.2448E+03
      7.221  0.1530E+02  0.2466E+03
      7.338  0.8364E+01  0.2476E+03
      7.456  0.7993E+01  0.2485E+03
      7.574  0.7265E+01  0.2494E+03
      7.691  0.7555E+01  0.2503E+03
      7.809  0.7305E+01  0.2511E+03
      7.927  0.7272E+01  0.2520E+03
      8.045  0.4586E+01  0.2525E+03
      8.162  0.4494E+01  0.2531E+03
      8.280  0.7174E+01  0.2539E+03
      8.398  0.4162E+01  0.2544E+03
      8.515  0.2306E+01  0.2547E+03
      8.633  0.3188E+01  0.2550E+03
      8.751  0.3361E+01  0.2554E+03
      8.868  0.2895E+01  0.2558E+03
      8.986  0.9325E+00  0.2559E+03
      9.104  0.7899E+00  0.2560E+03
      9.222  0.9994E-01  0.2560E+03
      9.339  0.2601E-03  0.2560E+03
      9.457  0.6320E-09  0.2560E+03
      9.575  0.0000E+00  0.2560E+03
      9.692  0.0000E+00  0.2560E+03
      9.810  0.0000E+00  0.2560E+03
      9.928  0.0000E+00  0.2560E+03
     10.045  0.0000E+00  0.2560E+03
     10.163  0.0000E+00  0.2560E+03
     10.281  0.0000E+00  0.2560E+03
     10.399  0.0000E+00  0.2560E+03
     10.516  0.0000E+00  0.2560E+03
     10.634  0.0000E+00  0.2560E+03
     10.752  0.0000E+00  0.2560E+03
     10.869  0.0000E+00  0.2560E+03
     10.987  0.0000E+00  0.2560E+03
     11.105  0.0000E+00  0.2560E+03
     11.223  0.0000E+00  0.2560E+03
     11.340  0.0000E+00  0.2560E+03
     11.458  0.0000E+00  0.2560E+03
     11.576  0.0000E+00  0.2560E+03
     11.693  0.0000E+00  0.2560E+03
     11.811  0.0000E+00  0.2560E+03
     11.929  0.0000E+00  0.2560E+03
     12.046  0.0000E+00  0.2560E+03
     12.164  0.0000E+00  0.2560E+03
     12.282  0.0000E+00  0.2560E+03
     12.400  0.0000E+00  0.2560E+03
     12.517  0.0000E+00  0.2560E+03
     12.635  0.0000E+00  0.2560E+03
     12.753  0.7074E-15  0.2560E+03
     12.870  0.8151E-07  0.2560E+03
     12.988  0.6158E-02  0.2560E+03
     13.106  0.5909E+00  0.2561E+03
     13.223  0.1069E+01  0.2562E+03
     13.341  0.1571E+01  0.2564E+03
     13.459  0.5243E+01  0.2570E+03
     13.577  0.5096E+01  0.2576E+03
     13.694  0.7704E+01  0.2585E+03
     13.812  0.3900E+01  0.2590E+03
     13.930  0.4387E+01  0.2595E+03
     14.047  0.3146E+01  0.2599E+03
     14.165  0.2106E+02  0.2623E+03
     14.283  0.1290E+02  0.2638E+03
     14.400  0.1092E+02  0.2651E+03
     14.518  0.8522E+01  0.2661E+03
     14.636  0.1479E+02  0.2679E+03
     14.754  0.1305E+02  0.2694E+03
     14.871  0.1247E+02  0.2709E+03
     14.989  0.1587E+02  0.2728E+03
     15.107  0.1953E+02  0.2750E+03
     15.224  0.1939E+02  0.2773E+03
     15.342  0.2018E+02  0.2797E+03
     15.460  0.1412E+02  0.2814E+03
     15.578  0.1860E+02  0.2836E+03
     15.695  0.1976E+02  0.2859E+03
     15.813  0.2695E+02  0.2891E+03
     15.931  0.1654E+02  0.2910E+03
     16.048  0.1521E+02  0.2928E+03
     16.166  0.2935E+02  0.2962E+03
     16.284  0.2237E+02  0.2989E+03
     16.401  0.1037E+02  0.3001E+03
     16.519  0.2200E+02  0.3027E+03
     16.637  0.4318E+02  0.3078E+03
     16.755  0.4421E+02  0.3130E+03
     16.872  0.3374E+02  0.3169E+03
     16.990  0.2381E+02  0.3197E+03
     17.108  0.2277E+02  0.3224E+03
     17.225  0.3046E+02  0.3260E+03
     17.343  0.4564E+02  0.3314E+03
     17.461  0.4199E+02  0.3363E+03
     17.578  0.4456E+02  0.3416E+03
     17.696  0.2457E+02  0.3445E+03
     17.814  0.2926E+02  0.3479E+03
     17.932  0.3962E+02  0.3526E+03
     18.049  0.4036E+02  0.3573E+03
     18.167  0.1843E+02  0.3595E+03
     18.285  0.1370E+02  0.3611E+03
     18.402  0.1911E+02  0.3634E+03
     18.520  0.2969E+02  0.3668E+03
     18.638  0.2991E+02  0.3704E+03
     18.755  0.3607E+02  0.3746E+03
     18.873  0.2034E+02  0.3770E+03
     18.991  0.1631E+02  0.3789E+03
     19.109  0.1488E+02  0.3807E+03
     19.226  0.3942E+01  0.3811E+03
     19.344  0.2092E+01  0.3814E+03
     19.462  0.6768E+01  0.3822E+03
     19.579  0.7525E+01  0.3831E+03
     19.697  0.1039E+01  0.3832E+03
     19.815  0.1726E+01  0.3834E+03
     19.933  0.6356E+00  0.3835E+03
     20.050  0.1405E+01  0.3836E+03
     20.168  0.1073E+01  0.3838E+03
     20.286  0.4682E+00  0.3838E+03
     20.403  0.1485E+01  0.3840E+03
     20.521  0.5920E-01  0.3840E+03
     20.639  0.3466E-05  0.3840E+03
     20.756  0.1314E-12  0.3840E+03
     20.874  0.0000E+00  0.3840E+03
     20.992  0.0000E+00  0.3840E+03
     21.110  0.0000E+00  0.3840E+03
     21.227  0.0000E+00  0.3840E+03
     21.345  0.0000E+00  0.3840E+03
     21.463  0.0000E+00  0.3840E+03
     21.580  0.0000E+00  0.3840E+03
     21.698  0.0000E+00  0.3840E+03
     21.816  0.0000E+00  0.3840E+03
     21.933  0.0000E+00  0.3840E+03
