mesh: [    48,    48,    48 ]
nqpoint: 2600   
reciprocal_lattice:
- [   0.27580718,   0.00000000,   0.00000000 ] # a*
- [   0.00000000,   0.27580718,   0.00000000 ] # b*
- [   0.00000000,   0.00000000,   0.27580718 ] # c*
natom:   8      
lattice:
- [     3.625721445314523,     0.000000000000000,     0.000000000000000 ] # a
- [     0.000000000000000,     3.625721445314523,     0.000000000000000 ] # b
- [     0.000000000000000,     0.000000000000000,     3.625721445314523 ] # c
points:
- symbol: C  # 1
  coordinates: [  0.250000000000000,  0.750000000000000,  0.250000000000000 ]
  mass: 12.010700
- symbol: C  # 2
  coordinates: [  0.000000000000000,  0.000000000000000,  0.500000000000000 ]
  mass: 12.010700
- symbol: C  # 3
  coordinates: [  0.250000000000000,  0.250000000000000,  0.750000000000000 ]
  mass: 12.010700
- symbol: C  # 4
  coordinates: [  0.000000000000000,  0.500000000000000,  0.000000000000000 ]
  mass: 12.010700
- symbol: C  # 5
  coordinates: [  0.750000000000000,  0.750000000000000,  0.750000000000000 ]
  mass: 12.010700
- symbol: C  # 6
  coordinates: [  0.500000000000000,  0.000000000000000,  0.000000000000000 ]
  mass: 12.010700
- symbol: C  # 7
  coordinates: [  0.750000000000000,  0.250000000000000,  0.250000000000000 ]
  mass: 12.010700
- symbol: C  # 8
  coordinates: [  0.500000000000000,  0.500000000000000,  0.500000000000000 ]
  mass: 12.010700

phonon:
- q-position: [    0.0104167,    0.0104167,    0.0104167 ]
  distance_from_gamma:  0.004976167
  weight: 8    
  band:
  - # 1
    frequency:     0.5757854611
  - # 2
    frequency:     0.5757854611
  - # 3
    frequency:     0.8628360727
  - # 4
    frequency:    23.0716427337
  - # 5
    frequency:    23.0716427337
  - # 6
    frequency:    23.0716427337
  - # 7
    frequency:    23.0837412290
  - # 8
    frequency:    23.0837412290
  - # 9
    frequency:    23.0837412290
  - # 10
    frequency:    29.5986823874
  - # 11
    frequency:    29.5986823874
  - # 12
    frequency:    29.5986823874
  - # 13
    frequency:    29.6026077167
  - # 14
    frequency:    29.6026077167
  - # 15
    frequency:    29.6026077167
  - # 16
    frequency:    34.0918588322
  - # 17
    frequency:    34.0918588322
  - # 18
    frequency:    34.0918588322
  - # 19
    frequency:    34.4110034034
  - # 20
    frequency:    34.4110034034
  - # 21
    frequency:    34.4110034034
  - # 22
    frequency:    37.0347201136
  - # 23
    frequency:    37.0347201136
  - # 24
    frequency:    37.0389790962

- q-position: [    0.0312500,    0.0104167,    0.0104167 ]
  distance_from_gamma:  0.009528635
  weight: 24   
  band:
  - # 1
    frequency:     1.1115664632
  - # 2
    frequency:     1.1241004803
  - # 3
    frequency:     1.6304499803
  - # 4
    frequency:    23.0308530893
  - # 5
    frequency:    23.0429318705
  - # 6
    frequency:    23.0792782594
  - # 7
    frequency:    23.0792782594
  - # 8
    frequency:    23.1155171289
  - # 9
    frequency:    23.1155171289
  - # 10
    frequency:    29.5908334855
  - # 11
    frequency:    29.5908334855
  - # 12
    frequency:    29.6026117171
  - # 13
    frequency:    29.6026117171
  - # 14
    frequency:    29.6290634722
  - # 15
    frequency:    29.6330825720
  - # 16
    frequency:    33.7556859786
  - # 17
    frequency:    34.0788045649
  - # 18
    frequency:    34.0788045649
  - # 19
    frequency:    34.3976558291
  - # 20
    frequency:    34.3976558291
  - # 21
    frequency:    34.7129772613
  - # 22
    frequency:    37.0232403571
  - # 23
    frequency:    37.0239294571
  - # 24
    frequency:    37.0429161268

- q-position: [    0.0520833,    0.0104167,    0.0104167 ]
  distance_from_gamma:  0.014928501
  weight: 24   
  band:
  - # 1
    frequency:     1.7583262486
  - # 2
    frequency:     1.7677273387
  - # 3
    frequency:     2.5354169594
  - # 4
    frequency:    22.9502148386
  - # 5
    frequency:    22.9622561718
  - # 6
    frequency:    23.1065446017
  - # 7
    frequency:    23.1065446017
  - # 8
    frequency:    23.1667565936
  - # 9
    frequency:    23.1667565936
  - # 10
    frequency:    29.5790024000
  - # 11
    frequency:    29.5790024000
  - # 12
    frequency:    29.5986424339
  - # 13
    frequency:    29.5986424339
  - # 14
    frequency:    29.6888220807
  - # 15
    frequency:    29.6930477569
  - # 16
    frequency:    33.4021474591
  - # 17
    frequency:    34.0528656718
  - # 18
    frequency:    34.0528656718
  - # 19
    frequency:    34.3711130396
  - # 20
    frequency:    34.3711130396
  - # 21
    frequency:    34.9981635669
  - # 22
    frequency:    37.0003038729
  - # 23
    frequency:    37.0010931641
  - # 24
    frequency:    37.0520056873

- q-position: [    0.0729167,    0.0104167,    0.0104167 ]
  distance_from_gamma:  0.020517263
  weight: 24   
  band:
  - # 1
    frequency:     2.4243889972
  - # 2
    frequency:     2.4309533582
  - # 3
    frequency:     3.4723467818
  - # 4
    frequency:    22.8314680817
  - # 5
    frequency:    22.8434575721
  - # 6
    frequency:    23.1531798659
  - # 7
    frequency:    23.1531798659
  - # 8
    frequency:    23.2370902944
  - # 9
    frequency:    23.2370902944
  - # 10
    frequency:    29.5630764752
  - # 11
    frequency:    29.5630764752
  - # 12
    frequency:    29.5905893682
  - # 13
    frequency:    29.5905893682
  - # 14
    frequency:    29.7760871045
  - # 15
    frequency:    29.7806768823
  - # 16
    frequency:    33.0311572458
  - # 17
    frequency:    34.0143825969
  - # 18
    frequency:    34.0143825969
  - # 19
    frequency:    34.3316808414
  - # 20
    frequency:    34.3316808414
  - # 21
    frequency:    35.2667474158
  - # 22
    frequency:    36.9659567636
  - # 23
    frequency:    36.9667797102
  - # 24
    frequency:    37.0656009786

- q-position: [    0.0937500,    0.0104167,    0.0104167 ]
  distance_from_gamma:  0.026174198
  weight: 24   
  band:
  - # 1
    frequency:     3.0953488138
  - # 2
    frequency:     3.0998369605
  - # 3
    frequency:     4.4190607216
  - # 4
    frequency:    22.6769137529
  - # 5
    frequency:    22.6888407555
  - # 6
    frequency:    23.2187646375
  - # 7
    frequency:    23.2187646375
  - # 8
    frequency:    23.3259976868
  - # 9
    frequency:    23.3259976868
  - # 10
    frequency:    29.5428874898
  - # 11
    frequency:    29.5428874898
  - # 12
    frequency:    29.5782812422
  - # 13
    frequency:    29.5782812422
  - # 14
    frequency:    29.8883393097
  - # 15
    frequency:    29.8935412786
  - # 16
    frequency:    32.6426628416
  - # 17
    frequency:    33.9638688046
  - # 18
    frequency:    33.9638688046
  - # 19
    frequency:    34.2798206043
  - # 20
    frequency:    34.2798206043
  - # 21
    frequency:    35.5189552547
  - # 22
    frequency:    36.9202682925
  - # 23
    frequency:    36.9211108267
  - # 24
    frequency:    37.0834643658

- q-position: [    0.1145833,    0.0104167,    0.0104167 ]
  distance_from_gamma:  0.031863016
  weight: 24   
  band:
  - # 1
    frequency:     3.7669417071
  - # 2
    frequency:     3.7698466779
  - # 3
    frequency:     5.3679562763
  - # 4
    frequency:    22.4891463209
  - # 5
    frequency:    22.5010034639
  - # 6
    frequency:    23.3027245325
  - # 7
    frequency:    23.3027245325
  - # 8
    frequency:    23.4328119141
  - # 9
    frequency:    23.4328119141
  - # 10
    frequency:    29.5182105295
  - # 11
    frequency:    29.5182105295
  - # 12
    frequency:    29.5614822752
  - # 13
    frequency:    29.5614822752
  - # 14
    frequency:    30.0226220890
  - # 15
    frequency:    30.0288792883
  - # 16
    frequency:    32.2367276605
  - # 17
    frequency:    33.9020138214
  - # 18
    frequency:    33.9020138214
  - # 19
    frequency:    34.2161522692
  - # 20
    frequency:    34.2161522692
  - # 21
    frequency:    35.7550326393
  - # 22
    frequency:    36.8633310108
  - # 23
    frequency:    36.8641893671
  - # 24
    frequency:    37.1053413731

- q-position: [    0.1354167,    0.0104167,    0.0104167 ]
  distance_from_gamma:  0.037569238
  weight: 24   
  band:
  - # 1
    frequency:     4.4372314443
  - # 2
    frequency:     4.4388626455
  - # 3
    frequency:     6.3154271531
  - # 4
    frequency:    22.2708160039
  - # 5
    frequency:    22.2825981458
  - # 6
    frequency:    23.4043333237
  - # 7
    frequency:    23.4043333237
  - # 8
    frequency:    23.5567252925
  - # 9
    frequency:    23.5567252925
  - # 10
    frequency:    29.4887629435
  - # 11
    frequency:    29.4887629435
  - # 12
    frequency:    29.5398883653
  - # 13
    frequency:    29.5398883653
  - # 14
    frequency:    30.1755825680
  - # 15
    frequency:    30.1838366327
  - # 16
    frequency:    31.8137334504
  - # 17
    frequency:    33.8296866891
  - # 18
    frequency:    33.8296866891
  - # 19
    frequency:    34.1414580011
  - # 20
    frequency:    34.1414580011
  - # 21
    frequency:    35.9752425650
  - # 22
    frequency:    36.7952609186
  - # 23
    frequency:    36.7961343423
  - # 24
    frequency:    37.1309280747

- q-position: [    0.1562500,    0.0104167,    0.0104167 ]
  distance_from_gamma:  0.043285981
  weight: 24   
  band:
  - # 1
    frequency:     5.1050432909
  - # 2
    frequency:     5.1056033697
  - # 3
    frequency:     7.2593080900
  - # 4
    frequency:    22.0244531569
  - # 5
    frequency:    22.0361561563
  - # 6
    frequency:    23.5227160769
  - # 7
    frequency:    23.5227160769
  - # 8
    frequency:    23.6967948031
  - # 9
    frequency:    23.6967948031
  - # 10
    frequency:    29.4542043370
  - # 11
    frequency:    29.4542043370
  - # 12
    frequency:    29.5131239321
  - # 13
    frequency:    29.5131239321
  - # 14
    frequency:    30.3426968573
  - # 15
    frequency:    30.3556451365
  - # 16
    frequency:    31.3753351458
  - # 17
    frequency:    33.7479391582
  - # 18
    frequency:    33.7479391582
  - # 19
    frequency:    34.0566860815
  - # 20
    frequency:    34.0566860815
  - # 21
    frequency:    36.1798653990
  - # 22
    frequency:    36.7161976546
  - # 23
    frequency:    36.7170864534
  - # 24
    frequency:    37.1598685019

- q-position: [    0.1770833,    0.0104167,    0.0104167 ]
  distance_from_gamma:  0.049009563
  weight: 24   
  band:
  - # 1
    frequency:     5.7691408662
  - # 2
    frequency:     5.7695124085
  - # 3
    frequency:     8.1980599490
  - # 4
    frequency:    21.7523612566
  - # 5
    frequency:    21.7639808421
  - # 6
    frequency:    23.6568515280
  - # 7
    frequency:    23.6568515280
  - # 8
    frequency:    23.8519468979
  - # 9
    frequency:    23.8519468979
  - # 10
    frequency:    29.4141389154
  - # 11
    frequency:    29.4141389154
  - # 12
    frequency:    29.4807406627
  - # 13
    frequency:    29.4807406627
  - # 14
    frequency:    30.5084963713
  - # 15
    frequency:    30.5417333147
  - # 16
    frequency:    30.9343459996
  - # 17
    frequency:    33.6580075958
  - # 18
    frequency:    33.6580075958
  - # 19
    frequency:    33.9629544058
  - # 20
    frequency:    33.9629544058
  - # 21
    frequency:    36.3691992163
  - # 22
    frequency:    36.6263047051
  - # 23
    frequency:    36.6272095793
  - # 24
    frequency:    37.1917565543

- q-position: [    0.1979167,    0.0104167,    0.0104167 ]
  distance_from_gamma:  0.054737839
  weight: 24   
  band:
  - # 1
    frequency:     6.4287178446
  - # 2
    frequency:     6.4299204032
  - # 3
    frequency:     9.1304571090
  - # 4
    frequency:    21.4565681331
  - # 5
    frequency:    21.4680990294
  - # 6
    frequency:    23.8055727110
  - # 7
    frequency:    23.8055727110
  - # 8
    frequency:    24.0209807567
  - # 9
    frequency:    24.0209807567
  - # 10
    frequency:    29.3681220580
  - # 11
    frequency:    29.3681220580
  - # 12
    frequency:    29.4422199780
  - # 13
    frequency:    29.4422199780
  - # 14
    frequency:    30.3850067919
  - # 15
    frequency:    30.7397790931
  - # 16
    frequency:    30.7763520248
  - # 17
    frequency:    33.5613121301
  - # 18
    frequency:    33.5613121301
  - # 19
    frequency:    33.8615526572
  - # 20
    frequency:    33.8615526572
  - # 21
    frequency:    36.5257696254
  - # 22
    frequency:    36.5266914011
  - # 23
    frequency:    36.5435603095
  - # 24
    frequency:    37.2261391695

- q-position: [    0.2187500,    0.0104167,    0.0104167 ]
  distance_from_gamma:  0.060469475
  weight: 24   
  band:
  - # 1
    frequency:     7.0836684779
  - # 2
    frequency:     7.0856263810
  - # 3
    frequency:    10.0554509286
  - # 4
    frequency:    21.1388187752
  - # 5
    frequency:    21.1502541262
  - # 6
    frequency:    23.9675645440
  - # 7
    frequency:    23.9675645440
  - # 8
    frequency:    24.2025688918
  - # 9
    frequency:    24.2025688918
  - # 10
    frequency:    29.3156737258
  - # 11
    frequency:    29.3156737258
  - # 12
    frequency:    29.3969817623
  - # 13
    frequency:    29.3969817623
  - # 14
    frequency:    29.9112414998
  - # 15
    frequency:    30.9477212541
  - # 16
    frequency:    30.9602306859
  - # 17
    frequency:    33.4594510240
  - # 18
    frequency:    33.4594510240
  - # 19
    frequency:    33.7539418598
  - # 20
    frequency:    33.7539418598
  - # 21
    frequency:    36.4148042617
  - # 22
    frequency:    36.4157437801
  - # 23
    frequency:    36.7032837858
  - # 24
    frequency:    37.2625200636

- q-position: [    0.2395833,    0.0104167,    0.0104167 ]
  distance_from_gamma:  0.066203598
  weight: 24   
  band:
  - # 1
    frequency:     7.7333804314
  - # 2
    frequency:     7.7360345464
  - # 3
    frequency:    10.9721042132
  - # 4
    frequency:    20.8005936321
  - # 5
    frequency:    20.8119246943
  - # 6
    frequency:    24.1413566497
  - # 7
    frequency:    24.1413566497
  - # 8
    frequency:    24.3952536228
  - # 9
    frequency:    24.3952536228
  - # 10
    frequency:    29.2563022047
  - # 11
    frequency:    29.2563022047
  - # 12
    frequency:    29.3444027650
  - # 13
    frequency:    29.3444027650
  - # 14
    frequency:    29.4002170165
  - # 15
    frequency:    31.1637455977
  - # 16
    frequency:    31.1711223702
  - # 17
    frequency:    33.3541877626
  - # 18
    frequency:    33.3541877626
  - # 19
    frequency:    33.6417496422
  - # 20
    frequency:    33.6417496422
  - # 21
    frequency:    36.2936449659
  - # 22
    frequency:    36.2946030443
  - # 23
    frequency:    36.8487242043
  - # 24
    frequency:    37.3003638143

- q-position: [    0.2604167,    0.0104167,    0.0104167 ]
  distance_from_gamma:  0.071939614
  weight: 24   
  band:
  - # 1
    frequency:     8.3772752780
  - # 2
    frequency:     8.3805777547
  - # 3
    frequency:    11.8795575032
  - # 4
    frequency:    20.4431399513
  - # 5
    frequency:    20.4543560019
  - # 6
    frequency:    24.3253090064
  - # 7
    frequency:    24.3253090064
  - # 8
    frequency:    24.5974373316
  - # 9
    frequency:    24.5974373316
  - # 10
    frequency:    28.8678989932
  - # 11
    frequency:    29.1895427140
  - # 12
    frequency:    29.1895427140
  - # 13
    frequency:    29.2838490342
  - # 14
    frequency:    29.2838490342
  - # 15
    frequency:    31.3862581937
  - # 16
    frequency:    31.3914585099
  - # 17
    frequency:    33.2474280173
  - # 18
    frequency:    33.2474280173
  - # 19
    frequency:    33.5267592367
  - # 20
    frequency:    33.5267592367
  - # 21
    frequency:    36.1625527911
  - # 22
    frequency:    36.1635302248
  - # 23
    frequency:    36.9802562175
  - # 24
    frequency:    37.3391001711

- q-position: [    0.2812500,    0.0104167,    0.0104167 ]
  distance_from_gamma:  0.077677103
  weight: 24   
  band:
  - # 1
    frequency:     9.0147978572
  - # 2
    frequency:     9.0187087139
  - # 3
    frequency:    12.7770108323
  - # 4
    frequency:    20.0675077627
  - # 5
    frequency:    20.0785961593
  - # 6
    frequency:    24.5175869585
  - # 7
    frequency:    24.5175869585
  - # 8
    frequency:    24.8073633597
  - # 9
    frequency:    24.8073633597
  - # 10
    frequency:    28.3162699240
  - # 11
    frequency:    29.1150165441
  - # 12
    frequency:    29.1150165441
  - # 13
    frequency:    29.2147277375
  - # 14
    frequency:    29.2147277375
  - # 15
    frequency:    31.6138540331
  - # 16
    frequency:    31.6178634838
  - # 17
    frequency:    33.1411837894
  - # 18
    frequency:    33.1411837894
  - # 19
    frequency:    33.4108902029
  - # 20
    frequency:    33.4108902029
  - # 21
    frequency:    36.0218136588
  - # 22
    frequency:    36.0228112496
  - # 23
    frequency:    37.0982751851
  - # 24
    frequency:    37.3781285086

- q-position: [    0.3020833,    0.0104167,    0.0104167 ]
  distance_from_gamma:  0.083415762
  weight: 24   
  band:
  - # 1
    frequency:     9.6454103018
  - # 2
    frequency:     9.6498951343
  - # 3
    frequency:    13.6637134991
  - # 4
    frequency:    19.6745854771
  - # 5
    frequency:    19.6855318166
  - # 6
    frequency:    24.7161204091
  - # 7
    frequency:    24.7161204091
  - # 8
    frequency:    25.0230825924
  - # 9
    frequency:    25.0230825924
  - # 10
    frequency:    27.7459033549
  - # 11
    frequency:    29.0325175968
  - # 12
    frequency:    29.0325175968
  - # 13
    frequency:    29.1365647914
  - # 14
    frequency:    29.1365647914
  - # 15
    frequency:    31.8452860308
  - # 16
    frequency:    31.8485504628
  - # 17
    frequency:    33.0375229327
  - # 18
    frequency:    33.0375229327
  - # 19
    frequency:    33.2961692986
  - # 20
    frequency:    33.2961692986
  - # 21
    frequency:    35.8717384900
  - # 22
    frequency:    35.8727570963
  - # 23
    frequency:    37.2031977326
  - # 24
    frequency:    37.4168223505

- q-position: [    0.3229167,    0.0104167,    0.0104167 ]
  distance_from_gamma:  0.089155364
  weight: 24   
  band:
  - # 1
    frequency:    10.2685886387
  - # 2
    frequency:    10.2736170411
  - # 3
    frequency:    14.5389581955
  - # 4
    frequency:    19.2651324527
  - # 5
    frequency:    19.2759207854
  - # 6
    frequency:    24.9185393179
  - # 7
    frequency:    24.9185393179
  - # 8
    frequency:    25.2423975804
  - # 9
    frequency:    25.2423975804
  - # 10
    frequency:    27.1570629993
  - # 11
    frequency:    28.9421346419
  - # 12
    frequency:    28.9421346419
  - # 13
    frequency:    29.0491162329
  - # 14
    frequency:    29.0491162329
  - # 15
    frequency:    32.0794369583
  - # 16
    frequency:    32.0821953439
  - # 17
    frequency:    32.9385041420
  - # 18
    frequency:    32.9385041420
  - # 19
    frequency:    33.1846910888
  - # 20
    frequency:    33.1846910888
  - # 21
    frequency:    35.7126632927
  - # 22
    frequency:    35.7137038978
  - # 23
    frequency:    37.2954622254
  - # 24
    frequency:    37.4545339020

- q-position: [    0.3437500,    0.0104167,    0.0104167 ]
  distance_from_gamma:  0.094895738
  weight: 24   
  band:
  - # 1
    frequency:    10.8838208727
  - # 2
    frequency:    10.8893653202
  - # 3
    frequency:    15.4020775868
  - # 4
    frequency:    18.8398073960
  - # 5
    frequency:    18.8504204635
  - # 6
    frequency:    25.1220735304
  - # 7
    frequency:    25.1220735304
  - # 8
    frequency:    25.4627704092
  - # 9
    frequency:    25.4627704092
  - # 10
    frequency:    26.5499259380
  - # 11
    frequency:    28.8444196867
  - # 12
    frequency:    28.8444196867
  - # 13
    frequency:    28.9525242405
  - # 14
    frequency:    28.9525242405
  - # 15
    frequency:    32.3152953747
  - # 16
    frequency:    32.3176906369
  - # 17
    frequency:    32.8461002645
  - # 18
    frequency:    32.8461002645
  - # 19
    frequency:    33.0785698757
  - # 20
    frequency:    33.0785698757
  - # 21
    frequency:    35.5449492011
  - # 22
    frequency:    35.5460130005
  - # 23
    frequency:    37.3755291318
  - # 24
    frequency:    37.4905985294

- q-position: [    0.3645833,    0.0104167,    0.0104167 ]
  distance_from_gamma:  0.100636752
  weight: 24   
  band:
  - # 1
    frequency:    11.4906059402
  - # 2
    frequency:    11.4966409846
  - # 3
    frequency:    16.2524423035
  - # 4
    frequency:    18.3991923512
  - # 5
    frequency:    18.4096118268
  - # 6
    frequency:    25.3233993563
  - # 7
    frequency:    25.3233993563
  - # 8
    frequency:    25.6811707146
  - # 9
    frequency:    25.6811707146
  - # 10
    frequency:    25.9246491709
  - # 11
    frequency:    28.7406161811
  - # 12
    frequency:    28.7406161811
  - # 13
    frequency:    28.8475352315
  - # 14
    frequency:    28.8475352315
  - # 15
    frequency:    32.5519357483
  - # 16
    frequency:    32.5540602066
  - # 17
    frequency:    32.7621158660
  - # 18
    frequency:    32.7621158660
  - # 19
    frequency:    32.9798871159
  - # 20
    frequency:    32.9798871159
  - # 21
    frequency:    35.3689824683
  - # 22
    frequency:    35.3700709759
  - # 23
    frequency:    37.4438812484
  - # 24
    frequency:    37.5243391339

- q-position: [    0.3854167,    0.0104167,    0.0104167 ]
  distance_from_gamma:  0.106378303
  weight: 24   
  band:
  - # 1
    frequency:    12.0884531713
  - # 2
    frequency:    12.0949548508
  - # 3
    frequency:    17.0894597444
  - # 4
    frequency:    17.9438125049
  - # 5
    frequency:    17.9540192199
  - # 6
    frequency:    25.2813948335
  - # 7
    frequency:    25.5184097898
  - # 8
    frequency:    25.5184097898
  - # 9
    frequency:    25.8938240861
  - # 10
    frequency:    25.8938240861
  - # 11
    frequency:    28.6329648192
  - # 12
    frequency:    28.6329648192
  - # 13
    frequency:    28.7358103874
  - # 14
    frequency:    28.7358103874
  - # 15
    frequency:    32.6881073851
  - # 16
    frequency:    32.6881073851
  - # 17
    frequency:    32.7885024996
  - # 18
    frequency:    32.7904192653
  - # 19
    frequency:    32.8906408651
  - # 20
    frequency:    32.8906408651
  - # 21
    frequency:    35.1851744157
  - # 22
    frequency:    35.1862895903
  - # 23
    frequency:    37.5010237612
  - # 24
    frequency:    37.5550703738

- q-position: [    0.4062500,    0.0104167,    0.0104167 ]
  distance_from_gamma:  0.112120308
  weight: 24   
  band:
  - # 1
    frequency:    12.6768820233
  - # 2
    frequency:    12.6838274251
  - # 3
    frequency:    17.4741522447
  - # 4
    frequency:    17.4841263931
  - # 5
    frequency:    17.9125733399
  - # 6
    frequency:    24.6203416115
  - # 7
    frequency:    25.7018877595
  - # 8
    frequency:    25.7018877595
  - # 9
    frequency:    26.0957990231
  - # 10
    frequency:    26.0957990231
  - # 11
    frequency:    28.5251027924
  - # 12
    frequency:    28.5251027924
  - # 13
    frequency:    28.6203788692
  - # 14
    frequency:    28.6203788692
  - # 15
    frequency:    32.6253152249
  - # 16
    frequency:    32.6253152249
  - # 17
    frequency:    32.8127043985
  - # 18
    frequency:    32.8127043985
  - # 19
    frequency:    33.0241974895
  - # 20
    frequency:    33.0259515876
  - # 21
    frequency:    34.9939613508
  - # 22
    frequency:    34.9951057473
  - # 23
    frequency:    37.5474841174
  - # 24
    frequency:    37.5821026891

- q-position: [    0.4270833,    0.0104167,    0.0104167 ]
  distance_from_gamma:  0.117862701
  weight: 24   
  band:
  - # 1
    frequency:    13.2554219164
  - # 2
    frequency:    13.2627888520
  - # 3
    frequency:    16.9906679870
  - # 4
    frequency:    17.0003893017
  - # 5
    frequency:    18.7212620564
  - # 6
    frequency:    23.9416907272
  - # 7
    frequency:    25.8670988037
  - # 8
    frequency:    25.8670988037
  - # 9
    frequency:    26.2803607955
  - # 10
    frequency:    26.2803607955
  - # 11
    frequency:    28.4225369827
  - # 12
    frequency:    28.4225369827
  - # 13
    frequency:    28.5062953247
  - # 14
    frequency:    28.5062953247
  - # 15
    frequency:    32.5746174672
  - # 16
    frequency:    32.5746174672
  - # 17
    frequency:    32.7477976716
  - # 18
    frequency:    32.7477976716
  - # 19
    frequency:    33.2582704136
  - # 20
    frequency:    33.2598950159
  - # 21
    frequency:    34.7958044758
  - # 22
    frequency:    34.7969814233
  - # 23
    frequency:    37.5838116845
  - # 24
    frequency:    37.6047460980

- q-position: [    0.4479167,    0.0104167,    0.0104167 ]
  distance_from_gamma:  0.123605428
  weight: 24   
  band:
  - # 1
    frequency:    13.8236120368
  - # 2
    frequency:    13.8313788012
  - # 3
    frequency:    16.4937982811
  - # 4
    frequency:    16.5032461779
  - # 5
    frequency:    19.5150400045
  - # 6
    frequency:    23.2456695009
  - # 7
    frequency:    26.0054572901
  - # 8
    frequency:    26.0054572901
  - # 9
    frequency:    26.4381143269
  - # 10
    frequency:    26.4381143269
  - # 11
    frequency:    28.3330204462
  - # 12
    frequency:    28.3330204462
  - # 13
    frequency:    28.4014906686
  - # 14
    frequency:    28.4014906686
  - # 15
    frequency:    32.5365174177
  - # 16
    frequency:    32.5365174177
  - # 17
    frequency:    32.6974650422
  - # 18
    frequency:    32.6974650422
  - # 19
    frequency:    33.4900115809
  - # 20
    frequency:    33.4915317161
  - # 21
    frequency:    34.5911898151
  - # 22
    frequency:    34.5924036318
  - # 23
    frequency:    37.6105771730
  - # 24
    frequency:    37.6223137317

- q-position: [    0.4687500,    0.0104167,    0.0104167 ]
  distance_from_gamma:  0.129348443
  weight: 24   
  band:
  - # 1
    frequency:    14.3810009839
  - # 2
    frequency:    14.3891461814
  - # 3
    frequency:    15.9839716554
  - # 4
    frequency:    15.9931253438
  - # 5
    frequency:    20.2934560629
  - # 6
    frequency:    22.5325337048
  - # 7
    frequency:    26.1067489536
  - # 8
    frequency:    26.1067489536
  - # 9
    frequency:    26.5564404418
  - # 10
    frequency:    26.5564404418
  - # 11
    frequency:    28.2662101487
  - # 12
    frequency:    28.2662101487
  - # 13
    frequency:    28.3174555819
  - # 14
    frequency:    28.3174555819
  - # 15
    frequency:    32.5111840631
  - # 16
    frequency:    32.5111840631
  - # 17
    frequency:    32.6630358392
  - # 18
    frequency:    32.6630358392
  - # 19
    frequency:    33.7187466014
  - # 20
    frequency:    33.7201814782
  - # 21
    frequency:    34.3806282105
  - # 22
    frequency:    34.3818844635
  - # 23
    frequency:    37.6283718033
  - # 24
    frequency:    37.6341250877

- q-position: [    0.4895833,    0.0104167,    0.0104167 ]
  distance_from_gamma:  0.135091711
  weight: 24   
  band:
  - # 1
    frequency:    14.9271461376
  - # 2
    frequency:    14.9356485619
  - # 3
    frequency:    15.4616126140
  - # 4
    frequency:    15.4704511743
  - # 5
    frequency:    21.0560934570
  - # 6
    frequency:    21.8025692491
  - # 7
    frequency:    26.1607735749
  - # 8
    frequency:    26.1607735749
  - # 9
    frequency:    26.6209283367
  - # 10
    frequency:    26.6209283367
  - # 11
    frequency:    28.2310803409
  - # 12
    frequency:    28.2310803409
  - # 13
    frequency:    28.2687287824
  - # 14
    frequency:    28.2687287824
  - # 15
    frequency:    32.4985661215
  - # 16
    frequency:    32.4985661215
  - # 17
    frequency:    32.6455341411
  - # 18
    frequency:    32.6455341411
  - # 19
    frequency:    33.9438325759
  - # 20
    frequency:    33.9451971043
  - # 21
    frequency:    34.1646554443
  - # 22
    frequency:    34.1659612732
  - # 23
    frequency:    37.6378061979
  - # 24
    frequency:    37.6395089830

- q-position: [    0.0312500,    0.0312500,    0.0104167 ]
  distance_from_gamma:  0.012523079
  weight: 24   
  band:
  - # 1
    frequency:     1.4306996834
  - # 2
    frequency:     1.4793539677
  - # 3
    frequency:     2.1596468523
  - # 4
    frequency:    23.0384385774
  - # 5
    frequency:    23.0384385774
  - # 6
    frequency:    23.0626771920
  - # 7
    frequency:    23.0746441073
  - # 8
    frequency:    23.0746441073
  - # 9
    frequency:    23.1712047413
  - # 10
    frequency:    29.5751969473
  - # 11
    frequency:    29.6104910168
  - # 12
    frequency:    29.6209106088
  - # 13
    frequency:    29.6209106088
  - # 14
    frequency:    29.6330412583
  - # 15
    frequency:    29.6330412583
  - # 16
    frequency:    33.7445105542
  - # 17
    frequency:    33.7445105542
  - # 18
    frequency:    34.0620183911
  - # 19
    frequency:    34.3880424070
  - # 20
    frequency:    34.6983230677
  - # 21
    frequency:    34.6983230677
  - # 22
    frequency:    37.0120660607
  - # 23
    frequency:    37.0165158679
  - # 24
    frequency:    37.0432085936

- q-position: [    0.0520833,    0.0312500,    0.0104167 ]
  distance_from_gamma:  0.016996847
  weight: 48   
  band:
  - # 1
    frequency:     1.9549118963
  - # 2
    frequency:     2.0128078561
  - # 3
    frequency:     2.9150639454
  - # 4
    frequency:    22.9577055057
  - # 5
    frequency:    22.9938496087
  - # 6
    frequency:    23.0655523598
  - # 7
    frequency:    23.0657273039
  - # 8
    frequency:    23.1258077420
  - # 9
    frequency:    23.2460155931
  - # 10
    frequency:    29.5556465985
  - # 11
    frequency:    29.6084752717
  - # 12
    frequency:    29.6144165176
  - # 13
    frequency:    29.6289719884
  - # 14
    frequency:    29.6799815416
  - # 15
    frequency:    29.6929152254
  - # 16
    frequency:    33.3930379937
  - # 17
    frequency:    33.7223500839
  - # 18
    frequency:    34.0288874706
  - # 19
    frequency:    34.3686952481
  - # 20
    frequency:    34.6691520445
  - # 21
    frequency:    34.9826550632
  - # 22
    frequency:    36.9893229839
  - # 23
    frequency:    36.9958118681
  - # 24
    frequency:    37.0500482796

- q-position: [    0.0729167,    0.0312500,    0.0104167 ]
  distance_from_gamma:  0.022067866
  weight: 48   
  band: