       N       E                     dE             d eps       ncg     rms          rms(c)
DAV:   1     0.497955301916E+03    0.49796E+03   -0.11305E+05  7680   0.106E+03
DAV:   2    -0.556000718528E+03   -0.10540E+04   -0.10047E+04 10176   0.228E+02
DAV:   3    -0.597909038984E+03   -0.41908E+02   -0.41657E+02 10176   0.426E+01
DAV:   4    -0.598393726582E+03   -0.48469E+00   -0.48381E+00 10304   0.501E+00
DAV:   5    -0.598403466655E+03   -0.97401E-02   -0.97363E-02  9664   0.668E-01    0.253E+01
DAV:   6    -0.585398910204E+03    0.13005E+02   -0.86875E+00  9024   0.584E+00    0.140E+01
DAV:   7    -0.581000995806E+03    0.43979E+01   -0.10066E+01  9344   0.648E+00    0.192E+00
DAV:   8    -0.581056393176E+03   -0.55397E-01   -0.22971E-01  9600   0.951E-01    0.208E-01
DAV:   9    -0.581058563566E+03   -0.21704E-02   -0.36395E-03 10016   0.143E-01    0.780E-02
DAV:  10    -0.581059032543E+03   -0.46898E-03   -0.43440E-04  9376   0.545E-02    0.786E-03
DAV:  11    -0.581059036600E+03   -0.40571E-05   -0.11607E-05 10048   0.778E-03    0.206E-03
DAV:  12    -0.581059036836E+03   -0.23645E-06   -0.50756E-07  9792   0.171E-03    0.178E-04
DAV:  13    -0.581059036947E+03   -0.11098E-06   -0.71325E-09  7488   0.214E-04    0.448E-05
DAV:  14    -0.581059036960E+03   -0.12780E-07   -0.11131E-09  6656   0.771E-05    0.173E-05
DAV:  15    -0.581059036959E+03    0.66029E-09   -0.28315E-10  5952   0.378E-05
   1 F= -.58105904E+03 E0= -.58105904E+03  d E =-.121099E-11
 Linear response reoptimize wavefunctions
DAV:   1    -0.581059036960E+03   -0.97043E-09   -0.57826E-11  5728   0.185E-05
DAV:   2    -0.581059036960E+03    0.11642E-09   -0.11697E-11  5760   0.964E-06
DAV:   3    -0.581059036960E+03    0.28194E-10   -0.11525E-12  5728   0.511E-06
 Linear response DOF=           1
 Linear response progress:
  Degree of freedom:   1/  1
       N       E                     dE             d eps       ncg     rms          rms(c)
RMM:   1    -0.142630497462E+00   -0.14263E+00    0.69643E-03 55761   0.718E-01
RMM:   2    -0.122240250658E+00    0.20390E-01   -0.71180E-03 33965   0.183E-01    0.169E-01
RMM:   3    -0.122130917580E+00    0.10933E-03   -0.78780E-04 35592   0.467E-02    0.866E-02
RMM:   4    -0.122363142097E+00   -0.23222E-03   -0.21512E-04 35768   0.253E-02    0.266E-02
RMM:   5    -0.122434968675E+00   -0.71827E-04   -0.15099E-05 36200   0.721E-03    0.641E-03
RMM:   6    -0.122417852146E+00    0.17117E-04   -0.11002E-06 36758   0.190E-03    0.135E-03
RMM:   7    -0.122409150613E+00    0.87015E-05   -0.10721E-07 36994   0.618E-04    0.373E-04
RMM:   8    -0.122408733022E+00    0.41759E-06   -0.14121E-07 37897   0.252E-04    0.875E-05
RMM:   9    -0.122408492997E+00    0.24002E-06   -0.16122E-07 39224   0.147E-04    0.378E-05
RMM:  10    -0.122408571419E+00   -0.78422E-07   -0.16274E-07 40361   0.135E-04    0.111E-05
RMM:  11    -0.122408576646E+00   -0.52267E-08   -0.15643E-07 41433   0.130E-04    0.446E-06
RMM:  12    -0.122408588142E+00   -0.11496E-07   -0.15003E-07 41845   0.129E-04    0.194E-06
 Linear response finished
