 vasp.5.4.4.18Apr17-6-g9f103f2a35 (build Mar 12 2022 03:36:41) complex          
  
 executed on IFC19.0.3.199_CrayMP date 2022.12.02  02:09:50
 running on   32 total cores
 distrk:  each k-point on   32 cores,    1 groups
 distr:  one band on NCORES_PER_BAND=   1 cores,   32 groups


--------------------------------------------------------------------------------------------------------


 INCAR:
 POTCAR:   PAW_PBE C 08Apr2002                    

 ----------------------------------------------------------------------------- 
|                                                                             |
|           W    W    AA    RRRRR   N    N  II  N    N   GGGG   !!!           |
|           W    W   A  A   R    R  NN   N  II  NN   N  G    G  !!!           |
|           W    W  A    A  R    R  N N  N  II  N N  N  G       !!!           |
|           W WW W  AAAAAA  RRRRR   N  N N  II  N  N N  G  GGG   !            |
|           WW  WW  A    A  R   R   N   NN  II  N   NN  G    G                |
|           W    W  A    A  R    R  N    N  II  N    N   GGGG   !!!           |
|                                                                             |
|      For optimal performance we recommend to set                            |
|        NCORE= 4 - approx SQRT( number of cores)                             |
|      NCORE specifies how many cores store one orbital (NPAR=cpu/NCORE).     |
|      This setting can  greatly improve the performance of VASP for DFT.     |
|      The default,   NCORE=1            might be grossly inefficient         |
|      on modern multi-core architectures or massively parallel machines.     |
|      Do your own testing !!!!                                               |
|      Unfortunately you need to use the default for GW and RPA calculations. |
|      (for HF NCORE is supported but not extensively tested yet)             |
|                                                                             |
 ----------------------------------------------------------------------------- 

 POTCAR:   PAW_PBE C 08Apr2002                    
   VRHFIN =C: s2p2                                                              
   LEXCH  = PE                                                                  
   EATOM  =   147.1560 eV,   10.8157 Ry                                         
                                                                                
   TITEL  = PAW_PBE C 08Apr2002                                                 
   LULTRA =        F    use ultrasoft PP ?                                      
   IUNSCR =        0    unscreen: 0-lin 1-nonlin 2-no                           
   RPACOR =     .000    partial core radius                                     
   POMASS =   12.011; ZVAL   =    4.000    mass and valenz                      
   RCORE  =    1.500    outmost cutoff radius                                   
   RWIGS  =    1.630; RWIGS  =     .863    wigner-seitz radius (au A)           
   ENMAX  =  400.000; ENMIN  =  300.000 eV                                      
   ICORE  =        2    local potential                                         
   LCOR   =        T    correct aug charges                                     
   LPAW   =        T    paw PP                                                  
   EAUG   =  644.873                                                            
   DEXC   =     .000                                                            
   RMAX   =    2.266    core radius for proj-oper                               
   RAUG   =    1.300    factor for augmentation sphere                          
   RDEP   =    1.501    radius for radial grids                                 
   RDEPT  =    1.300    core radius for aug-charge                              
   QCUT   =   -5.516; QGAM   =   11.032    optimization parameters              
                                                                                
   Description                                                                  
     l     E      TYP  RCUT    TYP  RCUT                                        
     0   .000     23  1.200                                                     
     0   .000     23  1.200                                                     
     1   .000     23  1.500                                                     
     1  2.500     23  1.500                                                     
     2   .000      7  1.500                                                     
  local pseudopotential read in
  atomic valenz-charges read in
  non local Contribution for L=           0  read in
    real space projection operators read in
  non local Contribution for L=           0  read in
    real space projection operators read in
  non local Contribution for L=           1  read in
    real space projection operators read in
  non local Contribution for L=           1  read in
    real space projection operators read in
    PAW grid and wavefunctions read in
 
   number of l-projection  operators is LMAX  =           4
   number of lm-projection operators is LMMAX =           8
 

 ----------------------------------------------------------------------------- 
|                                                                             |
|  ADVICE TO THIS USER RUNNING 'VASP/VAMP'   (HEAR YOUR MASTER'S VOICE ...):  |
|                                                                             |
|      You have a (more or less) 'large supercell' and for larger cells       |
|      it might be more efficient to use real space projection operators      |
|      So try LREAL= Auto  in the INCAR   file.                               |
|      Mind: If you want to do a very accurate calculations keep the          |
|      reciprocal projection scheme          (i.e. LREAL=.FALSE.)             |
|                                                                             |
 ----------------------------------------------------------------------------- 

 PAW_PBE C 08Apr2002                    :
 energy of atom  1       EATOM= -147.1560
 kinetic energy error for atom=    0.0288 (will be added to EATOM!!)
 
 
 POSCAR: generated by phonopy                    
  positions in direct lattice
  No initial velocities read in
 exchange correlation table for  LEXCH =        8
   RHO(1)=    0.500       N(1)  =     2000
   RHO(2)=  100.500       N(2)  =     4000
 


--------------------------------------------------------------------------------------------------------


 ion  position               nearest neighbor table
   1  0.125  0.375  0.125-  11 1.57  25 1.57  43 1.57  57 1.57
   2  0.625  0.375  0.125-  12 1.57  26 1.57  44 1.57  58 1.57
   3  0.125  0.875  0.125-   9 1.57  27 1.57  41 1.57  59 1.57
   4  0.625  0.875  0.125-  10 1.57  28 1.57  42 1.57  60 1.57
   5  0.125  0.375  0.625-  15 1.57  29 1.57  47 1.57  61 1.57
   6  0.625  0.375  0.625-  16 1.57  30 1.57  48 1.57  62 1.57
   7  0.125  0.875  0.625-  13 1.57  31 1.57  45 1.57  63 1.57
   8  0.625  0.875  0.625-  14 1.57  32 1.57  46 1.57  64 1.57
   9  0.000  0.000  0.250-   3 1.57  17 1.57  36 1.57  50 1.57
  10  0.500  0.000  0.250-   4 1.57  18 1.57  35 1.57  49 1.57
  11  0.000  0.500  0.250-   1 1.57  19 1.57  34 1.57  52 1.57
  12  0.500  0.500  0.250-   2 1.57  20 1.57  33 1.57  51 1.57
  13  0.000  0.000  0.750-   7 1.57  21 1.57  40 1.57  54 1.57
  14  0.500  0.000  0.750-   8 1.57  22 1.57  39 1.57  53 1.57
  15  0.000  0.500  0.750-   5 1.57  23 1.57  38 1.57  56 1.57
  16  0.500  0.500  0.750-   6 1.57  24 1.57  37 1.57  55 1.57
  17  0.125  0.125  0.375-   9 1.57  29 1.57  45 1.57  57 1.57
  18  0.625  0.125  0.375-  10 1.57  30 1.57  46 1.57  58 1.57
  19  0.125  0.625  0.375-  11 1.57  31 1.57  47 1.57  59 1.57
  20  0.625  0.625  0.375-  12 1.57  32 1.57  48 1.57  60 1.57
  21  0.125  0.125  0.875-  13 1.57  25 1.57  41 1.57  61 1.57
  22  0.625  0.125  0.875-  14 1.57  26 1.57  42 1.57  62 1.57
  23  0.125  0.625  0.875-  15 1.57  27 1.57  43 1.57  63 1.57
  24  0.625  0.625  0.875-  16 1.57  28 1.57  44 1.57  64 1.57
  25  0.000  0.250  0.000-   1 1.57  21 1.57  38 1.57  50 1.57
  26  0.500  0.250  0.000-   2 1.57  22 1.57  37 1.57  49 1.57
  27  0.000  0.750  0.000-   3 1.57  23 1.57  40 1.57  52 1.57
  28  0.500  0.750  0.000-   4 1.57  24 1.57  39 1.57  51 1.57
  29  0.000  0.250  0.500-   5 1.57  17 1.57  34 1.57  54 1.57
  30  0.500  0.250  0.500-   6 1.57  18 1.57  33 1.57  53 1.57
  31  0.000  0.750  0.500-   7 1.57  19 1.57  36 1.57  56 1.57
  32  0.500  0.750  0.500-   8 1.57  20 1.57  35 1.57  55 1.57
  33  0.375  0.375  0.375-  12 1.57  30 1.57  47 1.57  57 1.57
  34  0.875  0.375  0.375-  11 1.57  29 1.57  48 1.57  58 1.57
  35  0.375  0.875  0.375-  10 1.57  32 1.57  45 1.57  59 1.57
  36  0.875  0.875  0.375-   9 1.57  31 1.57  46 1.57  60 1.57
  37  0.375  0.375  0.875-  16 1.57  26 1.57  43 1.57  61 1.57
  38  0.875  0.375  0.875-  15 1.57  25 1.57  44 1.57  62 1.57
  39  0.375  0.875  0.875-  14 1.57  28 1.57  41 1.57  63 1.57
  40  0.875  0.875  0.875-  13 1.57  27 1.57  42 1.57  64 1.57
  41  0.250  0.000  0.000-   3 1.57  21 1.57  39 1.57  49 1.57
  42  0.750  0.000  0.000-   4 1.57  22 1.57  40 1.57  50 1.57
  43  0.250  0.500  0.000-   1 1.57  23 1.57  37 1.57  51 1.57
  44  0.750  0.500  0.000-   2 1.57  24 1.57  38 1.57  52 1.57
  45  0.250  0.000  0.500-   7 1.57  17 1.57  35 1.57  53 1.57
  46  0.750  0.000  0.500-   8 1.57  18 1.57  36 1.57  54 1.57
  47  0.250  0.500  0.500-   5 1.57  19 1.57  33 1.57  55 1.57
  48  0.750  0.500  0.500-   6 1.57  20 1.57  34 1.57  56 1.57
  49  0.375  0.125  0.125-  10 1.57  26 1.57  41 1.57  57 1.57
  50  0.875  0.125  0.125-   9 1.57  25 1.57  42 1.57  58 1.57
  51  0.375  0.625  0.125-  12 1.57  28 1.57  43 1.57  59 1.57
  52  0.875  0.625  0.125-  11 1.57  27 1.57  44 1.57  60 1.57
  53  0.375  0.125  0.625-  14 1.57  30 1.57  45 1.57  61 1.57
  54  0.875  0.125  0.625-  13 1.57  29 1.57  46 1.57  62 1.57
  55  0.375  0.625  0.625-  16 1.57  32 1.57  47 1.57  63 1.57
  56  0.875  0.625  0.625-  15 1.57  31 1.57  48 1.57  64 1.57
  57  0.250  0.250  0.250-   1 1.57  17 1.57  33 1.57  49 1.57
  58  0.750  0.250  0.250-   2 1.57  18 1.57  34 1.57  50 1.57
  59  0.250  0.750  0.250-   3 1.57  19 1.57  35 1.57  51 1.57
  60  0.750  0.750  0.250-   4 1.57  20 1.57  36 1.57  52 1.57
  61  0.250  0.250  0.750-   5 1.57  21 1.57  37 1.57  53 1.57
  62  0.750  0.250  0.750-   6 1.57  22 1.57  38 1.57  54 1.57
  63  0.250  0.750  0.750-   7 1.57  23 1.57  39 1.57  55 1.57
  64  0.750  0.750  0.750-   8 1.57  24 1.57  40 1.57  56 1.57
 
  LATTYP: Found a simple cubic cell.
 ALAT       =     7.2514428906
  
  Lattice vectors:
  
 A1 = (   7.2514428906,   0.0000000000,   0.0000000000)
 A2 = (   0.0000000000,   7.2514428906,   0.0000000000)
 A3 = (   0.0000000000,   0.0000000000,   7.2514428906)


Analysis of symmetry for initial positions (statically):
=====================================================================
 Subroutine PRICEL returns following result:
 
  LATTYP: Found a face centered cubic cell.
 ALAT       =     3.6257214453
  
  Lattice vectors:
  
 A1 = (   1.8128607227,   1.8128607227,   0.0000000000)
 A2 = (   1.8128607227,   0.0000000000,  -1.8128607227)
 A3 = (   0.0000000000,   1.8128607227,  -1.8128607227)
 
  32 primitive cells build up your supercell.
 

 Routine SETGRP: Setting up the symmetry group for a 
 simple cubic supercell.


 Subroutine GETGRP returns: Found 48 space group operations
 (whereof 24 operations were pure point group operations)
 out of a pool of 48 trial point group operations.


The static configuration has the point symmetry T_d .
 The point group associated with its full space group is O_h .


Analysis of symmetry for dynamics (positions and initial velocities):
=====================================================================
 Subroutine PRICEL returns following result:
 
  LATTYP: Found a face centered cubic cell.
 ALAT       =     3.6257214453
  
  Lattice vectors:
  
 A1 = (   1.8128607227,   1.8128607227,   0.0000000000)
 A2 = (   1.8128607227,   0.0000000000,  -1.8128607227)
 A3 = (   0.0000000000,   1.8128607227,  -1.8128607227)
 
  32 primitive cells build up your supercell.
 

 Routine SETGRP: Setting up the symmetry group for a 
 simple cubic supercell.


 Subroutine GETGRP returns: Found 48 space group operations
 (whereof 24 operations were pure point group operations)
 out of a pool of 48 trial point group operations.


The dynamic configuration has the point symmetry T_d .
 The point group associated with its full space group is O_h .


 Subroutine INISYM returns: Found 48 space group operations
 (whereof 24 operations are pure point group operations),
 and found    32 'primitive' translations

 
 
 KPOINTS: kpt_density=3000                        

Automatic generation of k-mesh.
Space group operators:
 irot       det(A)        alpha          n_x          n_y          n_z        tau_x        tau_y        tau_z
    1     1.000000     0.000001     1.000000     0.000000     0.000000     0.000000     0.000000     0.000000
    2     1.000000   120.000000    -0.577350    -0.577350    -0.577350     0.000000     0.000000     0.000000
    3     1.000000   120.000000     0.577350     0.577350     0.577350     0.000000     0.000000     0.000000
    4    -1.000000    90.000000     0.000000     0.000000    -1.000000     0.000000     0.000000     0.000000
    5    -1.000000   180.000000     0.000000     0.707107     0.707107     0.000000     0.000000     0.000000
    6    -1.000000    90.000000     0.000000     1.000000     0.000000     0.000000     0.000000     0.000000
    7     1.000000   180.000000     0.000000     0.000000     1.000000     0.000000     0.000000     0.000000
    8     1.000000   120.000000    -0.577350     0.577350     0.577350     0.000000     0.000000     0.000000
    9     1.000000   120.000000    -0.577350     0.577350    -0.577350     0.000000     0.000000     0.000000
   10    -1.000000    90.000000     0.000000     0.000000     1.000000     0.000000     0.000000     0.000000
   11    -1.000000    90.000000    -1.000000     0.000000     0.000000     0.000000     0.000000     0.000000
   12    -1.000000   180.000000     0.707107     0.000000     0.707107     0.000000     0.000000     0.000000
   13     1.000000   120.000000     0.577350    -0.577350     0.577350     0.000000     0.000000     0.000000
   14     1.000000   120.000000    -0.577350    -0.577350     0.577350     0.000000     0.000000     0.000000
   15     1.000000   180.000000     1.000000     0.000000     0.000000     0.000000     0.000000     0.000000
   16    -1.000000    90.000000     0.000000    -1.000000     0.000000     0.000000     0.000000     0.000000
   17    -1.000000   180.000000     0.707107     0.707107     0.000000     0.000000     0.000000     0.000000
   18    -1.000000    90.000000     1.000000     0.000000     0.000000     0.000000     0.000000     0.000000
   19     1.000000   120.000000     0.577350    -0.577350    -0.577350     0.000000     0.000000     0.000000
   20     1.000000   180.000000     0.000000     1.000000     0.000000     0.000000     0.000000     0.000000
   21     1.000000   120.000000     0.577350     0.577350    -0.577350     0.000000     0.000000     0.000000
   22    -1.000000   180.000000     0.000000    -0.707107     0.707107     0.000000     0.000000     0.000000
   23    -1.000000   180.000000     0.707107    -0.707107     0.000000     0.000000     0.000000     0.000000
   24    -1.000000   180.000000     0.707107     0.000000    -0.707107     0.000000     0.000000     0.000000
   25    -1.000000     0.000001     1.000000     0.000000     0.000000     0.375000     0.375000    -0.375000
   26    -1.000000   120.000000    -0.577350    -0.577350    -0.577350     0.375000     0.375000    -0.375000
   27    -1.000000   120.000000     0.577350     0.577350     0.577350     0.375000     0.375000    -0.375000
   28     1.000000    90.000000     0.000000     0.000000    -1.000000     0.375000     0.375000    -0.375000
   29     1.000000   180.000000     0.000000     0.707107     0.707107     0.375000     0.375000    -0.375000
   30     1.000000    90.000000     0.000000     1.000000     0.000000     0.375000     0.375000    -0.375000
   31    -1.000000   180.000000     0.000000     0.000000     1.000000     0.375000     0.375000    -0.375000
   32    -1.000000   120.000000    -0.577350     0.577350     0.577350     0.375000     0.375000    -0.375000
   33    -1.000000   120.000000    -0.577350     0.577350    -0.577350     0.375000     0.375000    -0.375000
   34     1.000000    90.000000     0.000000     0.000000     1.000000     0.375000     0.375000    -0.375000
   35     1.000000    90.000000    -1.000000     0.000000     0.000000     0.375000     0.375000    -0.375000
   36     1.000000   180.000000     0.707107     0.000000     0.707107     0.375000     0.375000    -0.375000
   37    -1.000000   120.000000     0.577350    -0.577350     0.577350     0.375000     0.375000    -0.375000
   38    -1.000000   120.000000    -0.577350    -0.577350     0.577350     0.375000     0.375000    -0.375000
   39    -1.000000   180.000000     1.000000     0.000000     0.000000     0.375000     0.375000    -0.375000
   40     1.000000    90.000000     0.000000    -1.000000     0.000000     0.375000     0.375000    -0.375000
   41     1.000000   180.000000     0.707107     0.707107     0.000000     0.375000     0.375000    -0.375000
   42     1.000000    90.000000     1.000000     0.000000     0.000000     0.375000     0.375000    -0.375000
   43    -1.000000   120.000000     0.577350    -0.577350    -0.577350     0.375000     0.375000    -0.375000
   44    -1.000000   180.000000     0.000000     1.000000     0.000000     0.375000     0.375000    -0.375000
   45    -1.000000   120.000000     0.577350     0.577350    -0.577350     0.375000     0.375000    -0.375000
   46     1.000000   180.000000     0.000000    -0.707107     0.707107     0.375000     0.375000    -0.375000
   47     1.000000   180.000000     0.707107    -0.707107     0.000000     0.375000     0.375000    -0.375000
   48     1.000000   180.000000     0.707107     0.000000    -0.707107     0.375000     0.375000    -0.375000
 
 Subroutine IBZKPT returns following result:
 ===========================================
 
 Found     20 irreducible k-points:
 
 Following reciprocal coordinates:
            Coordinates               Weight
  0.000000  0.000000  0.000000      1.000000
  0.166667  0.000000  0.000000      6.000000
  0.333333  0.000000  0.000000      6.000000
  0.500000  0.000000  0.000000      3.000000
  0.166667  0.166667  0.000000     12.000000
  0.333333  0.166667  0.000000     24.000000
  0.500000  0.166667  0.000000     12.000000
  0.333333  0.333333  0.000000     12.000000
  0.500000  0.333333  0.000000     12.000000
  0.500000  0.500000  0.000000      3.000000
  0.166667  0.166667  0.166667      8.000000
  0.333333  0.166667  0.166667     24.000000
  0.500000  0.166667  0.166667     12.000000
  0.333333  0.333333  0.166667     24.000000
  0.500000  0.333333  0.166667     24.000000
  0.500000  0.500000  0.166667      6.000000
  0.333333  0.333333  0.333333      8.000000
  0.500000  0.333333  0.333333     12.000000
  0.500000  0.500000  0.333333      6.000000
  0.500000  0.500000  0.500000      1.000000
 
 Following cartesian coordinates:
            Coordinates               Weight
  0.000000  0.000000  0.000000      1.000000
  0.022984  0.000000  0.000000      6.000000
  0.045968  0.000000  0.000000      6.000000
  0.068952  0.000000  0.000000      3.000000
  0.022984  0.022984  0.000000     12.000000
  0.045968  0.022984  0.000000     24.000000
  0.068952  0.022984  0.000000     12.000000
  0.045968  0.045968  0.000000     12.000000
  0.068952  0.045968  0.000000     12.000000
  0.068952  0.068952  0.000000      3.000000
  0.022984  0.022984  0.022984      8.000000
  0.045968  0.022984  0.022984     24.000000
  0.068952  0.022984  0.022984     12.000000
  0.045968  0.045968  0.022984     24.000000
  0.068952  0.045968  0.022984     24.000000
  0.068952  0.068952  0.022984      6.000000
  0.045968  0.045968  0.045968      8.000000
  0.068952  0.045968  0.045968     12.000000
  0.068952  0.068952  0.045968      6.000000
  0.068952  0.068952  0.068952      1.000000
 
 
 Subroutine IBZKPT_HF returns following result:
 ==============================================
 
 Found    216 k-points in 1st BZ
 the following    216 k-points will be used (e.g. in the exchange kernel)
 Following reciprocal coordinates:   # in IRBZ
  0.000000  0.000000  0.000000    0.00462963   1 t-inv F
  0.166667  0.000000  0.000000    0.00462963   2 t-inv F
  0.333333  0.000000  0.000000    0.00462963   3 t-inv F
  0.500000  0.000000  0.000000    0.00462963   4 t-inv F
  0.166667  0.166667  0.000000    0.00462963   5 t-inv F
  0.333333  0.166667  0.000000    0.00462963   6 t-inv F
  0.500000  0.166667  0.000000    0.00462963   7 t-inv F
  0.333333  0.333333  0.000000    0.00462963   8 t-inv F
  0.500000  0.333333  0.000000    0.00462963   9 t-inv F
  0.500000  0.500000  0.000000    0.00462963  10 t-inv F
  0.166667  0.166667  0.166667    0.00462963  11 t-inv F
  0.333333  0.166667  0.166667    0.00462963  12 t-inv F
  0.500000  0.166667  0.166667    0.00462963  13 t-inv F
  0.333333  0.333333  0.166667    0.00462963  14 t-inv F
  0.500000  0.333333  0.166667    0.00462963  15 t-inv F
  0.500000  0.500000  0.166667    0.00462963  16 t-inv F
  0.333333  0.333333  0.333333    0.00462963  17 t-inv F
  0.500000  0.333333  0.333333    0.00462963  18 t-inv F
  0.500000  0.500000  0.333333    0.00462963  19 t-inv F
  0.500000  0.500000  0.500000    0.00462963  20 t-inv F
  0.000000  0.166667  0.000000    0.00462963   2 t-inv F
  0.000000  0.000000  0.166667    0.00462963   2 t-inv F
  0.000000 -0.166667  0.000000    0.00462963   2 t-inv F
  0.000000  0.000000 -0.166667    0.00462963   2 t-inv F
 -0.166667  0.000000  0.000000    0.00462963   2 t-inv F
  0.000000  0.333333  0.000000    0.00462963   3 t-inv F
  0.000000  0.000000  0.333333    0.00462963   3 t-inv F
  0.000000 -0.333333  0.000000    0.00462963   3 t-inv F
  0.000000  0.000000 -0.333333    0.00462963   3 t-inv F
 -0.333333  0.000000  0.000000    0.00462963   3 t-inv F
  0.000000  0.500000  0.000000    0.00462963   4 t-inv F
  0.000000  0.000000  0.500000    0.00462963   4 t-inv F
  0.000000  0.166667  0.166667    0.00462963   5 t-inv F
  0.166667  0.000000  0.166667    0.00462963   5 t-inv F
  0.166667 -0.166667  0.000000    0.00462963   5 t-inv F
  0.166667  0.000000 -0.166667    0.00462963   5 t-inv F
  0.000000 -0.166667 -0.166667    0.00462963   5 t-inv F
 -0.166667 -0.166667  0.000000    0.00462963   5 t-inv F
  0.000000 -0.166667  0.166667    0.00462963   5 t-inv F
 -0.166667  0.000000  0.166667    0.00462963   5 t-inv F
 -0.166667  0.166667  0.000000    0.00462963   5 t-inv F
 -0.166667  0.000000 -0.166667    0.00462963   5 t-inv F
  0.000000  0.166667 -0.166667    0.00462963   5 t-inv F
  0.000000  0.333333  0.166667    0.00462963   6 t-inv F
  0.166667  0.000000  0.333333    0.00462963   6 t-inv F
  0.166667 -0.333333  0.000000    0.00462963   6 t-inv F
  0.333333  0.000000 -0.166667    0.00462963   6 t-inv F
  0.000000 -0.166667 -0.333333    0.00462963   6 t-inv F
 -0.333333 -0.166667  0.000000    0.00462963   6 t-inv F
  0.000000 -0.333333  0.166667    0.00462963   6 t-inv F
 -0.166667  0.000000  0.333333    0.00462963   6 t-inv F
 -0.166667  0.333333  0.000000    0.00462963   6 t-inv F
 -0.333333  0.000000 -0.166667    0.00462963   6 t-inv F
  0.000000  0.166667 -0.333333    0.00462963   6 t-inv F
  0.000000 -0.333333 -0.166667    0.00462963   6 t-inv F
  0.166667  0.000000 -0.333333    0.00462963   6 t-inv F
  0.333333 -0.166667  0.000000    0.00462963   6 t-inv F
  0.000000 -0.166667  0.333333    0.00462963   6 t-inv F
 -0.166667 -0.333333  0.000000    0.00462963   6 t-inv F
 -0.333333  0.000000  0.166667    0.00462963   6 t-inv F
 -0.166667  0.000000 -0.333333    0.00462963   6 t-inv F
 -0.333333  0.166667  0.000000    0.00462963   6 t-inv F
  0.000000  0.333333 -0.166667    0.00462963   6 t-inv F
  0.333333  0.000000  0.166667    0.00462963   6 t-inv F
  0.166667  0.333333  0.000000    0.00462963   6 t-inv F
  0.000000  0.166667  0.333333    0.00462963   6 t-inv F
  0.000000  0.500000  0.166667    0.00462963   7 t-inv F
  0.166667  0.000000  0.500000    0.00462963   7 t-inv F
  0.166667 -0.500000  0.000000    0.00462963   7 t-inv F
  0.500000  0.000000 -0.166667    0.00462963   7 t-inv F
  0.000000 -0.166667 -0.500000    0.00462963   7 t-inv F
 -0.500000 -0.166667  0.000000    0.00462963   7 t-inv F
 -0.166667  0.000000  0.500000    0.00462963   7 t-inv F
 -0.166667  0.500000  0.000000    0.00462963   7 t-inv F
  0.000000  0.166667 -0.500000    0.00462963   7 t-inv F
  0.000000 -0.500000 -0.166667    0.00462963   7 t-inv F
 -0.500000  0.000000  0.166667    0.00462963   7 t-inv F
  0.000000  0.333333  0.333333    0.00462963   8 t-inv F
  0.333333  0.000000  0.333333    0.00462963   8 t-inv F
  0.333333 -0.333333  0.000000    0.00462963   8 t-inv F
  0.333333  0.000000 -0.333333    0.00462963   8 t-inv F
  0.000000 -0.333333 -0.333333    0.00462963   8 t-inv F
 -0.333333 -0.333333  0.000000    0.00462963   8 t-inv F
  0.000000 -0.333333  0.333333    0.00462963   8 t-inv F
 -0.333333  0.000000  0.333333    0.00462963   8 t-inv F
 -0.333333  0.333333  0.000000    0.00462963   8 t-inv F
 -0.333333  0.000000 -0.333333    0.00462963   8 t-inv F
  0.000000  0.333333 -0.333333    0.00462963   8 t-inv F
  0.000000  0.500000  0.333333    0.00462963   9 t-inv F
  0.333333  0.000000  0.500000    0.00462963   9 t-inv F
  0.333333 -0.500000  0.000000    0.00462963   9 t-inv F
  0.500000  0.000000 -0.333333    0.00462963   9 t-inv F
  0.000000 -0.333333 -0.500000    0.00462963   9 t-inv F
 -0.500000 -0.333333  0.000000    0.00462963   9 t-inv F
 -0.333333  0.000000  0.500000    0.00462963   9 t-inv F
 -0.333333  0.500000  0.000000    0.00462963   9 t-inv F
  0.000000  0.333333 -0.500000    0.00462963   9 t-inv F
  0.000000 -0.500000 -0.333333    0.00462963   9 t-inv F
 -0.500000  0.000000  0.333333    0.00462963   9 t-inv F
  0.000000  0.500000  0.500000    0.00462963  10 t-inv F
  0.500000  0.000000  0.500000    0.00462963  10 t-inv F
  0.166667 -0.166667 -0.166667    0.00462963  11 t-inv F
 -0.166667 -0.166667  0.166667    0.00462963  11 t-inv F
 -0.166667  0.166667 -0.166667    0.00462963  11 t-inv F
 -0.166667 -0.166667 -0.166667    0.00462963  11 t-inv F
 -0.166667  0.166667  0.166667    0.00462963  11 t-inv F
  0.166667  0.166667 -0.166667    0.00462963  11 t-inv F
  0.166667 -0.166667  0.166667    0.00462963  11 t-inv F
  0.166667  0.333333  0.166667    0.00462963  12 t-inv F
  0.166667  0.166667  0.333333    0.00462963  12 t-inv F
  0.166667 -0.333333 -0.166667    0.00462963  12 t-inv F
  0.333333 -0.166667 -0.166667    0.00462963  12 t-inv F
  0.166667 -0.166667 -0.333333    0.00462963  12 t-inv F
 -0.333333 -0.166667  0.166667    0.00462963  12 t-inv F
 -0.166667 -0.333333  0.166667    0.00462963  12 t-inv F
 -0.166667 -0.166667  0.333333    0.00462963  12 t-inv F
 -0.166667  0.333333 -0.166667    0.00462963  12 t-inv F
 -0.333333  0.166667 -0.166667    0.00462963  12 t-inv F
 -0.166667  0.166667 -0.333333    0.00462963  12 t-inv F
 -0.333333 -0.166667 -0.166667    0.00462963  12 t-inv F
 -0.166667 -0.333333 -0.166667    0.00462963  12 t-inv F
 -0.166667 -0.166667 -0.333333    0.00462963  12 t-inv F
 -0.166667  0.333333  0.166667    0.00462963  12 t-inv F
 -0.333333  0.166667  0.166667    0.00462963  12 t-inv F
 -0.166667  0.166667  0.333333    0.00462963  12 t-inv F
  0.333333  0.166667 -0.166667    0.00462963  12 t-inv F
  0.166667  0.333333 -0.166667    0.00462963  12 t-inv F
  0.166667  0.166667 -0.333333    0.00462963  12 t-inv F
  0.166667 -0.333333  0.166667    0.00462963  12 t-inv F
  0.333333 -0.166667  0.166667    0.00462963  12 t-inv F
  0.166667 -0.166667  0.333333    0.00462963  12 t-inv F
  0.166667  0.500000  0.166667    0.00462963  13 t-inv F
  0.166667  0.166667  0.500000    0.00462963  13 t-inv F
  0.166667 -0.500000 -0.166667    0.00462963  13 t-inv F
  0.500000 -0.166667 -0.166667    0.00462963  13 t-inv F
  0.166667 -0.166667 -0.500000    0.00462963  13 t-inv F
 -0.500000 -0.166667  0.166667    0.00462963  13 t-inv F
 -0.166667 -0.500000  0.166667    0.00462963  13 t-inv F
 -0.166667 -0.166667  0.500000    0.00462963  13 t-inv F
 -0.166667  0.500000 -0.166667    0.00462963  13 t-inv F
 -0.500000  0.166667 -0.166667    0.00462963  13 t-inv F
 -0.166667  0.166667 -0.500000    0.00462963  13 t-inv F
  0.166667  0.333333  0.333333    0.00462963  14 t-inv F
  0.333333  0.166667  0.333333    0.00462963  14 t-inv F
  0.333333 -0.333333 -0.166667    0.00462963  14 t-inv F
  0.333333 -0.166667 -0.333333    0.00462963  14 t-inv F
  0.166667 -0.333333 -0.333333    0.00462963  14 t-inv F
 -0.333333 -0.333333  0.166667    0.00462963  14 t-inv F
 -0.166667 -0.333333  0.333333    0.00462963  14 t-inv F
 -0.333333 -0.166667  0.333333    0.00462963  14 t-inv F
 -0.333333  0.333333 -0.166667    0.00462963  14 t-inv F
 -0.333333  0.166667 -0.333333    0.00462963  14 t-inv F
 -0.166667  0.333333 -0.333333    0.00462963  14 t-inv F
 -0.333333 -0.333333 -0.166667    0.00462963  14 t-inv F
 -0.166667 -0.333333 -0.333333    0.00462963  14 t-inv F
 -0.333333 -0.166667 -0.333333    0.00462963  14 t-inv F
 -0.333333  0.333333  0.166667    0.00462963  14 t-inv F
 -0.333333  0.166667  0.333333    0.00462963  14 t-inv F
 -0.166667  0.333333  0.333333    0.00462963  14 t-inv F
  0.333333  0.333333 -0.166667    0.00462963  14 t-inv F
  0.166667  0.333333 -0.333333    0.00462963  14 t-inv F
  0.333333  0.166667 -0.333333    0.00462963  14 t-inv F
  0.333333 -0.333333  0.166667    0.00462963  14 t-inv F
  0.333333 -0.166667  0.333333    0.00462963  14 t-inv F
  0.166667 -0.333333  0.333333    0.00462963  14 t-inv F
  0.166667  0.500000  0.333333    0.00462963  15 t-inv F
  0.333333  0.166667  0.500000    0.00462963  15 t-inv F
  0.333333 -0.500000 -0.166667    0.00462963  15 t-inv F
  0.500000 -0.166667 -0.333333    0.00462963  15 t-inv F
  0.166667 -0.333333 -0.500000    0.00462963  15 t-inv F
 -0.500000 -0.333333  0.166667    0.00462963  15 t-inv F
 -0.166667 -0.500000  0.333333    0.00462963  15 t-inv F
 -0.333333 -0.166667  0.500000    0.00462963  15 t-inv F
 -0.333333  0.500000 -0.166667    0.00462963  15 t-inv F
 -0.500000  0.166667 -0.333333    0.00462963  15 t-inv F
 -0.166667  0.333333 -0.500000    0.00462963  15 t-inv F
  0.166667 -0.500000 -0.333333    0.00462963  15 t-inv F
  0.333333 -0.166667 -0.500000    0.00462963  15 t-inv F
  0.500000 -0.333333 -0.166667    0.00462963  15 t-inv F
 -0.166667 -0.333333  0.500000    0.00462963  15 t-inv F
 -0.333333 -0.500000  0.166667    0.00462963  15 t-inv F
 -0.500000 -0.166667  0.333333    0.00462963  15 t-inv F
 -0.333333  0.166667 -0.500000    0.00462963  15 t-inv F
 -0.500000  0.333333 -0.166667    0.00462963  15 t-inv F
 -0.166667  0.500000 -0.333333    0.00462963  15 t-inv F
  0.500000  0.166667  0.333333    0.00462963  15 t-inv F
  0.333333  0.500000  0.166667    0.00462963  15 t-inv F
  0.166667  0.333333  0.500000    0.00462963  15 t-inv F
  0.166667  0.500000  0.500000    0.00462963  16 t-inv F
  0.500000  0.166667  0.500000    0.00462963  16 t-inv F
  0.500000 -0.500000 -0.166667    0.00462963  16 t-inv F
  0.500000 -0.166667 -0.500000    0.00462963  16 t-inv F
 -0.166667 -0.500000  0.500000    0.00462963  16 t-inv F
  0.333333 -0.333333 -0.333333    0.00462963  17 t-inv F
 -0.333333 -0.333333  0.333333    0.00462963  17 t-inv F
 -0.333333  0.333333 -0.333333    0.00462963  17 t-inv F
 -0.333333 -0.333333 -0.333333    0.00462963  17 t-inv F
 -0.333333  0.333333  0.333333    0.00462963  17 t-inv F
  0.333333  0.333333 -0.333333    0.00462963  17 t-inv F
  0.333333 -0.333333  0.333333    0.00462963  17 t-inv F
  0.333333  0.500000  0.333333    0.00462963  18 t-inv F
  0.333333  0.333333  0.500000    0.00462963  18 t-inv F
  0.333333 -0.500000 -0.333333    0.00462963  18 t-inv F
  0.500000 -0.333333 -0.333333    0.00462963  18 t-inv F
  0.333333 -0.333333 -0.500000    0.00462963  18 t-inv F
 -0.500000 -0.333333  0.333333    0.00462963  18 t-inv F
 -0.333333 -0.500000  0.333333    0.00462963  18 t-inv F
 -0.333333 -0.333333  0.500000    0.00462963  18 t-inv F
 -0.333333  0.500000 -0.333333    0.00462963  18 t-inv F
 -0.500000  0.333333 -0.333333    0.00462963  18 t-inv F
 -0.333333  0.333333 -0.500000    0.00462963  18 t-inv F
  0.333333  0.500000  0.500000    0.00462963  19 t-inv F
  0.500000  0.333333  0.500000    0.00462963  19 t-inv F
  0.500000 -0.500000 -0.333333    0.00462963  19 t-inv F
  0.500000 -0.333333 -0.500000    0.00462963  19 t-inv F
 -0.333333 -0.500000  0.500000    0.00462963  19 t-inv F


--------------------------------------------------------------------------------------------------------




 Dimension of arrays:
   k-points           NKPTS =     20   k-points in BZ     NKDIM =     20   number of bands    NBANDS=    192
   number of dos      NEDOS =    301   number of ions     NIONS =     64
   non local maximal  LDIM  =      4   non local SUM 2l+1 LMDIM =      8
   total plane-waves  NPLWV = 110592
   max r-space proj   IRMAX =      1   max aug-charges    IRDMAX=  27578
   dimension x,y,z NGX =    48 NGY =   48 NGZ =   48
   dimension x,y,z NGXF=    96 NGYF=   96 NGZF=   96
   support grid    NGXF=   192 NGYF=  192 NGZF=  192
   ions per type =              64
   NGX,Y,Z   is equivalent  to a cutoff of  11.00, 11.00, 11.00 a.u.
   NGXF,Y,Z  is equivalent  to a cutoff of  22.01, 22.01, 22.01 a.u.

 SYSTEM =  unknown system                          
 POSCAR =  generated by phonopy                    

 Startparameter for this run:
   NWRITE =      2    write-flag & timer
   PREC   = accura    normal or accurate (medium, high low for compatibility)
   ISTART =      0    job   : 0-new  1-cont  2-samecut
   ICHARG =      2    charge: 1-file 2-atom 10-const
   ISPIN  =      1    spin polarized calculation?
   LNONCOLLINEAR =      F non collinear calculations
   LSORBIT =      F    spin-orbit coupling
   INIWAV =      1    electr: 0-lowe 1-rand  2-diag
   LASPH  =      F    aspherical Exc in radial PAW
   METAGGA=      F    non-selfconsistent MetaGGA calc.

 Electronic Relaxation 1
   ENCUT  =  400.0 eV  29.40 Ry    5.42 a.u.  11.83 11.83 11.83*2*pi/ulx,y,z
   ENINI  =  400.0     initial cutoff
   ENAUG  =  644.9 eV  augmentation charge cutoff
   NELM   =     60;   NELMIN=  2; NELMDL= -5     # of ELM steps 
   EDIFF  = 0.1E-07   stopping-criterion for ELM
   LREAL  =      F    real-space projection
   NLSPLINE    = F    spline interpolate recip. space projectors
   LCOMPAT=      F    compatible to vasp.4.4
   GGA_COMPAT  = T    GGA compatible to vasp.4.4-vasp.4.6
   LMAXPAW     = -100 max onsite density
   LMAXMIX     =    2 max onsite mixed and CHGCAR
   VOSKOWN=      0    Vosko Wilk Nusair interpolation
   ROPT   =    0.00000
 Ionic relaxation
   EDIFFG = 0.1E-06   stopping-criterion for IOM
   NSW    =      1    number of steps for IOM
   NBLOCK =      1;   KBLOCK =      1    inner block; outer block 
   IBRION =      8    ionic relax: 0-MD 1-quasi-New 2-CG
   NFREE  =      0    steps in history (QN), initial steepest desc. (CG)
   ISIF   =      2    stress and relaxation
   IWAVPR =     11    prediction:  0-non 1-charg 2-wave 3-comb
   ISYM   =      2    0-nonsym 1-usesym 2-fastsym
   LCORR  =      T    Harris-Foulkes like correction to forces

   POTIM  = 0.5000    time-step for ionic-motion
   TEIN   =    0.0    initial temperature
   TEBEG  =    0.0;   TEEND  =   0.0 temperature during run
   SMASS  =  -3.00    Nose mass-parameter (am)
   estimated Nose-frequenzy (Omega)   =  0.10E-29 period in steps =****** mass=  -0.120E-26a.u.
   SCALEE = 1.0000    scale energy and forces
   NPACO  =    256;   APACO  = 16.0  distance and # of slots for P.C.
   PSTRESS=    0.0 pullay stress

  Mass of Ions in am
   POMASS =  12.01
  Ionic Valenz
   ZVAL   =   4.00
  Atomic Wigner-Seitz radii
   RWIGS  =  -1.00
  virtual crystal weights 
   VCA    =   1.00
   NELECT =     256.0000    total number of electrons
   NUPDOWN=      -1.0000    fix difference up-down

 DOS related values:
   EMIN   =  10.00;   EMAX   =-10.00  energy-range for DOS
   EFERMI =   0.00
   ISMEAR =     0;   SIGMA  =   0.06  broadening in eV -4-tet -1-fermi 0-gaus

 Electronic relaxation 2 (details)
   IALGO  =     38    algorithm
   LDIAG  =      T    sub-space diagonalisation (order eigenvalues)
   LSUBROT=      F    optimize rotation matrix (better conditioning)
   TURBO    =      0    0=normal 1=particle mesh
   IRESTART =      0    0=no restart 2=restart with 2 vectors
   NREBOOT  =      0    no. of reboots
   NMIN     =      0    reboot dimension
   EREF     =   0.00    reference energy to select bands
   IMIX   =      4    mixing-type and parameters
     AMIX     =   0.40;   BMIX     =  1.00
     AMIX_MAG =   1.60;   BMIX_MAG =  1.00
     AMIN     =   0.10
     WC   =   100.;   INIMIX=   1;  MIXPRE=   1;  MAXMIX= -45

 Intra band minimization:
   WEIMIN = 0.0010     energy-eigenvalue tresh-hold
   EBREAK =  0.13E-10  absolut break condition
   DEPER  =   0.30     relativ break condition  

   TIME   =   0.40     timestep for ELM

  volume/ion in A,a.u.               =       5.96        40.21
  Fermi-wavevector in a.u.,A,eV,Ry     =   1.433498  2.708918 27.958832  2.054916
  Thomas-Fermi vector in A             =   2.553009
 
 Write flags
   LWAVE        =      F    write WAVECAR
   LDOWNSAMPLE  =      F    k-point downsampling of WAVECAR
   LCHARG       =      F    write CHGCAR
   LVTOT        =      F    write LOCPOT, total local potential
   LVHAR        =      F    write LOCPOT, Hartree potential only
   LELF         =      F    write electronic localiz. function (ELF)
   LORBIT       =      0    0 simple, 1 ext, 2 COOP (PROOUT), +10 PAW based schemes


 Dipole corrections
   LMONO  =      F    monopole corrections only (constant potential shift)
   LDIPOL =      F    correct potential (dipole corrections)
   IDIPOL =      0    1-x, 2-y, 3-z, 4-all directions 
   EPSILON=  1.0000000 bulk dielectric constant

 Exchange correlation treatment:
   GGA     =    --    GGA type
   LEXCH   =     8    internal setting for exchange type
   VOSKOWN=      0    Vosko Wilk Nusair interpolation
   LHFCALC =     F    Hartree Fock is set to
   LHFONE  =     F    Hartree Fock one center treatment
   AEXX    =    0.0000 exact exchange contribution

 Linear response parameters
   LEPSILON=     F    determine dielectric tensor
   LRPA    =     F    only Hartree local field effects (RPA)
   LNABLA  =     F    use nabla operator in PAW spheres
   LVEL    =     F    velocity operator in full k-point grid
   LINTERFAST=   F  fast interpolation
   KINTER  =     0    interpolate to denser k-point grid
   CSHIFT  =0.1000    complex shift for real part using Kramers Kronig
   OMEGAMAX=  -1.0    maximum frequency
   DEG_THRESHOLD= 0.2000000E-02 threshold for treating states as degnerate
   RTIME   =   -0.100 relaxation time in fs
  (WPLASMAI=    0.000 imaginary part of plasma frequency in eV, 0.658/RTIME)
   DFIELD  = 0.0000000 0.0000000 0.0000000 field for delta impulse in time
 
 Orbital magnetization related:
   ORBITALMAG=     F  switch on orbital magnetization
   LCHIMAG   =     F  perturbation theory with respect to B field
   DQ        =  0.001000  dq finite difference perturbation B field
   LLRAUG    =     F  two centre corrections for induced B field



--------------------------------------------------------------------------------------------------------


 linear response using symmetry
 charge density and potential will be updated during run
 non-spin polarized calculation
 Variant of blocked Davidson
 Davidson routine will perform the subspace rotation
 perform sub-space diagonalisation
    after iterative eigenvector-optimisation
 modified Broyden-mixing scheme, WC =      100.0
 initial mixing is a Kerker type mixing with AMIX =  0.4000 and BMIX =      1.0000
 Hartree-type preconditioning will be used
 using additional bands           64
 reciprocal scheme for non local part
 calculate Harris-corrections to forces 
   (improved forces if not selfconsistent)
 use gradient corrections 
 use of overlap-Matrix (Vanderbilt PP)
 Gauss-broadening in eV      SIGMA  =   0.06


--------------------------------------------------------------------------------------------------------


  energy-cutoff  :      400.00
  volume of cell :      381.31
      direct lattice vectors                 reciprocal lattice vectors
     7.251442891  0.000000000  0.000000000     0.137903589  0.000000000  0.000000000
     0.000000000  7.251442891  0.000000000     0.000000000  0.137903589  0.000000000
     0.000000000  0.000000000  7.251442891     0.000000000  0.000000000  0.137903589

  length of vectors
     7.251442891  7.251442891  7.251442891     0.137903589  0.137903589  0.137903589


 
 k-points in units of 2pi/SCALE and weight: kpt_density=3000                        
   0.00000000  0.00000000  0.00000000       0.005
   0.02298393  0.00000000  0.00000000       0.028
   0.04596786  0.00000000  0.00000000       0.028
   0.06895179  0.00000000  0.00000000       0.014
   0.02298393  0.02298393  0.00000000       0.056
   0.04596786  0.02298393  0.00000000       0.111
   0.06895179  0.02298393  0.00000000       0.056
   0.04596786  0.04596786  0.00000000       0.056
   0.06895179  0.04596786  0.00000000       0.056
   0.06895179  0.06895179  0.00000000       0.014
   0.02298393  0.02298393  0.02298393       0.037
   0.04596786  0.02298393  0.02298393       0.111
   0.06895179  0.02298393  0.02298393       0.056
   0.04596786  0.04596786  0.02298393       0.111
   0.06895179  0.04596786  0.02298393       0.111
   0.06895179  0.06895179  0.02298393       0.028
   0.04596786  0.04596786  0.04596786       0.037
   0.06895179  0.04596786  0.04596786       0.056
   0.06895179  0.06895179  0.04596786       0.028
   0.06895179  0.06895179  0.06895179       0.005
 
 k-points in reciprocal lattice and weights: kpt_density=3000                        
   0.00000000  0.00000000  0.00000000       0.005
   0.16666667  0.00000000  0.00000000       0.028
   0.33333333  0.00000000  0.00000000       0.028
   0.50000000  0.00000000  0.00000000       0.014
   0.16666667  0.16666667  0.00000000       0.056
   0.33333333  0.16666667  0.00000000       0.111
   0.50000000  0.16666667  0.00000000       0.056
   0.33333333  0.33333333  0.00000000       0.056
   0.50000000  0.33333333  0.00000000       0.056
   0.50000000  0.50000000  0.00000000       0.014
   0.16666667  0.16666667  0.16666667       0.037
   0.33333333  0.16666667  0.16666667       0.111
   0.50000000  0.16666667  0.16666667       0.056
   0.33333333  0.33333333  0.16666667       0.111
   0.50000000  0.33333333  0.16666667       0.111
   0.50000000  0.50000000  0.16666667       0.028
   0.33333333  0.33333333  0.33333333       0.037
   0.50000000  0.33333333  0.33333333       0.056
   0.50000000  0.50000000  0.33333333       0.028
   0.50000000  0.50000000  0.50000000       0.005
 
 position of ions in fractional coordinates (direct lattice) 
   0.12500000  0.37500000  0.12500000
   0.62500000  0.37500000  0.12500000
   0.12500000  0.87500000  0.12500000
   0.62500000  0.87500000  0.12500000
   0.12500000  0.37500000  0.62500000
   0.62500000  0.37500000  0.62500000
   0.12500000  0.87500000  0.62500000
   0.62500000  0.87500000  0.62500000
   0.00000000  0.00000000  0.25000000
   0.50000000  0.00000000  0.25000000
   0.00000000  0.50000000  0.25000000
   0.50000000  0.50000000  0.25000000
   0.00000000  0.00000000  0.75000000
   0.50000000  0.00000000  0.75000000
   0.00000000  0.50000000  0.75000000
   0.50000000  0.50000000  0.75000000
   0.12500000  0.12500000  0.37500000
   0.62500000  0.12500000  0.37500000
   0.12500000  0.62500000  0.37500000
   0.62500000  0.62500000  0.37500000
   0.12500000  0.12500000  0.87500000
   0.62500000  0.12500000  0.87500000
   0.12500000  0.62500000  0.87500000
   0.62500000  0.62500000  0.87500000
   0.00000000  0.25000000  0.00000000
   0.50000000  0.25000000  0.00000000
   0.00000000  0.75000000  0.00000000
   0.50000000  0.75000000  0.00000000
   0.00000000  0.25000000  0.50000000
   0.50000000  0.25000000  0.50000000
   0.00000000  0.75000000  0.50000000
   0.50000000  0.75000000  0.50000000
   0.37500000  0.37500000  0.37500000
   0.87500000  0.37500000  0.37500000
   0.37500000  0.87500000  0.37500000
   0.87500000  0.87500000  0.37500000
   0.37500000  0.37500000  0.87500000
   0.87500000  0.37500000  0.87500000
   0.37500000  0.87500000  0.87500000
   0.87500000  0.87500000  0.87500000
   0.25000000  0.00000000  0.00000000
   0.75000000  0.00000000  0.00000000
   0.25000000  0.50000000  0.00000000
   0.75000000  0.50000000  0.00000000
   0.25000000  0.00000000  0.50000000
   0.75000000  0.00000000  0.50000000
   0.25000000  0.50000000  0.50000000
   0.75000000  0.50000000  0.50000000
   0.37500000  0.12500000  0.12500000
   0.87500000  0.12500000  0.12500000
   0.37500000  0.62500000  0.12500000
   0.87500000  0.62500000  0.12500000
   0.37500000  0.12500000  0.62500000
   0.87500000  0.12500000  0.62500000
   0.37500000  0.62500000  0.62500000
   0.87500000  0.62500000  0.62500000
   0.25000000  0.25000000  0.25000000
   0.75000000  0.25000000  0.25000000
   0.25000000  0.75000000  0.25000000
   0.75000000  0.75000000  0.25000000
   0.25000000  0.25000000  0.75000000
   0.75000000  0.25000000  0.75000000
   0.25000000  0.75000000  0.75000000
   0.75000000  0.75000000  0.75000000
 
 position of ions in cartesian coordinates  (Angst):
   0.90643036  2.71929108  0.90643036
   4.53215181  2.71929108  0.90643036
   0.90643036  6.34501253  0.90643036
   4.53215181  6.34501253  0.90643036
   0.90643036  2.71929108  4.53215181
   4.53215181  2.71929108  4.53215181
   0.90643036  6.34501253  4.53215181
   4.53215181  6.34501253  4.53215181
   0.00000000  0.00000000  1.81286072
   3.62572145  0.00000000  1.81286072
   0.00000000  3.62572145  1.81286072
   3.62572145  3.62572145  1.81286072
   0.00000000  0.00000000  5.43858217
   3.62572145  0.00000000  5.43858217
   0.00000000  3.62572145  5.43858217
   3.62572145  3.62572145  5.43858217
   0.90643036  0.90643036  2.71929108
   4.53215181  0.90643036  2.71929108
   0.90643036  4.53215181  2.71929108
   4.53215181  4.53215181  2.71929108
   0.90643036  0.90643036  6.34501253
   4.53215181  0.90643036  6.34501253
   0.90643036  4.53215181  6.34501253
   4.53215181  4.53215181  6.34501253
   0.00000000  1.81286072  0.00000000
   3.62572145  1.81286072  0.00000000
   0.00000000  5.43858217  0.00000000
   3.62572145  5.43858217  0.00000000
   0.00000000  1.81286072  3.62572145
   3.62572145  1.81286072  3.62572145
   0.00000000  5.43858217  3.62572145
   3.62572145  5.43858217  3.62572145
   2.71929108  2.71929108  2.71929108
   6.34501253  2.71929108  2.71929108
   2.71929108  6.34501253  2.71929108
   6.34501253  6.34501253  2.71929108
   2.71929108  2.71929108  6.34501253
   6.34501253  2.71929108  6.34501253
   2.71929108  6.34501253  6.34501253
   6.34501253  6.34501253  6.34501253
   1.81286072  0.00000000  0.00000000
   5.43858217  0.00000000  0.00000000
   1.81286072  3.62572145  0.00000000
   5.43858217  3.62572145  0.00000000
   1.81286072  0.00000000  3.62572145
   5.43858217  0.00000000  3.62572145
   1.81286072  3.62572145  3.62572145
   5.43858217  3.62572145  3.62572145
   2.71929108  0.90643036  0.90643036
   6.34501253  0.90643036  0.90643036
   2.71929108  4.53215181  0.90643036
   6.34501253  4.53215181  0.90643036
   2.71929108  0.90643036  4.53215181
   6.34501253  0.90643036  4.53215181
   2.71929108  4.53215181  4.53215181
   6.34501253  4.53215181  4.53215181
   1.81286072  1.81286072  1.81286072
   5.43858217  1.81286072  1.81286072
   1.81286072  5.43858217  1.81286072
   5.43858217  5.43858217  1.81286072
   1.81286072  1.81286072  5.43858217
   5.43858217  1.81286072  5.43858217
   1.81286072  5.43858217  5.43858217
   5.43858217  5.43858217  5.43858217
 


--------------------------------------------------------------------------------------------------------


 k-point  1 :   0.0000 0.0000 0.0000  plane waves:    6931
 k-point  2 :   0.1667 0.0000 0.0000  plane waves:    6931
 k-point  3 :   0.3333 0.0000 0.0000  plane waves:    6932
 k-point  4 :   0.5000 0.0000 0.0000  plane waves:    6920
 k-point  5 :   0.1667 0.1667 0.0000  plane waves:    6925
 k-point  6 :   0.3333 0.1667 0.0000  plane waves:    6917
 k-point  7 :   0.5000 0.1667 0.0000  plane waves:    6916
 k-point  8 :   0.3333 0.3333 0.0000  plane waves:    6909
 k-point  9 :   0.5000 0.3333 0.0000  plane waves:    6938
 k-point 10 :   0.5000 0.5000 0.0000  plane waves:    6968
 k-point 11 :   0.1667 0.1667 0.1667  plane waves:    6916
 k-point 12 :   0.3333 0.1667 0.1667  plane waves:    6936
 k-point 13 :   0.5000 0.1667 0.1667  plane waves:    6910
 k-point 14 :   0.3333 0.3333 0.1667  plane waves:    6936
 k-point 15 :   0.5000 0.3333 0.1667  plane waves:    6944
 k-point 16 :   0.5000 0.5000 0.1667  plane waves:    6928
 k-point 17 :   0.3333 0.3333 0.3333  plane waves:    6947
 k-point 18 :   0.5000 0.3333 0.3333  plane waves:    6942
 k-point 19 :   0.5000 0.5000 0.3333  plane waves:    6936
 k-point 20 :   0.5000 0.5000 0.5000  plane waves:    6872

 maximum and minimum number of plane-waves per node :      6968     6872

 maximum number of plane-waves:      6968
 maximum index in each direction: 
   IXMAX=   11   IYMAX=   11   IZMAX=   11
   IXMIN=  -12   IYMIN=  -12   IZMIN=  -12


 serial   3D FFT for wavefunctions
 parallel 3D FFT for charge:
    minimum data exchange during FFTs selected (reduces bandwidth)


 total amount of memory used by VASP MPI-rank0    70987. kBytes
=======================================================================

   base      :      30000. kBytes
   nonl-proj :      16072. kBytes
   fftplans  :       4537. kBytes
   grid      :       5806. kBytes
   one-center:        196. kBytes
   wavefun   :      14376. kBytes
 
     INWAV:  cpu time    0.0004: real time    0.0006
 Broyden mixing: mesh for mixing (old mesh)
   NGX = 23   NGY = 23   NGZ = 23
  (NGX  = 96   NGY  = 96   NGZ  = 96)
  gives a total of  12167 points

 initial charge density was supplied:
 charge density of overlapping atoms calculated
 number of electron     256.0000000 magnetization 
 keeping initial charge density in first step


--------------------------------------------------------------------------------------------------------


 Maximum index for augmentation-charges         1085 (set IRDMAX)


--------------------------------------------------------------------------------------------------------


 First call to EWALD:  gamma=   0.244
 Maximum number of real-space cells 3x 3x 3
 Maximum number of reciprocal cells 3x 3x 3

    FEWALD:  cpu time    0.0084: real time    0.0084


--------------------------------------- Iteration      1(   1)  ---------------------------------------


    POTLOK:  cpu time    0.0637: real time    0.3086
    SETDIJ:  cpu time    0.0411: real time    0.0413
     EDDAV:  cpu time   13.3861: real time   13.3970
       DOS:  cpu time    0.0056: real time    0.0056
    --------------------------------------------
      LOOP:  cpu time   13.4966: real time   13.7526

 eigenvalue-minimisations  :  7680
 total energy-change (2. order) : 0.4979553E+03  (-0.1130463E+05)
 number of electron     256.0000000 magnetization 
 augmentation part      256.0000000 magnetization 

 Free energy of the ion-electron system (eV)
  ---------------------------------------------------
  alpha Z        PSCENC =       875.26295871
  Ewald energy   TEWEN  =    -10953.73852561
  -Hartree energ DENC   =      -598.72964590
  -exchange      EXHF   =         0.00000000
  -V(xc)+E(xc)   XCENC  =       905.22922273
  PAW double counting   =      2421.21235816    -2494.84305711
  entropy T*S    EENTRO =        -0.00576233
  eigenvalues    EBANDS =       927.42542548
  atomic energy  EATOM  =      9416.14232778
  Solvation  Ediel_sol  =         0.00000000
  ---------------------------------------------------
  free energy    TOTEN  =       497.95530192 eV

  energy without entropy =      497.96106425  energy(sigma->0) =      497.95818308


--------------------------------------------------------------------------------------------------------




--------------------------------------- Iteration      1(   2)  ---------------------------------------


     EDDAV:  cpu time   17.5337: real time   17.5350
       DOS:  cpu time    0.0032: real time    0.0032
    --------------------------------------------
      LOOP:  cpu time   17.5368: real time   17.5382

 eigenvalue-minimisations  : 10176
 total energy-change (2. order) :-0.1053956E+04  (-0.1004709E+04)
 number of electron     256.0000000 magnetization 
 augmentation part      256.0000000 magnetization 

 Free energy of the ion-electron system (eV)
  ---------------------------------------------------
  alpha Z        PSCENC =       875.26295871
  Ewald energy   TEWEN  =    -10953.73852561
  -Hartree energ DENC   =      -598.72964590
  -exchange      EXHF   =         0.00000000
  -V(xc)+E(xc)   XCENC  =       905.22922273
  PAW double counting   =      2421.21235816    -2494.84305711
  entropy T*S    EENTRO =        -0.00000000
  eigenvalues    EBANDS =      -126.53635729
  atomic energy  EATOM  =      9416.14232778
  Solvation  Ediel_sol  =         0.00000000
  ---------------------------------------------------
  free energy    TOTEN  =      -556.00071853 eV

  energy without entropy =     -556.00071853  energy(sigma->0) =     -556.00071853


--------------------------------------------------------------------------------------------------------




--------------------------------------- Iteration      1(   3)  ---------------------------------------


     EDDAV:  cpu time   16.8901: real time   16.8915
       DOS:  cpu time    0.0028: real time    0.0028
    --------------------------------------------
      LOOP:  cpu time   16.8929: real time   16.8943

 eigenvalue-minimisations  : 10176
 total energy-change (2. order) :-0.4190832E+02  (-0.4165671E+02)
 number of electron     256.0000000 magnetization 
 augmentation part      256.0000000 magnetization 

 Free energy of the ion-electron system (eV)
  ---------------------------------------------------
  alpha Z        PSCENC =       875.26295871
  Ewald energy   TEWEN  =    -10953.73852561
  -Hartree energ DENC   =      -598.72964590
  -exchange      EXHF   =         0.00000000
  -V(xc)+E(xc)   XCENC  =       905.22922273
  PAW double counting   =      2421.21235816    -2494.84305711
  entropy T*S    EENTRO =        -0.00000000
  eigenvalues    EBANDS =      -168.44467775
  atomic energy  EATOM  =      9416.14232778
  Solvation  Ediel_sol  =         0.00000000
  ---------------------------------------------------
  free energy    TOTEN  =      -597.90903898 eV

  energy without entropy =     -597.90903898  energy(sigma->0) =     -597.90903898


--------------------------------------------------------------------------------------------------------




--------------------------------------- Iteration      1(   4)  ---------------------------------------


     EDDAV:  cpu time   17.1915: real time   17.1928
       DOS:  cpu time    0.0028: real time    0.0028
    --------------------------------------------
      LOOP:  cpu time   17.1943: real time   17.1956

 eigenvalue-minimisations  : 10304
 total energy-change (2. order) :-0.4846876E+00  (-0.4838078E+00)
 number of electron     256.0000000 magnetization 
 augmentation part      256.0000000 magnetization 

 Free energy of the ion-electron system (eV)
  ---------------------------------------------------
  alpha Z        PSCENC =       875.26295871
  Ewald energy   TEWEN  =    -10953.73852561
  -Hartree energ DENC   =      -598.72964590
  -exchange      EXHF   =         0.00000000
  -V(xc)+E(xc)   XCENC  =       905.22922273
  PAW double counting   =      2421.21235816    -2494.84305711
  entropy T*S    EENTRO =        -0.00000000
  eigenvalues    EBANDS =      -168.92936535
  atomic energy  EATOM  =      9416.14232778
  Solvation  Ediel_sol  =         0.00000000
  ---------------------------------------------------
  free energy    TOTEN  =      -598.39372658 eV

  energy without entropy =     -598.39372658  energy(sigma->0) =     -598.39372658


--------------------------------------------------------------------------------------------------------




--------------------------------------- Iteration      1(   5)  ---------------------------------------


     EDDAV:  cpu time   16.1750: real time   16.1763
       DOS:  cpu time    0.0029: real time    0.0029
    CHARGE:  cpu time    0.5092: real time    0.5095
    MIXING:  cpu time    0.0037: real time    0.0037
    --------------------------------------------
      LOOP:  cpu time   16.6908: real time   16.6923

 eigenvalue-minimisations  :  9664
 total energy-change (2. order) :-0.9740073E-02  (-0.9736338E-02)
 number of electron     256.0000003 magnetization 
 augmentation part        5.9965824 magnetization 

 Broyden mixing:
  rms(total) = 0.25316E+01    rms(broyden)= 0.25311E+01
  rms(prec ) = 0.36823E+01
  weight for this iteration     100.00

 Free energy of the ion-electron system (eV)
  ---------------------------------------------------
  alpha Z        PSCENC =       875.26295871
  Ewald energy   TEWEN  =    -10953.73852561
  -Hartree energ DENC   =      -598.72964590
  -exchange      EXHF   =         0.00000000
  -V(xc)+E(xc)   XCENC  =       905.22922273
  PAW double counting   =      2421.21235816    -2494.84305711
  entropy T*S    EENTRO =        -0.00000000
  eigenvalues    EBANDS =      -168.93910542
  atomic energy  EATOM  =      9416.14232778
  Solvation  Ediel_sol  =         0.00000000
  ---------------------------------------------------
  free energy    TOTEN  =      -598.40346665 eV

  energy without entropy =     -598.40346665  energy(sigma->0) =     -598.40346665


--------------------------------------------------------------------------------------------------------




--------------------------------------- Iteration      1(   6)  ---------------------------------------


    POTLOK:  cpu time    0.0586: real time    0.0589
    SETDIJ:  cpu time    0.0396: real time    0.0396
     EDDAV:  cpu time   16.1338: real time   16.1348
       DOS:  cpu time    0.0030: real time    0.0030
    CHARGE:  cpu time    0.5087: real time    0.5087
    MIXING:  cpu time    0.0041: real time    0.0041
    --------------------------------------------
      LOOP:  cpu time   16.7477: real time   16.7490

 eigenvalue-minimisations  :  9024
 total energy-change (2. order) : 0.1300456E+02  (-0.8687528E+00)
 number of electron     256.0000003 magnetization 
 augmentation part        5.8631776 magnetization 

 Broyden mixing:
  rms(total) = 0.13994E+01    rms(broyden)= 0.13994E+01
  rms(prec ) = 0.20151E+01
  weight for this iteration     100.00

 eigenvalues of (default mixing * dielectric matrix)
  average eigenvalue GAMMA=   2.1859
  2.1859

 Free energy of the ion-electron system (eV)
  ---------------------------------------------------
  alpha Z        PSCENC =       875.26295871
  Ewald energy   TEWEN  =    -10953.73852561
  -Hartree energ DENC   =      -714.67619867
  -exchange      EXHF   =         0.00000000
  -V(xc)+E(xc)   XCENC  =       916.03263928
  PAW double counting   =      3080.80522388    -3158.26484300
  entropy T*S    EENTRO =        -0.00000000
  eigenvalues    EBANDS =       -46.96249258
  atomic energy  EATOM  =      9416.14232778
  Solvation  Ediel_sol  =         0.00000000
  ---------------------------------------------------
  free energy    TOTEN  =      -585.39891020 eV

  energy without entropy =     -585.39891020  energy(sigma->0) =     -585.39891020


--------------------------------------------------------------------------------------------------------




--------------------------------------- Iteration      1(   7)  ---------------------------------------


    POTLOK:  cpu time    0.0578: real time    0.0581
    SETDIJ:  cpu time    0.0394: real time    0.0394
     EDDAV:  cpu time   16.5794: real time   16.5803
       DOS:  cpu time    0.0028: real time    0.0028
    CHARGE:  cpu time    0.5103: real time    0.5103
    MIXING:  cpu time    0.0043: real time    0.0043
    --------------------------------------------
      LOOP:  cpu time   17.1940: real time   17.1952

 eigenvalue-minimisations  :  9344
 total energy-change (2. order) : 0.4397914E+01  (-0.1006579E+01)
 number of electron     256.0000003 magnetization 
 augmentation part        5.7234276 magnetization 

 Broyden mixing:
  rms(total) = 0.19166E+00    rms(broyden)= 0.19074E+00
  rms(prec ) = 0.23464E+00
  weight for this iteration     100.00

 eigenvalues of (default mixing * dielectric matrix)
  average eigenvalue GAMMA=   2.2725
  2.0108  2.5342

 Free energy of the ion-electron system (eV)
  ---------------------------------------------------
  alpha Z        PSCENC =       875.26295871
  Ewald energy   TEWEN  =    -10953.73852561
  -Hartree energ DENC   =      -863.58807388
  -exchange      EXHF   =         0.00000000
  -V(xc)+E(xc)   XCENC  =       930.09932955
  PAW double counting   =      3974.11419353    -4055.20380067
  entropy T*S    EENTRO =        -0.00000000
  eigenvalues    EBANDS =        95.91059478
  atomic energy  EATOM  =      9416.14232778
  Solvation  Ediel_sol  =         0.00000000
  ---------------------------------------------------
  free energy    TOTEN  =      -581.00099581 eV

  energy without entropy =     -581.00099581  energy(sigma->0) =     -581.00099581


--------------------------------------------------------------------------------------------------------




--------------------------------------- Iteration      1(   8)  ---------------------------------------


    POTLOK:  cpu time    0.0702: real time    0.0706
    SETDIJ:  cpu time    0.0387: real time    0.0387
     EDDAV:  cpu time   16.0848: real time   16.0857
       DOS:  cpu time    0.0030: real time    0.0030
    CHARGE:  cpu time    0.5109: real time    0.5110
    MIXING:  cpu time    0.0044: real time    0.0044
    --------------------------------------------
      LOOP:  cpu time   16.7120: real time   16.7132

 eigenvalue-minimisations  :  9600
 total energy-change (2. order) :-0.5539737E-01  (-0.2297149E-01)
 number of electron     256.0000003 magnetization 
 augmentation part        5.7325014 magnetization 

 Broyden mixing:
  rms(total) = 0.20778E-01    rms(broyden)= 0.20498E-01
  rms(prec ) = 0.25231E-01
  weight for this iteration     100.00

 eigenvalues of (default mixing * dielectric matrix)
  average eigenvalue GAMMA=   2.1064
  1.4663  2.6859  2.1671

 Free energy of the ion-electron system (eV)
  ---------------------------------------------------
  alpha Z        PSCENC =       875.26295871
  Ewald energy   TEWEN  =    -10953.73852561
  -Hartree energ DENC   =      -866.25386267
  -exchange      EXHF   =         0.00000000
  -V(xc)+E(xc)   XCENC  =       930.37311720
  PAW double counting   =      4027.14494162    -4107.21311757
  entropy T*S    EENTRO =        -0.00000000
  eigenvalues    EBANDS =        97.22576736
  atomic energy  EATOM  =      9416.14232778
  Solvation  Ediel_sol  =         0.00000000
  ---------------------------------------------------
  free energy    TOTEN  =      -581.05639318 eV

  energy without entropy =     -581.05639318  energy(sigma->0) =     -581.05639318


--------------------------------------------------------------------------------------------------------




--------------------------------------- Iteration      1(   9)  ---------------------------------------


    POTLOK:  cpu time    0.1253: real time    0.1257
    SETDIJ:  cpu time    0.0395: real time    0.0395
     EDDAV:  cpu time   18.1455: real time   18.1465
       DOS:  cpu time    0.0140: real time    0.0140
    CHARGE:  cpu time    0.5136: real time    0.5137
    MIXING:  cpu time    0.0078: real time    0.0078
    --------------------------------------------
      LOOP:  cpu time   18.8458: real time   18.8472

 eigenvalue-minimisations  : 10016
 total energy-change (2. order) :-0.2170390E-02  (-0.3639543E-03)
 number of electron     256.0000003 magnetization 
 augmentation part        5.7314439 magnetization 

 Broyden mixing:
  rms(total) = 0.77964E-02    rms(broyden)= 0.77762E-02
  rms(prec ) = 0.99576E-02
  weight for this iteration     100.00

 eigenvalues of (default mixing * dielectric matrix)
  average eigenvalue GAMMA=   2.0495
  0.9676  2.7680  2.4764  1.9860

 Free energy of the ion-electron system (eV)
  ---------------------------------------------------
  alpha Z        PSCENC =       875.26295871
  Ewald energy   TEWEN  =    -10953.73852561
  -Hartree energ DENC   =      -865.76696667
  -exchange      EXHF   =         0.00000000
  -V(xc)+E(xc)   XCENC  =       930.32534795
  PAW double counting   =      4022.46240577    -4102.43210168
  entropy T*S    EENTRO =        -0.00000000
  eigenvalues    EBANDS =        96.68599018
  atomic energy  EATOM  =      9416.14232778
  Solvation  Ediel_sol  =         0.00000000
  ---------------------------------------------------
  free energy    TOTEN  =      -581.05856357 eV

  energy without entropy =     -581.05856357  energy(sigma->0) =     -581.05856357


--------------------------------------------------------------------------------------------------------




--------------------------------------- Iteration      1(  10)  ---------------------------------------


    POTLOK:  cpu time    0.0572: real time    0.0575
    SETDIJ:  cpu time    0.0396: real time    0.0396
     EDDAV:  cpu time   15.7109: real time   15.7118
       DOS:  cpu time    0.0031: real time    0.0031
    CHARGE:  cpu time    0.5153: real time    0.5153
    MIXING:  cpu time    0.0046: real time    0.0046
    --------------------------------------------
      LOOP:  cpu time   16.3306: real time   16.3318

 eigenvalue-minimisations  :  9376
 total energy-change (2. order) :-0.4689769E-03  (-0.4344005E-04)
 number of electron     256.0000003 magnetization 
 augmentation part        5.7311524 magnetization 

 Broyden mixing:
  rms(total) = 0.78635E-03    rms(broyden)= 0.77089E-03
  rms(prec ) = 0.11678E-02
  weight for this iteration     100.00

 eigenvalues of (default mixing * dielectric matrix)
  average eigenvalue GAMMA=   1.9653
  2.9504  2.5521  2.0678  0.9838  1.2721

 Free energy of the ion-electron system (eV)
  ---------------------------------------------------
  alpha Z        PSCENC =       875.26295871
  Ewald energy   TEWEN  =    -10953.73852561
  -Hartree energ DENC   =      -866.17738924
  -exchange      EXHF   =         0.00000000
  -V(xc)+E(xc)   XCENC  =       930.36125988
  PAW double counting   =      4019.23880037    -4099.22344914
  entropy T*S    EENTRO =        -0.00000000
  eigenvalues    EBANDS =        97.07498470
  atomic energy  EATOM  =      9416.14232778
  Solvation  Ediel_sol  =         0.00000000
  ---------------------------------------------------
  free energy    TOTEN  =      -581.05903254 eV

  energy without entropy =     -581.05903254  energy(sigma->0) =     -581.05903254


--------------------------------------------------------------------------------------------------------




--------------------------------------- Iteration      1(  11)  ---------------------------------------


    POTLOK:  cpu time    0.0579: real time    0.0583
    SETDIJ:  cpu time    0.0388: real time    0.0387
     EDDAV:  cpu time   17.4825: real time   17.4835
       DOS:  cpu time    0.0028: real time    0.0028
    CHARGE:  cpu time    0.5083: real time    0.5083
    MIXING:  cpu time    0.0050: real time    0.0050
    --------------------------------------------
      LOOP:  cpu time   18.0953: real time   18.0967

 eigenvalue-minimisations  : 10048
 total energy-change (2. order) :-0.4057130E-05  (-0.1160714E-05)
 number of electron     256.0000003 magnetization 
 augmentation part        5.7309506 magnetization 

 Broyden mixing:
  rms(total) = 0.20609E-03    rms(broyden)= 0.20008E-03
  rms(prec ) = 0.27580E-03
  weight for this iteration     100.00

 eigenvalues of (default mixing * dielectric matrix)
  average eigenvalue GAMMA=   1.9956
  2.9975  2.5822  2.3877  2.0206  0.9928  0.9928

 Free energy of the ion-electron system (eV)
  ---------------------------------------------------
  alpha Z        PSCENC =       875.26295871
  Ewald energy   TEWEN  =    -10953.73852561
  -Hartree energ DENC   =      -866.29748679
  -exchange      EXHF   =         0.00000000
  -V(xc)+E(xc)   XCENC  =       930.37245510
  PAW double counting   =      4019.60701598    -4099.59648977
  entropy T*S    EENTRO =        -0.00000000
  eigenvalues    EBANDS =        97.18870798
  atomic energy  EATOM  =      9416.14232778
  Solvation  Ediel_sol  =         0.00000000
  ---------------------------------------------------
  free energy    TOTEN  =      -581.05903660 eV

  energy without entropy =     -581.05903660  energy(sigma->0) =     -581.05903660


--------------------------------------------------------------------------------------------------------




--------------------------------------- Iteration      1(  12)  ---------------------------------------


    POTLOK:  cpu time    0.0675: real time    0.0678
    SETDIJ:  cpu time    0.0412: real time    0.0412
     EDDAV:  cpu time   16.5839: real time   16.5848
       DOS:  cpu time    0.0128: real time    0.0129
    CHARGE:  cpu time    0.5084: real time    0.5084
    MIXING:  cpu time    0.0051: real time    0.0051
    --------------------------------------------
      LOOP:  cpu time   17.2189: real time   17.2202

 eigenvalue-minimisations  :  9792
 total energy-change (2. order) :-0.2364541E-06  (-0.5075556E-07)
 number of electron     256.0000003 magnetization 
 augmentation part        5.7309724 magnetization 

 Broyden mixing:
  rms(total) = 0.17764E-04    rms(broyden)= 0.16238E-04
  rms(prec ) = 0.21041E-04
  weight for this iteration     100.00

 eigenvalues of (default mixing * dielectric matrix)
  average eigenvalue GAMMA=   1.8802
  2.9480  2.6447  2.5013  2.0354  0.9693  1.0313  1.0313

 Free energy of the ion-electron system (eV)
  ---------------------------------------------------
  alpha Z        PSCENC =       875.26295871
  Ewald energy   TEWEN  =    -10953.73852561
  -Hartree energ DENC   =      -866.27955521
  -exchange      EXHF   =         0.00000000
  -V(xc)+E(xc)   XCENC  =       930.37079890
  PAW double counting   =      4019.66481297    -4099.65235465
  entropy T*S    EENTRO =        -0.00000000
  eigenvalues    EBANDS =        97.17050026
  atomic energy  EATOM  =      9416.14232778
  Solvation  Ediel_sol  =         0.00000000
  ---------------------------------------------------
  free energy    TOTEN  =      -581.05903684 eV

  energy without entropy =     -581.05903684  energy(sigma->0) =     -581.05903684


--------------------------------------------------------------------------------------------------------




--------------------------------------- Iteration      1(  13)  ---------------------------------------


    POTLOK:  cpu time    0.0566: real time    0.0569
    SETDIJ:  cpu time    0.0391: real time    0.0391
     EDDAV:  cpu time   14.5343: real time   14.5351
       DOS:  cpu time    0.0029: real time    0.0029
    CHARGE:  cpu time    0.5095: real time    0.5096
    MIXING:  cpu time    0.0058: real time    0.0058
    --------------------------------------------
      LOOP:  cpu time   15.1482: real time   15.1494

 eigenvalue-minimisations  :  7488
 total energy-change (2. order) :-0.1109802E-06  (-0.7132545E-09)
 number of electron     256.0000003 magnetization 
 augmentation part        5.7309692 magnetization 

 Broyden mixing:
  rms(total) = 0.44804E-05    rms(broyden)= 0.42264E-05
  rms(prec ) = 0.52290E-05
  weight for this iteration     100.00

 eigenvalues of (default mixing * dielectric matrix)
  average eigenvalue GAMMA=   2.0127
  2.9812  2.9812  2.0364  2.6129  2.5004  1.0107  1.0107  0.9684

 Free energy of the ion-electron system (eV)
  ---------------------------------------------------
  alpha Z        PSCENC =       875.26295871
  Ewald energy   TEWEN  =    -10953.73852561
  -Hartree energ DENC   =      -866.27837793
  -exchange      EXHF   =         0.00000000
  -V(xc)+E(xc)   XCENC  =       930.37068729
  PAW double counting   =      4019.66402275    -4099.65153783
  entropy T*S    EENTRO =        -0.00000000
  eigenvalues    EBANDS =        97.16940789
  atomic energy  EATOM  =      9416.14232778
  Solvation  Ediel_sol  =         0.00000000
  ---------------------------------------------------
  free energy    TOTEN  =      -581.05903695 eV

  energy without entropy =     -581.05903695  energy(sigma->0) =     -581.05903695


--------------------------------------------------------------------------------------------------------




--------------------------------------- Iteration      1(  14)  ---------------------------------------


    POTLOK:  cpu time    0.0581: real time    0.0585
    SETDIJ:  cpu time    0.0391: real time    0.0391
     EDDAV:  cpu time   12.8698: real time   12.8705
       DOS:  cpu time    0.0028: real time    0.0028
    CHARGE:  cpu time    0.5184: real time    0.5185
    MIXING:  cpu time    0.0057: real time    0.0057
    --------------------------------------------
      LOOP:  cpu time   13.4942: real time   13.4952

 eigenvalue-minimisations  :  6656
 total energy-change (2. order) :-0.1278022E-07  (-0.1113071E-09)
 number of electron     256.0000003 magnetization 
 augmentation part        5.7309693 magnetization 

 Broyden mixing:
  rms(total) = 0.17329E-05    rms(broyden)= 0.17121E-05
  rms(prec ) = 0.23303E-05
  weight for this iteration     100.00

 eigenvalues of (default mixing * dielectric matrix)
  average eigenvalue GAMMA=   1.8640
  2.0400  2.9255  2.7174  2.5317  2.5317  0.9898  0.9898  1.0253  1.0253

 Free energy of the ion-electron system (eV)
  ---------------------------------------------------
  alpha Z        PSCENC =       875.26295871
  Ewald energy   TEWEN  =    -10953.73852561
  -Hartree energ DENC   =      -866.27799558
  -exchange      EXHF   =         0.00000000
  -V(xc)+E(xc)   XCENC  =       930.37065158
  PAW double counting   =      4019.65816422    -4099.64566953
  entropy T*S    EENTRO =        -0.00000000
  eigenvalues    EBANDS =        97.16905147
  atomic energy  EATOM  =      9416.14232778
  Solvation  Ediel_sol  =         0.00000000
  ---------------------------------------------------
  free energy    TOTEN  =      -581.05903696 eV

  energy without entropy =     -581.05903696  energy(sigma->0) =     -581.05903696


--------------------------------------------------------------------------------------------------------




--------------------------------------- Iteration      1(  15)  ---------------------------------------


    POTLOK:  cpu time    0.0578: real time    0.0582
    SETDIJ:  cpu time    0.0420: real time    0.0420
     EDDAV:  cpu time   12.3087: real time   12.3094
       DOS:  cpu time    0.0030: real time    0.0030
    --------------------------------------------
      LOOP:  cpu time   12.4112: real time   12.4123

 eigenvalue-minimisations  :  5952
 total energy-change (2. order) : 0.6602932E-09  (-0.2831454E-10)
 number of electron     256.0000003 magnetization 
 augmentation part        5.7309693 magnetization 

 Free energy of the ion-electron system (eV)
  ---------------------------------------------------
  alpha Z        PSCENC =       875.26295871
  Ewald energy   TEWEN  =    -10953.73852561
  -Hartree energ DENC   =      -866.27813428
  -exchange      EXHF   =         0.00000000
  -V(xc)+E(xc)   XCENC  =       930.37066458
  PAW double counting   =      4019.65913013    -4099.64664593
  entropy T*S    EENTRO =        -0.00000000
  eigenvalues    EBANDS =        97.16918765
  atomic energy  EATOM  =      9416.14232778
  Solvation  Ediel_sol  =         0.00000000
  ---------------------------------------------------
  free energy    TOTEN  =      -581.05903696 eV

  energy without entropy =     -581.05903696  energy(sigma->0) =     -581.05903696


--------------------------------------------------------------------------------------------------------




 average (electrostatic) potential at core
  the test charge radii are     0.6991
  (the norm of the test charge is              1.0000)
       1 -46.0852       2 -46.0852       3 -46.0852       4 -46.0852       5 -46.0852
       6 -46.0852       7 -46.0852       8 -46.0852       9 -46.0852      10 -46.0852
      11 -46.0852      12 -46.0852      13 -46.0852      14 -46.0852      15 -46.0852
      16 -46.0852      17 -46.0852      18 -46.0852      19 -46.0852      20 -46.0852
      21 -46.0852      22 -46.0852      23 -46.0852      24 -46.0852      25 -46.0852
      26 -46.0852      27 -46.0852      28 -46.0852      29 -46.0852      30 -46.0852
      31 -46.0852      32 -46.0852      33 -46.0852      34 -46.0852      35 -46.0852
      36 -46.0852      37 -46.0852      38 -46.0852      39 -46.0852      40 -46.0852
      41 -46.0852      42 -46.0852      43 -46.0852      44 -46.0852      45 -46.0852
      46 -46.0852      47 -46.0852      48 -46.0852      49 -46.0852      50 -46.0852
      51 -46.0852      52 -46.0852      53 -46.0852      54 -46.0852      55 -46.0852
      56 -46.0852      57 -46.0852      58 -46.0852      59 -46.0852      60 -46.0852
      61 -46.0852      62 -46.0852      63 -46.0852      64 -46.0852
 
 
 
 E-fermi :   9.3585     XC(G=0): -12.9785     alpha+bet :-16.8499


 k-point     1 :       0.0000    0.0000    0.0000
  band No.  band energies     occupation 
      1     -11.7723      2.00000
      2      -9.5655      2.00000
      3      -9.5655      2.00000
      4      -9.5655      2.00000
      5      -9.5655      2.00000
      6      -9.5655      2.00000
      7      -9.5655      2.00000
      8      -7.4674      2.00000
      9      -7.4674      2.00000
     10      -7.4674      2.00000
     11      -7.4674      2.00000
     12      -7.4674      2.00000
     13      -7.4674      2.00000
     14      -7.4674      2.00000
     15      -7.4674      2.00000
     16      -7.4674      2.00000
     17      -7.4674      2.00000
     18      -7.4674      2.00000
     19      -7.4674      2.00000
     20      -6.2754      2.00000
     21      -6.2754      2.00000
     22      -6.2754      2.00000
     23      -6.2754      2.00000
     24      -3.7843      2.00000
     25      -3.7843      2.00000
     26      -3.7843      2.00000
     27      -3.7843      2.00000
     28      -3.3705      2.00000
     29      -3.3705      2.00000
     30      -3.3705      2.00000
     31      -3.3705      2.00000
     32      -3.3705      2.00000
     33      -3.3705      2.00000
     34      -2.6563      2.00000
     35      -2.6563      2.00000
     36      -2.6563      2.00000
     37      -2.6563      2.00000
     38      -2.6563      2.00000
     39      -2.6563      2.00000
     40      -2.6563      2.00000
     41      -2.6563      2.00000
     42      -2.6563      2.00000
     43      -2.6563      2.00000
     44      -2.6563      2.00000
     45      -2.6563      2.00000
     46       0.5928      2.00000
     47       0.5928      2.00000
     48       0.5928      2.00000
     49       0.5928      2.00000
     50       0.5928      2.00000
     51       0.5928      2.00000
     52       0.5928      2.00000
     53       0.5928      2.00000
     54       0.5928      2.00000
[...]
      4.532152  0.906430  6.345013     0.054710    0.015512    0.090292  
      0.906430  4.532152  6.345013    -0.096686    0.099084   -0.090292  
      4.532152  4.532152  6.345013    -0.096686    0.015512   -0.051610  
      0.000000  1.812861  0.000000    -0.018339    0.024476    0.007439  
      3.625721  1.812861  0.000000    -0.018339   -0.091447    0.036825  
      0.000000  5.438582  0.000000    -0.067388    0.024476   -0.036825  
      3.625721  5.438582  0.000000    -0.067388   -0.091447   -0.007439  
      0.000000  1.812861  3.625721     0.067388    0.091447    0.007439  
      3.625721  1.812861  3.625721     0.067388   -0.024476    0.036825  
      0.000000  5.438582  3.625721     0.018339    0.091447   -0.036825  
      3.625721  5.438582  3.625721     0.018339   -0.024476   -0.007439  
      2.719291  2.719291  2.719291    -0.004596   -0.101386   -0.021780  
      6.345013  2.719291  2.719291    -0.004596   -0.013209   -0.024447  
      2.719291  6.345013  2.719291     0.046572   -0.101386    0.024447  
      6.345013  6.345013  2.719291     0.046572   -0.013209    0.021780  
      2.719291  2.719291  6.345013    -0.046572    0.013209   -0.021780  
      6.345013  2.719291  6.345013    -0.046572    0.101386   -0.024447  
      2.719291  6.345013  6.345013     0.004596    0.013209    0.024447  
      6.345013  6.345013  6.345013     0.004596    0.101386    0.021780  
      1.812861  0.000000  0.000000     0.033185   -0.032792    0.049130  
      5.438582  0.000000  0.000000     0.033185   -0.034179    0.093394  
      1.812861  3.625721  0.000000    -0.118912   -0.032792   -0.093394  
      5.438582  3.625721  0.000000    -0.118912   -0.034179   -0.049130  
      1.812861  0.000000  3.625721     0.118912    0.034179    0.049130  
      5.438582  0.000000  3.625721     0.118912    0.032792    0.093394  
      1.812861  3.625721  3.625721    -0.033185    0.034179   -0.093394  
      5.438582  3.625721  3.625721    -0.033185    0.032792   -0.049130  
      2.719291  0.906430  0.906430     0.061380   -0.150403    0.072285  
      6.345013  0.906430  0.906430     0.061380   -0.062226    0.069618  
      2.719291  4.532152  0.906430    -0.090016   -0.150403   -0.069618  
      6.345013  4.532152  0.906430    -0.090016   -0.062226   -0.072285  
      2.719291  0.906430  4.532152     0.090016    0.062226    0.072285  
      6.345013  0.906430  4.532152     0.090016    0.150403    0.069618  
      2.719291  4.532152  4.532152    -0.061380    0.062226   -0.069618  
      6.345013  4.532152  4.532152    -0.061380    0.150403   -0.072285  
      1.812861  1.812861  1.812861     0.034638   -0.109626   -0.000000  
      5.438582  1.812861  1.812861     0.034638   -0.111013    0.044264  
      1.812861  5.438582  1.812861    -0.014412   -0.109626   -0.044264  
      5.438582  5.438582  1.812861    -0.014412   -0.111013    0.000000  
      1.812861  1.812861  5.438582     0.014412    0.111013    0.000000  
      5.438582  1.812861  5.438582     0.014412    0.109626    0.044264  
      1.812861  5.438582  5.438582    -0.034638    0.111013   -0.044264  
      5.438582  5.438582  5.438582    -0.034638    0.109626    0.000000  
 
 190 f  =    0.000004 THz     0.000027 2PiTHz    0.000146 cm-1     0.000018 meV
             X         Y         Z           dx          dy          dz
      0.906430  2.719291  0.906430     0.097684    0.077990   -0.000618  
      4.532152  2.719291  0.906430     0.097684    0.077990   -0.000618  
      0.906430  6.345013  0.906430     0.097684    0.077990   -0.000618  
      4.532152  6.345013  0.906430     0.097684    0.077990   -0.000618  
      0.906430  2.719291  4.532152     0.097684    0.077990   -0.000618  
      4.532152  2.719291  4.532152     0.097684    0.077990   -0.000618  
      0.906430  6.345013  4.532152     0.097684    0.077990   -0.000618  
      4.532152  6.345013  4.532152     0.097684    0.077990   -0.000618  
      0.000000  0.000000  1.812861     0.097684    0.077990   -0.000618  
      3.625721  0.000000  1.812861     0.097684    0.077990   -0.000618  
      0.000000  3.625721  1.812861     0.097684    0.077990   -0.000618  
      3.625721  3.625721  1.812861     0.097684    0.077990   -0.000618  
      0.000000  0.000000  5.438582     0.097684    0.077990   -0.000618  
      3.625721  0.000000  5.438582     0.097684    0.077990   -0.000618  
      0.000000  3.625721  5.438582     0.097684    0.077990   -0.000618  
      3.625721  3.625721  5.438582     0.097684    0.077990   -0.000618  
      0.906430  0.906430  2.719291     0.097684    0.077990   -0.000618  
      4.532152  0.906430  2.719291     0.097684    0.077990   -0.000618  
      0.906430  4.532152  2.719291     0.097684    0.077990   -0.000618  
      4.532152  4.532152  2.719291     0.097684    0.077990   -0.000618  
      0.906430  0.906430  6.345013     0.097684    0.077990   -0.000618  
      4.532152  0.906430  6.345013     0.097684    0.077990   -0.000618  
      0.906430  4.532152  6.345013     0.097684    0.077990   -0.000618  
      4.532152  4.532152  6.345013     0.097684    0.077990   -0.000618  
      0.000000  1.812861  0.000000     0.097684    0.077990   -0.000618  
      3.625721  1.812861  0.000000     0.097684    0.077990   -0.000618  
      0.000000  5.438582  0.000000     0.097684    0.077990   -0.000618  
      3.625721  5.438582  0.000000     0.097684    0.077990   -0.000618  
      0.000000  1.812861  3.625721     0.097684    0.077990   -0.000618  
      3.625721  1.812861  3.625721     0.097684    0.077990   -0.000618  
      0.000000  5.438582  3.625721     0.097684    0.077990   -0.000618  
      3.625721  5.438582  3.625721     0.097684    0.077990   -0.000618  
      2.719291  2.719291  2.719291     0.097684    0.077990   -0.000618  
      6.345013  2.719291  2.719291     0.097684    0.077990   -0.000618  
      2.719291  6.345013  2.719291     0.097684    0.077990   -0.000618  
      6.345013  6.345013  2.719291     0.097684    0.077990   -0.000618  
      2.719291  2.719291  6.345013     0.097684    0.077990   -0.000618  
      6.345013  2.719291  6.345013     0.097684    0.077990   -0.000618  
      2.719291  6.345013  6.345013     0.097684    0.077990   -0.000618  
      6.345013  6.345013  6.345013     0.097684    0.077990   -0.000618  
      1.812861  0.000000  0.000000     0.097684    0.077990   -0.000618  
      5.438582  0.000000  0.000000     0.097684    0.077990   -0.000618  
      1.812861  3.625721  0.000000     0.097684    0.077990   -0.000618  
      5.438582  3.625721  0.000000     0.097684    0.077990   -0.000618  
      1.812861  0.000000  3.625721     0.097684    0.077990   -0.000618  
      5.438582  0.000000  3.625721     0.097684    0.077990   -0.000618  
      1.812861  3.625721  3.625721     0.097684    0.077990   -0.000618  
      5.438582  3.625721  3.625721     0.097684    0.077990   -0.000618  
      2.719291  0.906430  0.906430     0.097684    0.077990   -0.000618  
      6.345013  0.906430  0.906430     0.097684    0.077990   -0.000618  
      2.719291  4.532152  0.906430     0.097684    0.077990   -0.000618  
      6.345013  4.532152  0.906430     0.097684    0.077990   -0.000618  
      2.719291  0.906430  4.532152     0.097684    0.077990   -0.000618  
      6.345013  0.906430  4.532152     0.097684    0.077990   -0.000618  
      2.719291  4.532152  4.532152     0.097684    0.077990   -0.000618  
      6.345013  4.532152  4.532152     0.097684    0.077990   -0.000618  
      1.812861  1.812861  1.812861     0.097684    0.077990   -0.000618  
      5.438582  1.812861  1.812861     0.097684    0.077990   -0.000618  
      1.812861  5.438582  1.812861     0.097684    0.077990   -0.000618  
      5.438582  5.438582  1.812861     0.097684    0.077990   -0.000618  
      1.812861  1.812861  5.438582     0.097684    0.077990   -0.000618  
      5.438582  1.812861  5.438582     0.097684    0.077990   -0.000618  
      1.812861  5.438582  5.438582     0.097684    0.077990   -0.000618  
      5.438582  5.438582  5.438582     0.097684    0.077990   -0.000618  
 
 191 f  =    0.000004 THz     0.000026 2PiTHz    0.000136 cm-1     0.000017 meV
             X         Y         Z           dx          dy          dz
      0.906430  2.719291  0.906430     0.077991   -0.097685   -0.000029  
      4.532152  2.719291  0.906430     0.077991   -0.097685   -0.000029  
      0.906430  6.345013  0.906430     0.077991   -0.097685   -0.000029  
      4.532152  6.345013  0.906430     0.077991   -0.097685   -0.000029  
      0.906430  2.719291  4.532152     0.077991   -0.097685   -0.000029  
      4.532152  2.719291  4.532152     0.077991   -0.097685   -0.000029  
      0.906430  6.345013  4.532152     0.077991   -0.097685   -0.000029  
      4.532152  6.345013  4.532152     0.077991   -0.097685   -0.000029  
      0.000000  0.000000  1.812861     0.077991   -0.097685   -0.000029  
      3.625721  0.000000  1.812861     0.077991   -0.097685   -0.000029  
      0.000000  3.625721  1.812861     0.077991   -0.097685   -0.000029  
      3.625721  3.625721  1.812861     0.077991   -0.097685   -0.000029  
      0.000000  0.000000  5.438582     0.077991   -0.097685   -0.000029  
      3.625721  0.000000  5.438582     0.077991   -0.097685   -0.000029  
      0.000000  3.625721  5.438582     0.077991   -0.097685   -0.000029  
      3.625721  3.625721  5.438582     0.077991   -0.097685   -0.000029  
      0.906430  0.906430  2.719291     0.077991   -0.097685   -0.000029  
      4.532152  0.906430  2.719291     0.077991   -0.097685   -0.000029  
      0.906430  4.532152  2.719291     0.077991   -0.097685   -0.000029  
      4.532152  4.532152  2.719291     0.077991   -0.097685   -0.000029  
      0.906430  0.906430  6.345013     0.077991   -0.097685   -0.000029  
      4.532152  0.906430  6.345013     0.077991   -0.097685   -0.000029  
      0.906430  4.532152  6.345013     0.077991   -0.097685   -0.000029  
      4.532152  4.532152  6.345013     0.077991   -0.097685   -0.000029  
      0.000000  1.812861  0.000000     0.077991   -0.097685   -0.000029  
      3.625721  1.812861  0.000000     0.077991   -0.097685   -0.000029  
      0.000000  5.438582  0.000000     0.077991   -0.097685   -0.000029  
      3.625721  5.438582  0.000000     0.077991   -0.097685   -0.000029  
      0.000000  1.812861  3.625721     0.077991   -0.097685   -0.000029  
      3.625721  1.812861  3.625721     0.077991   -0.097685   -0.000029  
      0.000000  5.438582  3.625721     0.077991   -0.097685   -0.000029  
      3.625721  5.438582  3.625721     0.077991   -0.097685   -0.000029  
      2.719291  2.719291  2.719291     0.077991   -0.097685   -0.000029  
      6.345013  2.719291  2.719291     0.077991   -0.097685   -0.000029  
      2.719291  6.345013  2.719291     0.077991   -0.097685   -0.000029  
      6.345013  6.345013  2.719291     0.077991   -0.097685   -0.000029  
      2.719291  2.719291  6.345013     0.077991   -0.097685   -0.000029  
      6.345013  2.719291  6.345013     0.077991   -0.097685   -0.000029  
      2.719291  6.345013  6.345013     0.077991   -0.097685   -0.000029  
      6.345013  6.345013  6.345013     0.077991   -0.097685   -0.000029  
      1.812861  0.000000  0.000000     0.077991   -0.097685   -0.000029  
      5.438582  0.000000  0.000000     0.077991   -0.097685   -0.000029  
      1.812861  3.625721  0.000000     0.077991   -0.097685   -0.000029  
      5.438582  3.625721  0.000000     0.077991   -0.097685   -0.000029  
      1.812861  0.000000  3.625721     0.077991   -0.097685   -0.000029  
      5.438582  0.000000  3.625721     0.077991   -0.097685   -0.000029  
      1.812861  3.625721  3.625721     0.077991   -0.097685   -0.000029  
      5.438582  3.625721  3.625721     0.077991   -0.097685   -0.000029  
      2.719291  0.906430  0.906430     0.077991   -0.097685   -0.000029  
      6.345013  0.906430  0.906430     0.077991   -0.097685   -0.000029  
      2.719291  4.532152  0.906430     0.077991   -0.097685   -0.000029  
      6.345013  4.532152  0.906430     0.077991   -0.097685   -0.000029  
      2.719291  0.906430  4.532152     0.077991   -0.097685   -0.000029  
      6.345013  0.906430  4.532152     0.077991   -0.097685   -0.000029  
      2.719291  4.532152  4.532152     0.077991   -0.097685   -0.000029  
      6.345013  4.532152  4.532152     0.077991   -0.097685   -0.000029  
      1.812861  1.812861  1.812861     0.077991   -0.097685   -0.000029  
      5.438582  1.812861  1.812861     0.077991   -0.097685   -0.000029  
      1.812861  5.438582  1.812861     0.077991   -0.097685   -0.000029  
      5.438582  5.438582  1.812861     0.077991   -0.097685   -0.000029  
      1.812861  1.812861  5.438582     0.077991   -0.097685   -0.000029  
      5.438582  1.812861  5.438582     0.077991   -0.097685   -0.000029  
      1.812861  5.438582  5.438582     0.077991   -0.097685   -0.000029  
      5.438582  5.438582  5.438582     0.077991   -0.097685   -0.000029  
 
 192 f  =    0.000004 THz     0.000024 2PiTHz    0.000127 cm-1     0.000016 meV
             X         Y         Z           dx          dy          dz
      0.906430  2.719291  0.906430    -0.000501   -0.000363   -0.124998  
      4.532152  2.719291  0.906430    -0.000501   -0.000363   -0.124998  
      0.906430  6.345013  0.906430    -0.000501   -0.000363   -0.124998  
      4.532152  6.345013  0.906430    -0.000501   -0.000363   -0.124998  
      0.906430  2.719291  4.532152    -0.000501   -0.000363   -0.124998  
      4.532152  2.719291  4.532152    -0.000501   -0.000363   -0.124998  
      0.906430  6.345013  4.532152    -0.000501   -0.000363   -0.124998  
      4.532152  6.345013  4.532152    -0.000501   -0.000363   -0.124998  
      0.000000  0.000000  1.812861    -0.000501   -0.000363   -0.124998  
      3.625721  0.000000  1.812861    -0.000501   -0.000363   -0.124998  
      0.000000  3.625721  1.812861    -0.000501   -0.000363   -0.124998  
      3.625721  3.625721  1.812861    -0.000501   -0.000363   -0.124998  
      0.000000  0.000000  5.438582    -0.000501   -0.000363   -0.124998  
      3.625721  0.000000  5.438582    -0.000501   -0.000363   -0.124998  
      0.000000  3.625721  5.438582    -0.000501   -0.000363   -0.124998  
      3.625721  3.625721  5.438582    -0.000501   -0.000363   -0.124998  
      0.906430  0.906430  2.719291    -0.000501   -0.000363   -0.124998  
      4.532152  0.906430  2.719291    -0.000501   -0.000363   -0.124998  
      0.906430  4.532152  2.719291    -0.000501   -0.000363   -0.124998  
      4.532152  4.532152  2.719291    -0.000501   -0.000363   -0.124998  
      0.906430  0.906430  6.345013    -0.000501   -0.000363   -0.124998  
      4.532152  0.906430  6.345013    -0.000501   -0.000363   -0.124998  
      0.906430  4.532152  6.345013    -0.000501   -0.000363   -0.124998  
      4.532152  4.532152  6.345013    -0.000501   -0.000363   -0.124998  
      0.000000  1.812861  0.000000    -0.000501   -0.000363   -0.124998  
      3.625721  1.812861  0.000000    -0.000501   -0.000363   -0.124998  
      0.000000  5.438582  0.000000    -0.000501   -0.000363   -0.124998  
      3.625721  5.438582  0.000000    -0.000501   -0.000363   -0.124998  
      0.000000  1.812861  3.625721    -0.000501   -0.000363   -0.124998  
      3.625721  1.812861  3.625721    -0.000501   -0.000363   -0.124998  
      0.000000  5.438582  3.625721    -0.000501   -0.000363   -0.124998  
      3.625721  5.438582  3.625721    -0.000501   -0.000363   -0.124998  
      2.719291  2.719291  2.719291    -0.000501   -0.000363   -0.124998  
      6.345013  2.719291  2.719291    -0.000501   -0.000363   -0.124998  
      2.719291  6.345013  2.719291    -0.000501   -0.000363   -0.124998  
      6.345013  6.345013  2.719291    -0.000501   -0.000363   -0.124998  
      2.719291  2.719291  6.345013    -0.000501   -0.000363   -0.124998  
      6.345013  2.719291  6.345013    -0.000501   -0.000363   -0.124998  
      2.719291  6.345013  6.345013    -0.000501   -0.000363   -0.124998  
      6.345013  6.345013  6.345013    -0.000501   -0.000363   -0.124998  
      1.812861  0.000000  0.000000    -0.000501   -0.000363   -0.124998  
      5.438582  0.000000  0.000000    -0.000501   -0.000363   -0.124998  
      1.812861  3.625721  0.000000    -0.000501   -0.000363   -0.124998  
      5.438582  3.625721  0.000000    -0.000501   -0.000363   -0.124998  
      1.812861  0.000000  3.625721    -0.000501   -0.000363   -0.124998  
      5.438582  0.000000  3.625721    -0.000501   -0.000363   -0.124998  
      1.812861  3.625721  3.625721    -0.000501   -0.000363   -0.124998  
      5.438582  3.625721  3.625721    -0.000501   -0.000363   -0.124998  
      2.719291  0.906430  0.906430    -0.000501   -0.000363   -0.124998  
      6.345013  0.906430  0.906430    -0.000501   -0.000363   -0.124998  
      2.719291  4.532152  0.906430    -0.000501   -0.000363   -0.124998  
      6.345013  4.532152  0.906430    -0.000501   -0.000363   -0.124998  
      2.719291  0.906430  4.532152    -0.000501   -0.000363   -0.124998  
      6.345013  0.906430  4.532152    -0.000501   -0.000363   -0.124998  
      2.719291  4.532152  4.532152    -0.000501   -0.000363   -0.124998  
      6.345013  4.532152  4.532152    -0.000501   -0.000363   -0.124998  
      1.812861  1.812861  1.812861    -0.000501   -0.000363   -0.124998  
      5.438582  1.812861  1.812861    -0.000501   -0.000363   -0.124998  
      1.812861  5.438582  1.812861    -0.000501   -0.000363   -0.124998  
      5.438582  5.438582  1.812861    -0.000501   -0.000363   -0.124998  
      1.812861  1.812861  5.438582    -0.000501   -0.000363   -0.124998  
      5.438582  1.812861  5.438582    -0.000501   -0.000363   -0.124998  
      1.812861  5.438582  5.438582    -0.000501   -0.000363   -0.124998  
      5.438582  5.438582  5.438582    -0.000501   -0.000363   -0.124998  
 


--------------------------------------------------------------------------------------------------------



 ELASTIC MODULI CONTR FROM IONIC RELAXATION (kBar)
 Direction    XX          YY          ZZ          XY          YZ          ZX
 --------------------------------------------------------------------------------
 XX          -0.0000     -0.0000     -0.0000      0.0000     -0.0000     -0.0000
 YY          -0.0000     -0.0000     -0.0000      0.0000      0.0000     -0.0000
 ZZ          -0.0000     -0.0000     -0.0000     -0.0000      0.0000     -0.0000
 XY           0.0000      0.0000     -0.0000     -3.1935      0.0000     -0.0000
 YZ          -0.0000      0.0000      0.0000      0.0000     -3.1935     -0.0000
 ZX          -0.0000     -0.0000     -0.0000     -0.0000     -0.0000     -3.1935
 --------------------------------------------------------------------------------



--------------------------------------------------------------------------------------------------------


     LOOP+:  cpu time  915.3549: real time  916.2224
    4ORBIT:  cpu time    0.0000: real time    0.0000

 total amount of memory used by VASP MPI-rank0    70987. kBytes
=======================================================================

   base      :      30000. kBytes
   nonl-proj :      16072. kBytes
   fftplans  :       4537. kBytes
   grid      :       5806. kBytes
   one-center:        196. kBytes
   wavefun   :      14376. kBytes
 
  
  
 General timing and accounting informations for this job:
 ========================================================
  
                  Total CPU time used (sec):      924.155
                            User time (sec):      919.331
                          System time (sec):        4.824
                         Elapsed time (sec):      925.076
  
                   Maximum memory used (kb):      395452.
                   Average memory used (kb):           0.
  
                          Minor page faults:        39299
                          Major page faults:           35
                 Voluntary context switches:          854
