# Thermal properties / unit cell (natom)

unit:
  temperature:   K
  free_energy:   kJ/mol
  entropy:       J/K/mol
  heat_capacity: J/K/mol

natom: 8    
cutoff_frequency:    0.000
num_modes: 2654208
num_integrated_modes: 2654208

zero_point_energy:     132.2721746
high_T_entropy:        442.0585152

thermal_properties:
- temperature:         0.0000000
  free_energy:       132.2721746
  entropy:             0.0000000
  heat_capacity:       0.0000000
  energy:            132.2721746

- temperature:         2.0000000
  free_energy:       132.2721746
  entropy:             0.0000000
  heat_capacity:       0.0000000
  energy:            132.2721746

- temperature:         4.0000000
  free_energy:       132.2721746
  entropy:             0.0000098
  heat_capacity:       0.0000606
  energy:            132.2721746

- temperature:         6.0000000
  free_energy:       132.2721745
  entropy:             0.0000781
  heat_capacity:       0.0003330
  energy:            132.2721750

- temperature:         8.0000000
  free_energy:       132.2721742
  entropy:             0.0002387
  heat_capacity:       0.0008547
  energy:            132.2721761

- temperature:        10.0000000
  free_energy:       132.2721735
  entropy:             0.0005129
  heat_capacity:       0.0016935
  energy:            132.2721786

- temperature:        12.0000000
  free_energy:       132.2721721
  entropy:             0.0009247
  heat_capacity:       0.0029364
  energy:            132.2721832

- temperature:        14.0000000
  free_energy:       132.2721697
  entropy:             0.0015007
  heat_capacity:       0.0046703
  energy:            132.2721907

- temperature:        16.0000000
  free_energy:       132.2721659
  entropy:             0.0022683
  heat_capacity:       0.0069810
  energy:            132.2722022

- temperature:        18.0000000
  free_energy:       132.2721605
  entropy:             0.0032553
  heat_capacity:       0.0099546
  energy:            132.2722190

- temperature:        20.0000000
  free_energy:       132.2721528
  entropy:             0.0044899
  heat_capacity:       0.0136778
  energy:            132.2722425

- temperature:        22.0000000
  free_energy:       132.2721423
  entropy:             0.0060004
  heat_capacity:       0.0182388
  energy:            132.2722743

- temperature:        24.0000000
  free_energy:       132.2721285
  entropy:             0.0078157
  heat_capacity:       0.0237274
  energy:            132.2723161

- temperature:        26.0000000
  free_energy:       132.2721108
  entropy:             0.0099647
  heat_capacity:       0.0302350
  energy:            132.2723699

- temperature:        28.0000000
  free_energy:       132.2720884
  entropy:             0.0124771
  heat_capacity:       0.0378554
  energy:            132.2724378

- temperature:        30.0000000
  free_energy:       132.2720607
  entropy:             0.0153827
  heat_capacity:       0.0466847
  energy:            132.2725221

- temperature:        32.0000000
  free_energy:       132.2720266
  entropy:             0.0187119
  heat_capacity:       0.0568218
  energy:            132.2726254

- temperature:        34.0000000
  free_energy:       132.2719855
  entropy:             0.0224958
  heat_capacity:       0.0683686
  energy:            132.2727504

- temperature:        36.0000000
  free_energy:       132.2719363
  entropy:             0.0267660
  heat_capacity:       0.0814311
  energy:            132.2728999

- temperature:        38.0000000
  free_energy:       132.2718781
  entropy:             0.0315546
  heat_capacity:       0.0961189
  energy:            132.2730772

- temperature:        40.0000000
  free_energy:       132.2718097
  entropy:             0.0368949
  heat_capacity:       0.1125471
  energy:            132.2732855

- temperature:        42.0000000
  free_energy:       132.2717301
  entropy:             0.0428208
  heat_capacity:       0.1308359
  energy:            132.2735286

- temperature:        44.0000000
  free_energy:       132.2716380
  entropy:             0.0493673
  heat_capacity:       0.1511123
  energy:            132.2738102

- temperature:        46.0000000
  free_energy:       132.2715322
  entropy:             0.0565706
  heat_capacity:       0.1735108
  energy:            132.2741345

- temperature:        48.0000000
  free_energy:       132.2714113
  entropy:             0.0644679
  heat_capacity:       0.1981739
  energy:            132.2745058

- temperature:        50.0000000
  free_energy:       132.2712739
  entropy:             0.0730982
  heat_capacity:       0.2252534
  energy:            132.2749288

- temperature:        52.0000000
  free_energy:       132.2711184
  entropy:             0.0825019
  heat_capacity:       0.2549112
  energy:            132.2754085

- temperature:        54.0000000
  free_energy:       132.2709433
  entropy:             0.0927211
  heat_capacity:       0.2873194
  energy:            132.2759502

- temperature:        56.0000000
  free_energy:       132.2707469
  entropy:             0.1037998
  heat_capacity:       0.3226615
  energy:            132.2765597

- temperature:        58.0000000
  free_energy:       132.2705275
  entropy:             0.1157841
  heat_capacity:       0.3611315
  energy:            132.2772430

- temperature:        60.0000000
  free_energy:       132.2702832
  entropy:             0.1287219
  heat_capacity:       0.4029351
  energy:            132.2780065

- temperature:        62.0000000
  free_energy:       132.2700119
  entropy:             0.1426635
  heat_capacity:       0.4482880
  energy:            132.2788571

- temperature:        64.0000000
  free_energy:       132.2697118
  entropy:             0.1576615
  heat_capacity:       0.4974162
  energy:            132.2798021

- temperature:        66.0000000
  free_energy:       132.2693806
  entropy:             0.1737707
  heat_capacity:       0.5505549
  energy:            132.2808494

- temperature:        68.0000000
  free_energy:       132.2690159
  entropy:             0.1910479
  heat_capacity:       0.6079470
  energy:            132.2820072

- temperature:        70.0000000
  free_energy:       132.2686155
  entropy:             0.2095523
  heat_capacity:       0.6698424
  energy:            132.2832842

- temperature:        72.0000000
  free_energy:       132.2681769
  entropy:             0.2293453
  heat_capacity:       0.7364961
  energy:            132.2846897

- temperature:        74.0000000
  free_energy:       132.2676973
  entropy:             0.2504902
  heat_capacity:       0.8081670
  energy:            132.2862335

- temperature:        76.0000000
  free_energy:       132.2671740
  entropy:             0.2730521
  heat_capacity:       0.8851159
  energy:            132.2879259

- temperature:        78.0000000
  free_energy:       132.2666041
  entropy:             0.2970978
  heat_capacity:       0.9676046
  energy:            132.2897777

- temperature:        80.0000000
  free_energy:       132.2659845
  entropy:             0.3226958
  heat_capacity:       1.0558933
  energy:            132.2918002

- temperature:        82.0000000
  free_energy:       132.2653122
  entropy:             0.3499159
  heat_capacity:       1.1502402
  energy:            132.2940053

- temperature:        84.0000000
  free_energy:       132.2645837
  entropy:             0.3788289
  heat_capacity:       1.2508991
  energy:            132.2964054

- temperature:        86.0000000
  free_energy:       132.2637957
  entropy:             0.4095066
  heat_capacity:       1.3581184
  energy:            132.2990133

- temperature:        88.0000000
  free_energy:       132.2629445
  entropy:             0.4420215
  heat_capacity:       1.4721402
  energy:            132.3018424

- temperature:        90.0000000
  free_energy:       132.2620264
  entropy:             0.4764464
  heat_capacity:       1.5931985
  energy:            132.3049065

- temperature:        92.0000000
  free_energy:       132.2610374
  entropy:             0.5128547
  heat_capacity:       1.7215190
  energy:            132.3082200

- temperature:        94.0000000
  free_energy:       132.2599736
  entropy:             0.5513195
  heat_capacity:       1.8573175
  energy:            132.3117976

- temperature:        96.0000000
  free_energy:       132.2588307
  entropy:             0.5919138
  heat_capacity:       2.0007997
  energy:            132.3156544

- temperature:        98.0000000
  free_energy:       132.2576044
  entropy:             0.6347103
  heat_capacity:       2.1521607
  energy:            132.3198060

- temperature:       100.0000000
  free_energy:       132.2562903
  entropy:             0.6797810
  heat_capacity:       2.3115842
  energy:            132.3242684

- temperature:       102.0000000
  free_energy:       132.2548838
  entropy:             0.7271973
  heat_capacity:       2.4792425
  energy:            132.3290579

- temperature:       104.0000000
  free_energy:       132.2533799
  entropy:             0.7770295
  heat_capacity:       2.6552960
  energy:            132.3341910

- temperature:       106.0000000
  free_energy:       132.2517740
  entropy:             0.8293469
  heat_capacity:       2.8398934
  energy:            132.3396848

- temperature:       108.0000000
  free_energy:       132.2500608
  entropy:             0.8842177
  heat_capacity:       3.0331717
  energy:            132.3455564

- temperature:       110.0000000
  free_energy:       132.2482354
  entropy:             0.9417086
  heat_capacity:       3.2352557
  energy:            132.3518233

- temperature:       112.0000000
  free_energy:       132.2462922
  entropy:             1.0018849
  heat_capacity:       3.4462590
  energy:            132.3585033

- temperature:       114.0000000
  free_energy:       132.2442260
  entropy:             1.0648103
  heat_capacity:       3.6662835
  energy:            132.3656144

- temperature:       116.0000000
  free_energy:       132.2420311
  entropy:             1.1305468
  heat_capacity:       3.8954196
  energy:            132.3731745

- temperature:       118.0000000
  free_energy:       132.2397019
  entropy:             1.1991549
  heat_capacity:       4.1337471
  energy:            132.3812022

- temperature:       120.0000000
  free_energy:       132.2372325
  entropy:             1.2706931
  heat_capacity:       4.3813349
  energy:            132.3897157

- temperature:       122.0000000
  free_energy:       132.2346171
  entropy:             1.3452180
  heat_capacity:       4.6382412
  energy:            132.3987337

- temperature:       124.0000000
  free_energy:       132.2318496
  entropy:             1.4227845
  heat_capacity:       4.9045145
  energy:            132.4082749

- temperature:       126.0000000
  free_energy:       132.2289239
  entropy:             1.5034454
  heat_capacity:       5.1801933
  energy:            132.4183580

- temperature:       128.0000000
  free_energy:       132.2258338
  entropy:             1.5872517
  heat_capacity:       5.4653066
  energy:            132.4290020

- temperature:       130.0000000
  free_energy:       132.2225728
  entropy:             1.6742522
  heat_capacity:       5.7598742
  energy:            132.4402256

- temperature:       132.0000000
  free_energy:       132.2191346
  entropy:             1.7644939
  heat_capacity:       6.0639073
  energy:            132.4520478

- temperature:       134.0000000
  free_energy:       132.2155126
  entropy:             1.8580216
  heat_capacity:       6.3774084
  energy:            132.4644875

- temperature:       136.0000000
  free_energy:       132.2117003
  entropy:             1.9548783
  heat_capacity:       6.7003717
  energy:            132.4775637

- temperature:       138.0000000
  free_energy:       132.2076909
  entropy:             2.0551047
  heat_capacity:       7.0327837
  energy:            132.4912953

- temperature:       140.0000000
  free_energy:       132.2034776
  entropy:             2.1587397
  heat_capacity:       7.3746231
  energy:            132.5057011

- temperature:       142.0000000
  free_energy:       132.1990536
  entropy:             2.2658201
  heat_capacity:       7.7258613
  energy:            132.5208001

- temperature:       144.0000000
  free_energy:       132.1944120
  entropy:             2.3763809
  heat_capacity:       8.0864626
  energy:            132.5366108

- temperature:       146.0000000
  free_energy:       132.1895457
  entropy:             2.4904547
  heat_capacity:       8.4563844
  energy:            132.5531521

- temperature:       148.0000000
  free_energy:       132.1844478
  entropy:             2.6080726
  heat_capacity:       8.8355776
  energy:            132.5704425

- temperature:       150.0000000
  free_energy:       132.1791111
  entropy:             2.7292634
  heat_capacity:       9.2239867
  energy:            132.5885006

- temperature:       152.0000000
  free_energy:       132.1735283
  entropy:             2.8540543
  heat_capacity:       9.6215500
  energy:            132.6073446

- temperature:       154.0000000
  free_energy:       132.1676924
  entropy:             2.9824702
  heat_capacity:      10.0281999
  energy:            132.6269928

- temperature:       156.0000000
  free_energy:       132.1615960
  entropy:             3.1145344
  heat_capacity:      10.4438630
  energy:            132.6474634

- temperature:       158.0000000
  free_energy:       132.1552318
  entropy:             3.2502684
  heat_capacity:      10.8684606
  energy:            132.6687742

- temperature:       160.0000000
  free_energy:       132.1485925
  entropy:             3.3896915
  heat_capacity:      11.3019086
  energy:            132.6909431

- temperature:       162.0000000
  free_energy:       132.1416706
  entropy:             3.5328217
  heat_capacity:      11.7441176
  energy:            132.7139877

- temperature:       164.0000000
  free_energy:       132.1344587
  entropy:             3.6796748
  heat_capacity:      12.1949935
  energy:            132.7379254

- temperature:       166.0000000
  free_energy:       132.1269494
  entropy:             3.8302650
  heat_capacity:      12.6544374
  energy:            132.7627734

- temperature:       168.0000000
  free_energy:       132.1191352
  entropy:             3.9846049
  heat_capacity:      13.1223458
  energy:            132.7885488

- temperature:       170.0000000
  free_energy:       132.1110085
  entropy:             4.1427051
  heat_capacity:      13.5986108
  energy:            132.8152684

- temperature:       172.0000000
  free_energy:       132.1025618
  entropy:             4.3045749
  heat_capacity:      14.0831203
  energy:            132.8429487

- temperature:       174.0000000
  free_energy:       132.0937877
  entropy:             4.4702218
  heat_capacity:      14.5757584
  energy:            132.8716063

- temperature:       176.0000000
  free_energy:       132.0846784
  entropy:             4.6396515
  heat_capacity:      15.0764051
  energy:            132.9012571

- temperature:       178.0000000
  free_energy:       132.0752265
  entropy:             4.8128685
  heat_capacity:      15.5849368
  energy:            132.9319171

- temperature:       180.0000000
  free_energy:       132.0654244
  entropy:             4.9898755
  heat_capacity:      16.1012265
  energy:            132.9636020

- temperature:       182.0000000
  free_energy:       132.0552645
  entropy:             5.1706737
  heat_capacity:      16.6251439
  energy:            132.9963271

- temperature:       184.0000000
  free_energy:       132.0447392
  entropy:             5.3552630
  heat_capacity:      17.1565554
  energy:            133.0301076

- temperature:       186.0000000
  free_energy:       132.0338409
  entropy:             5.5436415
  heat_capacity:      17.6953246
  energy:            133.0649583

- temperature:       188.0000000
  free_energy:       132.0225621
  entropy:             5.7358063
  heat_capacity:      18.2413123
  energy:            133.1008937

- temperature:       190.0000000
  free_energy:       132.0108952
  entropy:             5.9317528
  heat_capacity:      18.7943766
  energy:            133.1379282

- temperature:       192.0000000
  free_energy:       131.9988326
  entropy:             6.1314752
  heat_capacity:      19.3543734
  energy:            133.1760758

- temperature:       194.0000000
  free_energy:       131.9863668
  entropy:             6.3349663
  heat_capacity:      19.9211561
  energy:            133.2153502

- temperature:       196.0000000
  free_energy:       131.9734902
  entropy:             6.5422177
  heat_capacity:      20.4945761
  energy:            133.2557649

- temperature:       198.0000000
  free_energy:       131.9601954
  entropy:             6.7532195
  heat_capacity:      21.0744830
  energy:            133.2973329

- temperature:       200.0000000
  free_energy:       131.9464748
  entropy:             6.9679610
  heat_capacity:      21.6607245
  energy:            133.3400670

- temperature:       202.0000000
  free_energy:       131.9323211
  entropy:             7.1864298
  heat_capacity:      22.2531468
  energy:            133.3839799

- temperature:       204.0000000
  free_energy:       131.9177267
  entropy:             7.4086127
  heat_capacity:      22.8515946
  energy:            133.4290836

- temperature:       206.0000000
  free_energy:       131.9026842
  entropy:             7.6344953
  heat_capacity:      23.4559116
  energy:            133.4753902

- temperature:       208.0000000
  free_energy:       131.8871862
  entropy:             7.8640619
  heat_capacity:      24.0659402
  energy:            133.5229111

- temperature:       210.0000000
  free_energy:       131.8712255
  entropy:             8.0972961
  heat_capacity:      24.6815220
  energy:            133.5716576

- temperature:       212.0000000
  free_energy:       131.8547946
  entropy:             8.3341801
  heat_capacity:      25.3024978
  energy:            133.6216408

- temperature:       214.0000000
  free_energy:       131.8378863
  entropy:             8.5746953
  heat_capacity:      25.9287078
  energy:            133.6728711

- temperature:       216.0000000
  free_energy:       131.8204934
  entropy:             8.8188222
  heat_capacity:      26.5599918
  energy:            133.7253590

- temperature:       218.0000000
  free_energy:       131.8026086
  entropy:             9.0665400
  heat_capacity:      27.1961891
  energy:            133.7791144

- temperature:       220.0000000
  free_energy:       131.7842249
  entropy:             9.3178275
  heat_capacity:      27.8371392
  energy:            133.8341469

- temperature:       222.0000000
  free_energy:       131.7653350
  entropy:             9.5726623
  heat_capacity:      28.4826813
  energy:            133.8904660

- temperature:       224.0000000
  free_energy:       131.7459319
  entropy:             9.8310211
  heat_capacity:      29.1326549
  energy:            133.9480806

- temperature:       226.0000000
  free_energy:       131.7260085
  entropy:            10.0928801
  heat_capacity:      29.7868995
  energy:            134.0069995

- temperature:       228.0000000
  free_energy:       131.7055580
  entropy:            10.3582145
  heat_capacity:      30.4452552
  energy:            134.0672309

- temperature:       230.0000000
  free_energy:       131.6845734
  entropy:            10.6269988
  heat_capacity:      31.1075627
  energy:            134.1287831

- temperature:       232.0000000
  free_energy:       131.6630478
  entropy:            10.8992067
  heat_capacity:      31.7736631
  energy:            134.1916637

- temperature:       234.0000000
  free_energy:       131.6409743
  entropy:            11.1748115
  heat_capacity:      32.4433984
  energy:            134.2558802

- temperature:       236.0000000
  free_energy:       131.6183463
  entropy:            11.4537854
  heat_capacity:      33.1166113
  energy:            134.3214396

- temperature:       238.0000000
  free_energy:       131.5951569
  entropy:            11.7361005
  heat_capacity:      33.7931458
  energy:            134.3883488

- temperature:       240.0000000
  free_energy:       131.5713997
  entropy:            12.0217278
  heat_capacity:      34.4728465
  energy:            134.4566143

- temperature:       242.0000000
  free_energy:       131.5470678
  entropy:            12.3106380
  heat_capacity:      35.1555597
  energy:            134.5262422

- temperature:       244.0000000
  free_energy:       131.5221549
  entropy:            12.6028014
  heat_capacity:      35.8411325
  energy:            134.5972385

- temperature:       246.0000000
  free_energy:       131.4966545
  entropy:            12.8981874
  heat_capacity:      36.5294136
  energy:            134.6696086

- temperature:       248.0000000
  free_energy:       131.4705601
  entropy:            13.1967652
  heat_capacity:      37.2202531
  energy:            134.7433578

- temperature:       250.0000000
  free_energy:       131.4438653
  entropy:            13.4985035
  heat_capacity:      37.9135026
  energy:            134.8184912

- temperature:       252.0000000
  free_energy:       131.4165640
  entropy:            13.8033706
  heat_capacity:      38.6090154
  energy:            134.8950133

- temperature:       254.0000000
  free_energy:       131.3886498
  entropy:            14.1113343
  heat_capacity:      39.3066463
  energy:            134.9729287

- temperature:       256.0000000
  free_energy:       131.3601166
  entropy:            14.4223620
  heat_capacity:      40.0062519
  energy:            135.0522412

- temperature:       258.0000000
  free_energy:       131.3309583
  entropy:            14.7364209
  heat_capacity:      40.7076907
  energy:            135.1329549

- temperature:       260.0000000
  free_energy:       131.3011689
  entropy:            15.0534779
  heat_capacity:      41.4108229
  energy:            135.2150731

- temperature:       262.0000000
  free_energy:       131.2707424
  entropy:            15.3734993
  heat_capacity:      42.1155107
  energy:            135.2985992

- temperature:       264.0000000
  free_energy:       131.2396729
  entropy:            15.6964515
  heat_capacity:      42.8216182
  energy:            135.3835361

- temperature:       266.0000000
  free_energy:       131.2079547
  entropy:            16.0223003
  heat_capacity:      43.5290116
  energy:            135.4698866

- temperature:       268.0000000
  free_energy:       131.1755818
  entropy:            16.3510116
  heat_capacity:      44.2375592
  energy:            135.5576529

- temperature:       270.0000000
  free_energy:       131.1425487
  entropy:            16.6825509
  heat_capacity:      44.9471310
  energy:            135.6468375

- temperature:       272.0000000
  free_energy:       131.1088498
  entropy:            17.0168835
  heat_capacity:      45.6575997
  energy:            135.7374421

- temperature:       274.0000000
  free_energy:       131.0744794
  entropy:            17.3539745
  heat_capacity:      46.3688397
  energy:            135.8294684

- temperature:       276.0000000
  free_energy:       131.0394321
  entropy:            17.6937892
  heat_capacity:      47.0807278
  energy:            135.9229179

- temperature:       278.0000000
  free_energy:       131.0037024
  entropy:            18.0362922
  heat_capacity:      47.7931430
  energy:            136.0177916

- temperature:       280.0000000
  free_energy:       130.9672851
  entropy:            18.3814485
  heat_capacity:      48.5059663
  energy:            136.1140907

- temperature:       282.0000000
  free_energy:       130.9301749
  entropy:            18.7292228
  heat_capacity:      49.2190813
  energy:            136.2118157

- temperature:       284.0000000
  free_energy:       130.8923665
  entropy:            19.0795797
  heat_capacity:      49.9323736
  energy:            136.3109671

- temperature:       286.0000000
  free_energy:       130.8538549
  entropy:            19.4324839
  heat_capacity:      50.6457311
  energy:            136.4115452

- temperature:       288.0000000
  free_energy:       130.8146349
  entropy:            19.7878998
  heat_capacity:      51.3590441
  energy:            136.5135500

- temperature:       290.0000000
  free_energy:       130.7747016
  entropy:            20.1457921
  heat_capacity:      52.0722050
  energy:            136.6169813

- temperature:       292.0000000
  free_energy:       130.7340501
  entropy:            20.5061253
  heat_capacity:      52.7851088
  energy:            136.7218387

- temperature:       294.0000000
  free_energy:       130.6926755
  entropy:            20.8688640
  heat_capacity:      53.4976524
  energy:            136.8281215

- temperature:       296.0000000
  free_energy:       130.6505731
  entropy:            21.2339727
  heat_capacity:      54.2097352
  energy:            136.9358290

- temperature:       298.0000000
  free_energy:       130.6077381
  entropy:            21.6014162
  heat_capacity:      54.9212589
  energy:            137.0449601

- temperature:       300.0000000
  free_energy:       130.5641659
  entropy:            21.9711591
  heat_capacity:      55.6321275
  energy:            137.1555136

- temperature:       302.0000000
  free_energy:       130.5198519
  entropy:            22.3431662
  heat_capacity:      56.3422471
  energy:            137.2674881

- temperature:       304.0000000
  free_energy:       130.4747917
  entropy:            22.7174023
  heat_capacity:      57.0515262
  energy:            137.3808820

- temperature:       306.0000000
  free_energy:       130.4289808
  entropy:            23.0938325
  heat_capacity:      57.7598756
  energy:            137.4956936

- temperature:       308.0000000
  free_energy:       130.3824149
  entropy:            23.4724218
  heat_capacity:      58.4672082
  energy:            137.6119208

- temperature:       310.0000000
  free_energy:       130.3350897
  entropy:            23.8531353
  heat_capacity:      59.1734392
  energy:            137.7295617

- temperature:       312.0000000
  free_energy:       130.2870010
  entropy:            24.2359385
  heat_capacity:      59.8784860
  energy:            137.8486138

- temperature:       314.0000000
  free_energy:       130.2381446
  entropy:            24.6207967
  heat_capacity:      60.5822681
  energy:            137.9690748

- temperature:       316.0000000
  free_energy:       130.1885165
  entropy:            25.0076757
  heat_capacity:      61.2847074
  energy:            138.0909420

- temperature:       318.0000000
  free_energy:       130.1381126
  entropy:            25.3965411
  heat_capacity:      61.9857277
  energy:            138.2142127

- temperature:       320.0000000
  free_energy:       130.0869290
  entropy:            25.7873590
  heat_capacity:      62.6852550
  energy:            138.3388839

- temperature:       322.0000000
  free_energy:       130.0349619
  entropy:            26.1800956
  heat_capacity:      63.3832175
  energy:            138.4649526

- temperature:       324.0000000
  free_energy:       129.9822074
  entropy:            26.5747170
  heat_capacity:      64.0795454
  energy:            138.5924157

- temperature:       326.0000000
  free_energy:       129.9286618
  entropy:            26.9711899
  heat_capacity:      64.7741710
  energy:            138.7212697

- temperature:       328.0000000
  free_energy:       129.8743214
  entropy:            27.3694811
  heat_capacity:      65.4670286
  energy:            138.8515112

- temperature:       330.0000000
  free_energy:       129.8191827
  entropy:            27.7695574
  heat_capacity:      66.1580545
  energy:            138.9831366

- temperature:       332.0000000
  free_energy:       129.7632420
  entropy:            28.1713860
  heat_capacity:      66.8471869
  energy:            139.1161421

- temperature:       334.0000000
  free_energy:       129.7064960
  entropy:            28.5749343
  heat_capacity:      67.5343662
  energy:            139.2505240

- temperature:       336.0000000
  free_energy:       129.6489411
  entropy:            28.9801700
  heat_capacity:      68.2195345
  energy:            139.3862783

- temperature:       338.0000000
  free_energy:       129.5905742
  entropy:            29.3870610
  heat_capacity:      68.9026359
  energy:            139.5234008

- temperature:       340.0000000
  free_energy:       129.5313918
  entropy:            29.7955753
  heat_capacity:      69.5836163
  energy:            139.6618874

- temperature:       342.0000000
  free_energy:       129.4713908
  entropy:            30.2056812
  heat_capacity:      70.2624234
  energy:            139.8017338

- temperature:       344.0000000
  free_energy:       129.4105680
  entropy:            30.6173476
  heat_capacity:      70.9390069
  energy:            139.9429356

- temperature:       346.0000000
  free_energy:       129.3489204
  entropy:            31.0305431
  heat_capacity:      71.6133181
  energy:            140.0854883

- temperature:       348.0000000
  free_energy:       129.2864449
  entropy:            31.4452370
  heat_capacity:      72.2853101
  energy:            140.2293873

- temperature:       350.0000000
  free_energy:       129.2231385
  entropy:            31.8613986
  heat_capacity:      72.9549377
  energy:            140.3746280

- temperature:       352.0000000
  free_energy:       129.1589983
  entropy:            32.2789976
  heat_capacity:      73.6221574
  energy:            140.5212055

- temperature:       354.0000000
  free_energy:       129.0940215
  entropy:            32.6980040
  heat_capacity:      74.2869275
  energy:            140.6691150

- temperature:       356.0000000
  free_energy:       129.0282054
  entropy:            33.1183880