<?xml version="1.0" encoding="ISO-8859-1"?>
<modeling>
 <generator>
  <i name="program" type="string">vasp </i>
  <i name="version" type="string">5.4.4.18Apr17-6-g9f103f2a35  </i>
  <i name="subversion" type="string">(build Mar 12 2022 03:36:41) complex            parallel </i>
  <i name="platform" type="string">IFC19.0.3.199_CrayMPICH7.7.19 </i>
  <i name="date" type="string">2022 12 02 </i>
  <i name="time" type="string">02:09:50 </i>
 </generator>
 <incar>
  <i type="string" name="PREC">accurate</i>
  <i type="int" name="IALGO">    38</i>
  <i type="logical" name="ADDGRID"> T  </i>
  <i type="int" name="IBRION">     8</i>
  <i name="EDIFF">      0.00000001</i>
  <i type="logical" name="LREAL"> F  </i>
  <i type="int" name="ISMEAR">     0</i>
  <i name="SIGMA">      0.06000000</i>
  <i type="logical" name="LWAVE"> F  </i>
  <i type="logical" name="LCHARG"> F  </i>
  <v type="int" name="KPOINT_BSE">    -1     0     0     0</v>
 </incar>
 <structure name="primitive_cell" >
  <crystal>
   <varray name="basis" >
    <v>       1.81286072       1.81286072       0.00000000 </v>
    <v>       1.81286072       0.00000000      -1.81286072 </v>
    <v>       0.00000000       1.81286072      -1.81286072 </v>
   </varray>
   <i name="volume">     11.91580300 </i>
   <varray name="rec_basis" >
    <v>       0.27580718       0.27580718       0.27580718 </v>
    <v>       0.27580718      -0.27580718      -0.27580718 </v>
    <v>      -0.27580718       0.27580718      -0.27580718 </v>
   </varray>
  </crystal>
  <varray name="positions" >
   <v>       0.25000000       0.25000000       0.25000000 </v>
   <v>      -0.50000000      -0.50000000      -0.50000000 </v>
  </varray>
 </structure>
 <varray name="primitive_index" >
  <v type="int" >        1 </v>
  <v type="int" >       11 </v>
 </varray>
 <kpoints>
  <generation param="Gamma">
   <v type="int" name="divisions">       6        6        6 </v>
   <v name="usershift">      0.00000000       0.00000000       0.00000000 </v>
   <v name="genvec1">      0.16666667       0.00000000       0.00000000 </v>
   <v name="genvec2">      0.00000000       0.16666667       0.00000000 </v>
   <v name="genvec3">      0.00000000       0.00000000       0.16666667 </v>
   <v name="shift">      0.00000000       0.00000000       0.00000000 </v>
  </generation>
  <varray name="kpointlist" >
   <v>       0.00000000       0.00000000       0.00000000 </v>
   <v>       0.16666667       0.00000000       0.00000000 </v>
   <v>       0.33333333       0.00000000       0.00000000 </v>
   <v>       0.50000000       0.00000000       0.00000000 </v>
   <v>       0.16666667       0.16666667       0.00000000 </v>
   <v>       0.33333333       0.16666667       0.00000000 </v>
   <v>       0.50000000       0.16666667       0.00000000 </v>
   <v>       0.33333333       0.33333333       0.00000000 </v>
   <v>       0.50000000       0.33333333       0.00000000 </v>
   <v>       0.50000000       0.50000000       0.00000000 </v>
   <v>       0.16666667       0.16666667       0.16666667 </v>
   <v>       0.33333333       0.16666667       0.16666667 </v>
   <v>       0.50000000       0.16666667       0.16666667 </v>
   <v>       0.33333333       0.33333333       0.16666667 </v>
   <v>       0.50000000       0.33333333       0.16666667 </v>
   <v>       0.50000000       0.50000000       0.16666667 </v>
   <v>       0.33333333       0.33333333       0.33333333 </v>
   <v>       0.50000000       0.33333333       0.33333333 </v>
   <v>       0.50000000       0.50000000       0.33333333 </v>
   <v>       0.50000000       0.50000000       0.50000000 </v>
  </varray>
  <varray name="weights" >
   <v>       0.00462963 </v>
   <v>       0.02777778 </v>
   <v>       0.02777778 </v>
   <v>       0.01388889 </v>
   <v>       0.05555556 </v>
   <v>       0.11111111 </v>
   <v>       0.05555556 </v>
   <v>       0.05555556 </v>
   <v>       0.05555556 </v>
   <v>       0.01388889 </v>
   <v>       0.03703704 </v>
   <v>       0.11111111 </v>
   <v>       0.05555556 </v>
   <v>       0.11111111 </v>
   <v>       0.11111111 </v>
   <v>       0.02777778 </v>
   <v>       0.03703704 </v>
   <v>       0.05555556 </v>
   <v>       0.02777778 </v>
   <v>       0.00462963 </v>
  </varray>
 </kpoints>
 <parameters>
  <separator name="general" >
   <i type="string" name="SYSTEM">unknown system</i>
   <i type="logical" name="LCOMPAT"> F  </i>
  </separator>
  <separator name="electronic" >
   <i type="string" name="PREC">accura</i>
   <i name="ENMAX">    400.00000000</i>
   <i name="ENAUG">    644.87300000</i>
   <i name="EDIFF">      0.00000001</i>
   <i type="int" name="IALGO">    38</i>
   <i type="int" name="IWAVPR">    11</i>
   <i type="int" name="NBANDS">   192</i>
   <i name="NELECT">    256.00000000</i>
   <i type="int" name="TURBO">     0</i>
   <i type="int" name="IRESTART">     0</i>
   <i type="int" name="NREBOOT">     0</i>
   <i type="int" name="NMIN">     0</i>
   <i name="EREF">      0.00000000</i>
   <separator name="electronic smearing" >
    <i type="int" name="ISMEAR">     0</i>
    <i name="SIGMA">      0.06000000</i>
    <i name="KSPACING">      0.50000000</i>
    <i type="logical" name="KGAMMA"> T  </i>
   </separator>
   <separator name="electronic projectors" >
    <i type="logical" name="LREAL"> F  </i>
    <v name="ROPT">      0.00000000</v>
    <i type="int" name="LMAXPAW">  -100</i>
    <i type="int" name="LMAXMIX">     2</i>
    <i type="logical" name="NLSPLINE"> F  </i>
   </separator>
   <separator name="electronic startup" >
    <i type="int" name="ISTART">     0</i>
    <i type="int" name="ICHARG">     2</i>
    <i type="int" name="INIWAV">     1</i>
   </separator>
   <separator name="electronic spin" >
    <i type="int" name="ISPIN">     1</i>
    <i type="logical" name="LNONCOLLINEAR"> F  </i>
    <v name="MAGMOM">      1.00000000      1.00000000      1.00000000      1.00000000      1.00000000      1.00000000      1.00000000      1.00000000      1.00000000      1.00000000      1.00000000      1.00000000      1.00000000      1.00000000      1.00000000      1.00000000      1.00000000      1.00000000      1.00000000      1.00000000
      1.00000000      1.00000000      1.00000000      1.00000000      1.00000000      1.00000000      1.00000000      1.00000000      1.00000000      1.00000000      1.00000000      1.00000000      1.00000000      1.00000000      1.00000000      1.00000000      1.00000000      1.00000000      1.00000000      1.00000000
      1.00000000      1.00000000      1.00000000      1.00000000      1.00000000      1.00000000      1.00000000      1.00000000      1.00000000      1.00000000      1.00000000      1.00000000      1.00000000      1.00000000      1.00000000      1.00000000      1.00000000      1.00000000      1.00000000      1.00000000
      1.00000000      1.00000000      1.00000000      1.00000000</v>
    <i name="NUPDOWN">     -1.00000000</i>
    <i type="logical" name="LSORBIT"> F  </i>
    <v name="SAXIS">      0.00000000      0.00000000      1.00000000</v>
    <i type="logical" name="LSPIRAL"> F  </i>
    <v name="QSPIRAL">      0.00000000      0.00000000      0.00000000</v>
    <i type="logical" name="LZEROZ"> F  </i>
   </separator>
   <separator name="electronic exchange-correlation" >
    <i type="logical" name="LASPH"> F  </i>
    <i type="logical" name="LMETAGGA"> F  </i>
   </separator>
   <separator name="electronic convergence" >
    <i type="int" name="NELM">    60</i>
    <i type="int" name="NELMDL">    -5</i>
    <i type="int" name="NELMIN">     2</i>
    <i name="ENINI">    400.00000000</i>
    <separator name="electronic convergence detail" >
     <i type="logical" name="LDIAG"> T  </i>
     <i type="logical" name="LSUBROT"> F  </i>
     <i name="WEIMIN">      0.00100000</i>
     <i name="EBREAK">      0.00000000</i>
     <i name="DEPER">      0.30000000</i>
     <i type="int" name="NRMM">     4</i>
     <i name="TIME">      0.40000000</i>
    </separator>
   </separator>
   <separator name="electronic mixer" >
    <i name="AMIX">      0.40000000</i>
    <i name="BMIX">      1.00000000</i>
    <i name="AMIN">      0.10000000</i>
    <i name="AMIX_MAG">      1.60000000</i>
    <i name="BMIX_MAG">      1.00000000</i>
    <separator name="electronic mixer details" >
     <i type="int" name="IMIX">     4</i>
     <i type="logical" name="MIXFIRST"> F  </i>
     <i type="int" name="MAXMIX">   -45</i>
     <i name="WC">    100.00000000</i>
     <i type="int" name="INIMIX">     1</i>
     <i type="int" name="MIXPRE">     1</i>
     <i type="int" name="MREMOVE">     5</i>
    </separator>
   </separator>
   <separator name="electronic dipolcorrection" >
    <i type="logical" name="LDIPOL"> F  </i>
    <i type="logical" name="LMONO"> F  </i>
    <i type="int" name="IDIPOL">     0</i>
    <i name="EPSILON">      1.00000000</i>
    <v name="DIPOL">   -100.00000000   -100.00000000   -100.00000000</v>
    <i name="EFIELD">      0.00000000</i>
   </separator>
  </separator>
  <separator name="grids" >
   <i type="int" name="NGX">    48</i>
   <i type="int" name="NGY">    48</i>
   <i type="int" name="NGZ">    48</i>
   <i type="int" name="NGXF">    96</i>
   <i type="int" name="NGYF">    96</i>
   <i type="int" name="NGZF">    96</i>
   <i type="logical" name="ADDGRID"> T  </i>
  </separator>
  <separator name="ionic" >
   <i type="int" name="NSW">     1</i>
   <i type="int" name="IBRION">     8</i>
   <i type="int" name="MDALGO">     0</i>
   <i type="int" name="ISIF">     2</i>
   <i name="PSTRESS">      0.00000000</i>
   <i name="EDIFFG">      0.00000010</i>
   <i type="int" name="NFREE">     0</i>
   <i name="POTIM">      0.50000000</i>
   <i name="SMASS">     -3.00000000</i>
   <i name="SCALEE">      1.00000000</i>
  </separator>
  <separator name="ionic md" >
   <i name="TEBEG">      0.00010000</i>
   <i name="TEEND">      0.00010000</i>
   <i type="int" name="NBLOCK">     1</i>
   <i type="int" name="KBLOCK">     1</i>
   <i type="int" name="NPACO">   256</i>
   <i name="APACO">     16.00000000</i>
  </separator>
  <separator name="symmetry" >
   <i type="int" name="ISYM">     2</i>
   <i name="SYMPREC">      0.00001000</i>
  </separator>
  <separator name="dos" >
   <i type="int" name="LORBIT">     0</i>
   <v name="RWIGS">     -1.00000000</v>
   <i type="int" name="NEDOS">   301</i>
   <i name="EMIN">     10.00000000</i>
   <i name="EMAX">    -10.00000000</i>
   <i name="EFERMI">      0.00000000</i>
  </separator>
  <separator name="writing" >
   <i type="int" name="NWRITE">     2</i>
   <i type="logical" name="LWAVE"> F  </i>
   <i type="logical" name="LDOWNSAMPLE"> F  </i>
   <i type="logical" name="LCHARG"> F  </i>
   <i type="logical" name="LPARD"> F  </i>
   <i type="logical" name="LVTOT"> F  </i>
   <i type="logical" name="LVHAR"> F  </i>
   <i type="logical" name="LELF"> F  </i>
   <i type="logical" name="LOPTICS"> F  </i>
   <v name="STM">      0.00000000      0.00000000      0.00000000      0.00000000      0.00000000      0.00000000      0.00000000</v>
  </separator>
  <separator name="performance" >
   <i type="int" name="NPAR">    32</i>
   <i type="int" name="NSIM">     4</i>
   <i type="int" name="NBLK">    -1</i>
   <i type="logical" name="LPLANE"> T  </i>
   <i type="logical" name="LSCALAPACK"> T  </i>
   <i type="logical" name="LSCAAWARE"> F  </i>
   <i type="logical" name="LSCALU"> F  </i>
   <i type="logical" name="LASYNC"> F  </i>
   <i type="logical" name="LORBITALREAL"> F  </i>
  </separator>
  <separator name="miscellaneous" >
   <i type="int" name="IDIOT">     3</i>
   <i type="int" name="ISPECIAL">     0</i>
   <i type="logical" name="LMUSIC"> F  </i>
   <v name="POMASS">     12.01100000</v>
   <v name="DARWINR">      0.00000000</v>
   <v name="DARWINV">      1.00000000</v>
   <i type="logical" name="LCORR"> T  </i>
  </separator>
  <i type="logical" name="GGA_COMPAT"> T  </i>
  <i type="logical" name="LBERRY"> F  </i>
  <i type="int" name="ICORELEVEL">     0</i>
  <i type="logical" name="LDAU"> F  </i>
  <i type="int" name="I_CONSTRAINED_M">     0</i>
  <separator name="electronic exchange-correlation" >
   <i type="string" name="GGA">--</i>
   <i type="int" name="VOSKOWN">     0</i>
   <i type="logical" name="LHFCALC"> F  </i>
   <i type="string" name="PRECFOCK"></i>
   <i type="logical" name="LSYMGRAD"> F  </i>
   <i type="logical" name="LHFONE"> F  </i>
   <i type="logical" name="LRHFCALC"> F  </i>
   <i type="logical" name="LTHOMAS"> F  </i>
   <i type="logical" name="LMODELHF"> F  </i>
   <i name="ENCUT4O">     -1.00000000</i>
   <i type="int" name="EXXOEP">     0</i>
   <i type="int" name="FOURORBIT">     0</i>
   <i name="AEXX">      0.00000000</i>
   <i name="HFALPHA">      0.00000000</i>
   <i name="MCALPHA">      0.00000000</i>
   <i name="ALDAX">      1.00000000</i>
   <i name="AGGAX">      1.00000000</i>
   <i name="ALDAC">      1.00000000</i>
   <i name="AGGAC">      1.00000000</i>
   <i type="int" name="NKREDX">     1</i>
   <i type="int" name="NKREDY">     1</i>
   <i type="int" name="NKREDZ">     1</i>
   <i type="logical" name="SHIFTRED"> F  </i>
   <i type="logical" name="ODDONLY"> F  </i>
   <i type="logical" name="EVENONLY"> F  </i>
   <i type="int" name="LMAXFOCK">     0</i>
   <i type="int" name="NMAXFOCKAE">     0</i>
   <i type="logical" name="LFOCKAEDFT"> F  </i>
   <i name="HFSCREEN">      0.00000000</i>
   <i name="HFSCREENC">      0.00000000</i>
   <i type="int" name="NBANDSGWLOW">     0</i>
  </separator>
  <separator name="vdW DFT" >
   <i type="logical" name="LUSE_VDW"> F  </i>
   <i name="Zab_VDW">     -0.84910000</i>
   <i name="PARAM1">      0.12340000</i>
   <i name="PARAM2">      1.00000000</i>
   <i name="PARAM3">      0.00000000</i>
  </separator>
  <separator name="model GW" >
   <i type="int" name="MODEL_GW">     0</i>
   <i name="MODEL_EPS0">      3.57474090</i>
   <i name="MODEL_ALPHA">      1.00000000</i>
  </separator>
  <separator name="linear response parameters" >
   <i type="logical" name="LEPSILON"> F  </i>
   <i type="logical" name="LRPA"> F  </i>
   <i type="logical" name="LNABLA"> F  </i>
   <i type="logical" name="LVEL"> F  </i>
   <i type="int" name="KINTER">     0</i>
   <i name="CSHIFT">      0.10000000</i>
   <i name="OMEGAMAX">     -1.00000000</i>
   <i name="DEG_THRESHOLD">      0.00200000</i>
   <i name="RTIME">     -0.10000000</i>
   <i name="WPLASMAI">      0.00000000</i>
   <v name="DFIELD">      0.00000000      0.00000000      0.00000000</v>
   <v name="WPLASMA">      0.00000000      0.00000000      0.00000000      0.00000000      0.00000000      0.00000000      0.00000000      0.00000000      0.00000000</v>
  </separator>
  <separator name="orbital magnetization" >
   <i type="logical" name="NUCIND"> F  </i>
   <v name="MAGPOS">      0.00000000      0.00000000      0.00000000</v>
   <i type="logical" name="LNICSALL"> T  </i>
   <i type="logical" name="ORBITALMAG"> F  </i>
   <i type="logical" name="LMAGBLOCH"> F  </i>
   <i type="logical" name="LCHIMAG"> F  </i>
   <i type="logical" name="LGAUGE"> T  </i>
   <i type="int" name="MAGATOM">     0</i>
   <v name="MAGDIPOL">      0.00000000      0.00000000      0.00000000</v>
   <v name="AVECCONST">      0.00000000      0.00000000      0.00000000</v>
  </separator>
  <separator name="response functions" >
   <i type="logical" name="LADDER"> F  </i>
   <i type="logical" name="LRPAFORCE"> F  </i>
   <i type="logical" name="LFXC"> F  </i>
   <i type="logical" name="LHARTREE"> T  </i>
   <i type="int" name="IBSE">     0</i>
   <v type="int" name="KPOINT">    -1     0     0     0</v>
   <i type="logical" name="LTCTE"> F  </i>
   <i type="logical" name="LTETE"> F  </i>
   <i type="logical" name="LTRIPLET"> F  </i>
   <i type="logical" name="LFXCEPS"> F  </i>
   <i type="logical" name="LFXHEG"> F  </i>
   <i type="int" name="NATURALO">     2</i>
   <i type="logical" name="L2ORDER"> F  </i>
   <i type="logical" name="LMP2LT"> F  </i>
   <i type="logical" name="LUSEW"> F  </i>
   <i name="ENCUTGW">     -2.00000000</i>
   <i name="ENCUTGWSOFT">     -2.00000000</i>
   <i name="ENCUTLF">     -1.00000000</i>
   <i type="int" name="LMAXMP2">    -1</i>
   <i name="SCISSOR">      0.00000000</i>
   <i type="int" name="NOMEGA">     0</i>
   <i type="int" name="NOMEGAR">     0</i>
   <i type="int" name="NBANDSGW">    -1</i>
   <i type="int" name="NBANDSO">    -1</i>
   <i type="int" name="NBANDSV">    -1</i>
   <i type="int" name="NELM">     1</i>
   <i type="int" name="NELMHF">     1</i>
   <i type="int" name="DIM">     3</i>
   <i type="int" name="ANTIRES">     0</i>
   <i name="OMEGAMAX">    -30.00000000</i>
   <i name="OMEGAMIN">    -30.00000000</i>
   <i name="OMEGATL">   -200.00000000</i>
   <i type="int" name="OMEGAGRID">   140</i>
   <i name="CSHIFT">     -0.10000000</i>
   <i type="logical" name="SELFENERGY"> F  </i>
   <i type="logical" name="LSPECTRAL"> F  </i>
   <i type="logical" name="LSPECTRALGW"> F  </i>
   <i type="logical" name="LSINGLES"> F  </i>
   <i type="logical" name="LFERMIGW"> F  </i>
   <i type="logical" name="ODDONLYGW"> F  </i>
   <i type="logical" name="EVENONLYGW"> F  </i>
   <i type="int" name="NKREDLFX">     1</i>
   <i type="int" name="NKREDLFY">     1</i>
   <i type="int" name="NKREDLFZ">     1</i>
   <i type="int" name="MAXMEM">  2800</i>
   <i type="int" name="TELESCOPE">     0</i>
   <i type="int" name="TAUPAR">     1</i>
   <i type="int" name="OMEGAPAR">    -1</i>
   <i name="LAMBDA">      1.00000000</i>
  </separator>
  <separator name="External order field" >
   <i name="OFIELD_KAPPA">      0.00000000</i>
   <v name="OFIELD_K">      0.00000000      0.00000000      0.00000000</v>
   <i name="OFIELD_Q6_NEAR">      0.00000000</i>
   <i name="OFIELD_Q6_FAR">      0.00000000</i>
   <i name="OFIELD_A">      0.00000000</i>
  </separator>
 </parameters>
 <atominfo>
  <atoms>      64 </atoms>
  <types>       1 </types>
  <array name="atoms" >
   <dimension dim="1">ion</dimension>
   <field type="string">element</field>
   <field type="int">atomtype</field>
   <set>
    <rc><c>C </c><c>   1</c></rc>
    <rc><c>C </c><c>   1</c></rc>
    <rc><c>C </c><c>   1</c></rc>
    <rc><c>C </c><c>   1</c></rc>
    <rc><c>C </c><c>   1</c></rc>
    <rc><c>C </c><c>   1</c></rc>
    <rc><c>C </c><c>   1</c></rc>
    <rc><c>C </c><c>   1</c></rc>
    <rc><c>C </c><c>   1</c></rc>
    <rc><c>C </c><c>   1</c></rc>
    <rc><c>C </c><c>   1</c></rc>
    <rc><c>C </c><c>   1</c></rc>
    <rc><c>C </c><c>   1</c></rc>
    <rc><c>C </c><c>   1</c></rc>
    <rc><c>C </c><c>   1</c></rc>
    <rc><c>C </c><c>   1</c></rc>
    <rc><c>C </c><c>   1</c></rc>
    <rc><c>C </c><c>   1</c></rc>
    <rc><c>C </c><c>   1</c></rc>
    <rc><c>C </c><c>   1</c></rc>
    <rc><c>C </c><c>   1</c></rc>
    <rc><c>C </c><c>   1</c></rc>
    <rc><c>C </c><c>   1</c></rc>
    <rc><c>C </c><c>   1</c></rc>
    <rc><c>C </c><c>   1</c></rc>
    <rc><c>C </c><c>   1</c></rc>
    <rc><c>C </c><c>   1</c></rc>
    <rc><c>C </c><c>   1</c></rc>
    <rc><c>C </c><c>   1</c></rc>
    <rc><c>C </c><c>   1</c></rc>
    <rc><c>C </c><c>   1</c></rc>
    <rc><c>C </c><c>   1</c></rc>
    <rc><c>C </c><c>   1</c></rc>
    <rc><c>C </c><c>   1</c></rc>
    <rc><c>C </c><c>   1</c></rc>
    <rc><c>C </c><c>   1</c></rc>
    <rc><c>C </c><c>   1</c></rc>
    <rc><c>C </c><c>   1</c></rc>
    <rc><c>C </c><c>   1</c></rc>
    <rc><c>C </c><c>   1</c></rc>
    <rc><c>C </c><c>   1</c></rc>
    <rc><c>C </c><c>   1</c></rc>
    <rc><c>C </c><c>   1</c></rc>
    <rc><c>C </c><c>   1</c></rc>
    <rc><c>C </c><c>   1</c></rc>
    <rc><c>C </c><c>   1</c></rc>
    <rc><c>C </c><c>   1</c></rc>
    <rc><c>C </c><c>   1</c></rc>
    <rc><c>C </c><c>   1</c></rc>
    <rc><c>C </c><c>   1</c></rc>
    <rc><c>C </c><c>   1</c></rc>
    <rc><c>C </c><c>   1</c></rc>
    <rc><c>C </c><c>   1</c></rc>
    <rc><c>C </c><c>   1</c></rc>
    <rc><c>C </c><c>   1</c></rc>
    <rc><c>C </c><c>   1</c></rc>
    <rc><c>C </c><c>   1</c></rc>
    <rc><c>C </c><c>   1</c></rc>
    <rc><c>C </c><c>   1</c></rc>
    <rc><c>C </c><c>   1</c></rc>
    <rc><c>C </c><c>   1</c></rc>
    <rc><c>C </c><c>   1</c></rc>
    <rc><c>C </c><c>   1</c></rc>
    <rc><c>C </c><c>   1</c></rc>
   </set>
  </array>
  <array name="atomtypes" >
   <dimension dim="1">type</dimension>
   <field type="int">atomspertype</field>
   <field type="string">element</field>
   <field>mass</field>
   <field>valence</field>
   <field type="string">pseudopotential</field>
   <set>
    <rc><c>  64</c><c>C </c><c>     12.01100000</c><c>      4.00000000</c><c> PAW_PBE C 08Apr2002                    </c></rc>
   </set>
  </array>
 </atominfo>
 <structure name="initialpos" >
  <crystal>
   <varray name="basis" >
    <v>       7.25144289       0.00000000       0.00000000 </v>
    <v>       0.00000000       7.25144289       0.00000000 </v>
    <v>       0.00000000       0.00000000       7.25144289 </v>
   </varray>
   <i name="volume">    381.30569610 </i>
   <varray name="rec_basis" >
    <v>       0.13790359       0.00000000       0.00000000 </v>
    <v>       0.00000000       0.13790359       0.00000000 </v>
    <v>       0.00000000       0.00000000       0.13790359 </v>
   </varray>
  </crystal>
  <varray name="positions" >
   <v>       0.12500000       0.37500000       0.12500000 </v>
   <v>       0.62500000       0.37500000       0.12500000 </v>
   <v>       0.12500000       0.87500000       0.12500000 </v>
   <v>       0.62500000       0.87500000       0.12500000 </v>
   <v>       0.12500000       0.37500000       0.62500000 </v>
   <v>       0.62500000       0.37500000       0.62500000 </v>
   <v>       0.12500000       0.87500000       0.62500000 </v>
   <v>       0.62500000       0.87500000       0.62500000 </v>
   <v>       0.00000000       0.00000000       0.25000000 </v>
   <v>       0.50000000       0.00000000       0.25000000 </v>
   <v>       0.00000000       0.50000000       0.25000000 </v>
   <v>       0.50000000       0.50000000       0.25000000 </v>
   <v>       0.00000000       0.00000000       0.75000000 </v>
   <v>       0.50000000       0.00000000       0.75000000 </v>
   <v>       0.00000000       0.50000000       0.75000000 </v>
   <v>       0.50000000       0.50000000       0.75000000 </v>
   <v>       0.12500000       0.12500000       0.37500000 </v>
   <v>       0.62500000       0.12500000       0.37500000 </v>
   <v>       0.12500000       0.62500000       0.37500000 </v>
   <v>       0.62500000       0.62500000       0.37500000 </v>
   <v>       0.12500000       0.12500000       0.87500000 </v>
   <v>       0.62500000       0.12500000       0.87500000 </v>
   <v>       0.12500000       0.62500000       0.87500000 </v>
   <v>       0.62500000       0.62500000       0.87500000 </v>
   <v>       0.00000000       0.25000000       0.00000000 </v>
   <v>       0.50000000       0.25000000       0.00000000 </v>
   <v>       0.00000000       0.75000000       0.00000000 </v>
   <v>       0.50000000       0.75000000       0.00000000 </v>
   <v>       0.00000000       0.25000000       0.50000000 </v>
   <v>       0.50000000       0.25000000       0.50000000 </v>
   <v>       0.00000000       0.75000000       0.50000000 </v>
   <v>       0.50000000       0.75000000       0.50000000 </v>
   <v>       0.37500000       0.37500000       0.37500000 </v>
   <v>       0.87500000       0.37500000       0.37500000 </v>
   <v>       0.37500000       0.87500000       0.37500000 </v>
   <v>       0.87500000       0.87500000       0.37500000 </v>
   <v>       0.37500000       0.37500000       0.87500000 </v>
   <v>       0.87500000       0.37500000       0.87500000 </v>
   <v>       0.37500000       0.87500000       0.87500000 </v>
   <v>       0.87500000       0.87500000       0.87500000 </v>
   <v>       0.25000000       0.00000000       0.00000000 </v>
   <v>       0.75000000       0.00000000       0.00000000 </v>
   <v>       0.25000000       0.50000000       0.00000000 </v>
   <v>       0.75000000       0.50000000       0.00000000 </v>
   <v>       0.25000000       0.00000000       0.50000000 </v>
   <v>       0.75000000       0.00000000       0.50000000 </v>
   <v>       0.25000000       0.50000000       0.50000000 </v>
   <v>       0.75000000       0.50000000       0.50000000 </v>
   <v>       0.37500000       0.12500000       0.12500000 </v>
   <v>       0.87500000       0.12500000       0.12500000 </v>
   <v>       0.37500000       0.62500000       0.12500000 </v>
   <v>       0.87500000       0.62500000       0.12500000 </v>
   <v>       0.37500000       0.12500000       0.62500000 </v>
   <v>       0.87500000       0.12500000       0.62500000 </v>
   <v>       0.37500000       0.62500000       0.62500000 </v>
   <v>       0.87500000       0.62500000       0.62500000 </v>
   <v>       0.25000000       0.25000000       0.25000000 </v>
   <v>       0.75000000       0.25000000       0.25000000 </v>
   <v>       0.25000000       0.75000000       0.25000000 </v>
   <v>       0.75000000       0.75000000       0.25000000 </v>
   <v>       0.25000000       0.25000000       0.75000000 </v>
   <v>       0.75000000       0.25000000       0.75000000 </v>
   <v>       0.25000000       0.75000000       0.75000000 </v>
   <v>       0.75000000       0.75000000       0.75000000 </v>
  </varray>
 </structure>
 <calculation>
  <scstep>
   <time name="dav">   13.39   13.40</time>
   <time name="total">   13.50   13.75</time>
   <energy>
    <i name="alphaZ">    875.26295871 </i>
    <i name="ewald"> -10953.73852561 </i>
    <i name="hartreedc">   -598.72964590 </i>
    <i name="XCdc">    905.22922273 </i>
    <i name="pawpsdc">   2421.21235816 </i>
    <i name="pawaedc">  -2494.84305711 </i>
    <i name="eentropy">     -0.00576233 </i>
    <i name="bandstr">    927.42542548 </i>
    <i name="atom">   9416.14232778 </i>
    <i name="e_fr_energy">    497.95530192 </i>
    <i name="e_wo_entrp">    497.96106425 </i>
    <i name="e_0_energy">    497.95818308 </i>
   </energy>
  </scstep>
  <scstep>
   <time name="dav">   17.53   17.54</time>
   <time name="total">   17.54   17.54</time>
   <energy>
    <i name="e_fr_energy">   -556.00071853 </i>
    <i name="e_wo_entrp">   -556.00071853 </i>
    <i name="e_0_energy">   -556.00071853 </i>
   </energy>
  </scstep>
  <scstep>
   <time name="dav">   16.89   16.89</time>
   <time name="total">   16.89   16.89</time>
   <energy>
    <i name="e_fr_energy">   -597.90903898 </i>
    <i name="e_wo_entrp">   -597.90903898 </i>
    <i name="e_0_energy">   -597.90903898 </i>
   </energy>
  </scstep>
  <scstep>
   <time name="dav">   17.19   17.19</time>
   <time name="total">   17.19   17.20</time>
   <energy>
    <i name="e_fr_energy">   -598.39372658 </i>
    <i name="e_wo_entrp">   -598.39372658 </i>
    <i name="e_0_energy">   -598.39372658 </i>
   </energy>
  </scstep>
  <scstep>
   <time name="dav">   16.17   16.18</time>
   <time name="total">   16.69   16.69</time>
   <energy>
    <i name="e_fr_energy">   -598.40346665 </i>
    <i name="e_wo_entrp">   -598.40346665 </i>
    <i name="e_0_energy">   -598.40346665 </i>
   </energy>
  </scstep>
  <scstep>
   <time name="dav">   16.13   16.13</time>
   <time name="total">   16.75   16.75</time>
   <energy>
    <i name="e_fr_energy">   -585.39891020 </i>
    <i name="e_wo_entrp">   -585.39891020 </i>
    <i name="e_0_energy">   -585.39891020 </i>
   </energy>
  </scstep>
  <scstep>
   <time name="dav">   16.58   16.58</time>
   <time name="total">   17.19   17.20</time>
   <energy>
    <i name="e_fr_energy">   -581.00099581 </i>
    <i name="e_wo_entrp">   -581.00099581 </i>
    <i name="e_0_energy">   -581.00099581 </i>
   </energy>
  </scstep>
  <scstep>
   <time name="dav">   16.08   16.09</time>
   <time name="total">   16.71   16.71</time>
   <energy>
    <i name="e_fr_energy">   -581.05639318 </i>
    <i name="e_wo_entrp">   -581.05639318 </i>
    <i name="e_0_energy">   -581.05639318 </i>
   </energy>
  </scstep>
  <scstep>
   <time name="dav">   18.15   18.15</time>
   <time name="total">   18.85   18.85</time>
   <energy>
    <i name="e_fr_energy">   -581.05856357 </i>
    <i name="e_wo_entrp">   -581.05856357 </i>
    <i name="e_0_energy">   -581.05856357 </i>
   </energy>
  </scstep>
  <scstep>
   <time name="dav">   15.71   15.71</time>
   <time name="total">   16.33   16.33</time>
   <energy>
    <i name="e_fr_energy">   -581.05903254 </i>
    <i name="e_wo_entrp">   -581.05903254 </i>
    <i name="e_0_energy">   -581.05903254 </i>
   </energy>
  </scstep>
  <scstep>
   <time name="dav">   17.48   17.48</time>
   <time name="total">   18.10   18.10</time>
   <energy>
    <i name="e_fr_energy">   -581.05903660 </i>
    <i name="e_wo_entrp">   -581.05903660 </i>
    <i name="e_0_energy">   -581.05903660 </i>
   </energy>
  </scstep>
  <scstep>
   <time name="dav">   16.58   16.58</time>
   <time name="total">   17.22   17.22</time>
   <energy>
    <i name="e_fr_energy">   -581.05903684 </i>
    <i name="e_wo_entrp">   -581.05903684 </i>
    <i name="e_0_energy">   -581.05903684 </i>
   </energy>
  </scstep>
  <scstep>
   <time name="dav">   14.53   14.54</time>
   <time name="total">   15.15   15.15</time>
   <energy>
    <i name="e_fr_energy">   -581.05903695 </i>
    <i name="e_wo_entrp">   -581.05903695 </i>
    <i name="e_0_energy">   -581.05903695 </i>
   </energy>
  </scstep>
  <scstep>
   <time name="dav">   12.87   12.87</time>
   <time name="total">   13.49   13.50</time>
   <energy>
    <i name="e_fr_energy">   -581.05903696 </i>
    <i name="e_wo_entrp">   -581.05903696 </i>
    <i name="e_0_energy">   -581.05903696 </i>
   </energy>
  </scstep>
  <scstep>
   <time name="dav">   12.31   12.31</time>
   <time name="total">   12.41   12.41</time>
   <energy>
    <i name="alphaZ">    875.26295871 </i>
    <i name="ewald"> -10953.73852561 </i>
    <i name="hartreedc">   -866.27813428 </i>
    <i name="XCdc">    930.37066458 </i>
    <i name="pawpsdc">   4019.65913013 </i>
    <i name="pawaedc">  -4099.64664593 </i>
    <i name="eentropy">     -0.00000000 </i>
    <i name="bandstr">     97.16918765 </i>
    <i name="atom">   9416.14232778 </i>
    <i name="e_fr_energy">   -581.05903696 </i>
    <i name="e_wo_entrp">   -581.05903696 </i>
    <i name="e_0_energy">   -581.05903696 </i>
   </energy>
  </scstep>
  <structure>
   <crystal>
    <varray name="basis" >
     <v>       7.25144289       0.00000000       0.00000000 </v>
     <v>       0.00000000       7.25144289       0.00000000 </v>
     <v>       0.00000000       0.00000000       7.25144289 </v>
    </varray>
    <i name="volume">    381.30569610 </i>
    <varray name="rec_basis" >
     <v>       0.13790359       0.00000000       0.00000000 </v>
     <v>       0.00000000       0.13790359       0.00000000 </v>
     <v>       0.00000000       0.00000000       0.13790359 </v>
    </varray>
   </crystal>
   <varray name="positions" >
    <v>       0.12500000       0.37500000       0.12500000 </v>
    <v>       0.62500000       0.37500000       0.12500000 </v>
    <v>       0.12500000       0.87500000       0.12500000 </v>
    <v>       0.62500000       0.87500000       0.12500000 </v>
    <v>       0.12500000       0.37500000       0.62500000 </v>
    <v>       0.62500000       0.37500000       0.62500000 </v>
    <v>       0.12500000       0.87500000       0.62500000 </v>
    <v>       0.62500000       0.87500000       0.62500000 </v>
    <v>       0.00000000       0.00000000       0.25000000 </v>
    <v>       0.50000000       0.00000000       0.25000000 </v>
    <v>       0.00000000       0.50000000       0.25000000 </v>
    <v>       0.50000000       0.50000000       0.25000000 </v>
    <v>       0.00000000       0.00000000       0.75000000 </v>
    <v>       0.50000000       0.00000000       0.75000000 </v>
    <v>       0.00000000       0.50000000       0.75000000 </v>
    <v>       0.50000000       0.50000000       0.75000000 </v>
    <v>       0.12500000       0.12500000       0.37500000 </v>
    <v>       0.62500000       0.12500000       0.37500000 </v>
    <v>       0.12500000       0.62500000       0.37500000 </v>
    <v>       0.62500000       0.62500000       0.37500000 </v>
    <v>       0.12500000       0.12500000       0.87500000 </v>
    <v>       0.62500000       0.12500000       0.87500000 </v>
    <v>       0.12500000       0.62500000       0.87500000 </v>
    <v>       0.62500000       0.62500000       0.87500000 </v>
    <v>       0.00000000       0.25000000       0.00000000 </v>
    <v>       0.50000000       0.25000000       0.00000000 </v>
    <v>       0.00000000       0.75000000       0.00000000 </v>
    <v>       0.50000000       0.75000000       0.00000000 </v>
    <v>       0.00000000       0.25000000       0.50000000 </v>
    <v>       0.50000000       0.25000000       0.50000000 </v>
    <v>       0.00000000       0.75000000       0.50000000 </v>
    <v>       0.50000000       0.75000000       0.50000000 </v>
    <v>       0.37500000       0.37500000       0.37500000 </v>
    <v>       0.87500000       0.37500000       0.37500000 </v>
    <v>       0.37500000       0.87500000       0.37500000 </v>
    <v>       0.87500000       0.87500000       0.37500000 </v>
    <v>       0.37500000       0.37500000       0.87500000 </v>
    <v>       0.87500000       0.37500000       0.87500000 </v>
    <v>       0.37500000       0.87500000       0.87500000 </v>
    <v>       0.87500000       0.87500000       0.87500000 </v>
    <v>       0.25000000       0.00000000       0.00000000 </v>
    <v>       0.75000000       0.00000000       0.00000000 </v>
    <v>       0.25000000       0.50000000       0.00000000 </v>
    <v>       0.75000000       0.50000000       0.00000000 </v>
    <v>       0.25000000       0.00000000       0.50000000 </v>
    <v>       0.75000000       0.00000000       0.50000000 </v>
    <v>       0.25000000       0.50000000       0.50000000 </v>
    <v>       0.75000000       0.50000000       0.50000000 </v>
    <v>       0.37500000       0.12500000       0.12500000 </v>
    <v>       0.87500000       0.12500000       0.12500000 </v>
    <v>       0.37500000       0.62500000       0.12500000 </v>
    <v>       0.87500000       0.62500000       0.12500000 </v>
    <v>       0.37500000       0.12500000       0.62500000 </v>
    <v>       0.87500000       0.12500000       0.62500000 </v>
    <v>       0.37500000       0.62500000       0.62500000 </v>
    <v>       0.87500000       0.62500000       0.62500000 </v>
    <v>       0.25000000       0.25000000       0.25000000 </v>
    <v>       0.75000000       0.25000000       0.25000000 </v>
    <v>       0.25000000       0.75000000       0.25000000 </v>
    <v>       0.75000000       0.75000000       0.25000000 </v>
    <v>       0.25000000       0.25000000       0.75000000 </v>
    <v>       0.75000000       0.25000000       0.75000000 </v>
    <v>       0.25000000       0.75000000       0.75000000 </v>
    <v>       0.75000000       0.75000000       0.75000000 </v>
   </varray>
  </structure>
  <varray name="forces" >
   <v>       0.00000000       0.00000000       0.00000000 </v>
   <v>       0.00000000      -0.00000000       0.00000000 </v>
   <v>       0.00000000      -0.00000000       0.00000000 </v>
   <v>       0.00000000       0.00000000       0.00000000 </v>
   <v>       0.00000000      -0.00000000       0.00000000 </v>
   <v>       0.00000000      -0.00000000       0.00000000 </v>
   <v>       0.00000000       0.00000000       0.00000000 </v>
   <v>       0.00000000      -0.00000000       0.00000000 </v>
   <v>      -0.00000000       0.00000000      -0.00000000 </v>
   <v>      -0.00000000      -0.00000000      -0.00000000 </v>
   <v>      -0.00000000      -0.00000000      -0.00000000 </v>
   <v>      -0.00000000       0.00000000      -0.00000000 </v>
   <v>      -0.00000000      -0.00000000      -0.00000000 </v>
   <v>      -0.00000000       0.00000000      -0.00000000 </v>
   <v>      -0.00000000       0.00000000      -0.00000000 </v>
   <v>      -0.00000000      -0.00000000      -0.00000000 </v>
   <v>       0.00000000      -0.00000000       0.00000000 </v>
   <v>       0.00000000       0.00000000       0.00000000 </v>
   <v>       0.00000000       0.00000000       0.00000000 </v>
   <v>       0.00000000      -0.00000000       0.00000000 </v>
   <v>       0.00000000      -0.00000000       0.00000000 </v>
   <v>       0.00000000      -0.00000000       0.00000000 </v>
   <v>       0.00000000      -0.00000000       0.00000000 </v>
   <v>       0.00000000       0.00000000       0.00000000 </v>
   <v>      -0.00000000       0.00000000      -0.00000000 </v>
   <v>      -0.00000000       0.00000000      -0.00000000 </v>
   <v>      -0.00000000       0.00000000      -0.00000000 </v>
   <v>      -0.00000000       0.00000000      -0.00000000 </v>
   <v>      -0.00000000       0.00000000      -0.00000000 </v>
   <v>      -0.00000000       0.00000000      -0.00000000 </v>
   <v>      -0.00000000      -0.00000000      -0.00000000 </v>
   <v>      -0.00000000       0.00000000      -0.00000000 </v>
   <v>       0.00000000      -0.00000000       0.00000000 </v>
   <v>       0.00000000       0.00000000       0.00000000 </v>
   <v>       0.00000000       0.00000000       0.00000000 </v>
   <v>       0.00000000      -0.00000000       0.00000000 </v>
   <v>       0.00000000      -0.00000000       0.00000000 </v>
   <v>       0.00000000      -0.00000000       0.00000000 </v>
   <v>       0.00000000      -0.00000000       0.00000000 </v>
   <v>       0.00000000       0.00000000       0.00000000 </v>
   <v>      -0.00000000       0.00000000      -0.00000000 </v>
   <v>      -0.00000000       0.00000000      -0.00000000 </v>
   <v>      -0.00000000      -0.00000000      -0.00000000 </v>
   <v>      -0.00000000       0.00000000      -0.00000000 </v>
   <v>      -0.00000000      -0.00000000      -0.00000000 </v>
   <v>      -0.00000000       0.00000000      -0.00000000 </v>
   <v>      -0.00000000       0.00000000      -0.00000000 </v>
   <v>      -0.00000000       0.00000000      -0.00000000 </v>
   <v>       0.00000000      -0.00000000       0.00000000 </v>
   <v>       0.00000000      -0.00000000       0.00000000 </v>
   <v>       0.00000000      -0.00000000       0.00000000 </v>
   <v>       0.00000000      -0.00000000       0.00000000 </v>
   <v>       0.00000000      -0.00000000       0.00000000 </v>
   <v>       0.00000000      -0.00000000       0.00000000 </v>
   <v>       0.00000000      -0.00000000       0.00000000 </v>
   <v>       0.00000000       0.00000000       0.00000000 </v>
   <v>      -0.00000000       0.00000000      -0.00000000 </v>
   <v>      -0.00000000       0.00000000      -0.00000000 </v>
   <v>      -0.00000000      -0.00000000      -0.00000000 </v>
   <v>      -0.00000000       0.00000000      -0.00000000 </v>
   <v>      -0.00000000      -0.00000000      -0.00000000 </v>
   <v>      -0.00000000       0.00000000      -0.00000000 </v>
   <v>      -0.00000000       0.00000000      -0.00000000 </v>
   <v>      -0.00000000      -0.00000000      -0.00000000 </v>
  </varray>
  <varray name="stress" >
   <v>    -216.45056069       0.00000000      -0.00000000 </v>
   <v>       0.00000000    -216.45056069       0.00000000 </v>
   <v>      -0.00000000      -0.00000000    -216.45056069 </v>
  </varray>
  <energy>
   <i name="e_fr_energy">   -581.05903696 </i>
   <i name="e_wo_entrp">   -581.05903696 </i>
   <i name="e_0_energy">     -0.00000000 </i>
  </energy>
  <kpoints>
   <generation param="Gamma">
    <v type="int" name="divisions">       6        6        6 </v>
    <v name="usershift">      0.00000000       0.00000000       0.00000000 </v>
    <v name="genvec1">      0.16666667       0.00000000       0.00000000 </v>
    <v name="genvec2">      0.00000000       0.16666667       0.00000000 </v>
    <v name="genvec3">      0.00000000       0.00000000       0.16666667 </v>
    <v name="shift">      0.00000000       0.00000000       0.00000000 </v>
   </generation>
   <varray name="kpointlist" >
    <v>       0.00000000       0.00000000       0.00000000 </v>
    <v>       0.16666667       0.00000000       0.00000000 </v>
    <v>       0.33333333       0.00000000       0.00000000 </v>
    <v>       0.50000000       0.00000000       0.00000000 </v>
    <v>       0.00000000       0.16666667       0.00000000 </v>
    <v>       0.16666667       0.16666667       0.00000000 </v>
    <v>       0.33333333       0.16666667       0.00000000 </v>
    <v>       0.50000000       0.16666667       0.00000000 </v>
    <v>       0.00000000       0.33333333       0.00000000 </v>
    <v>       0.16666667       0.33333333       0.00000000 </v>
    <v>       0.33333333       0.33333333       0.00000000 </v>
    <v>       0.50000000       0.33333333       0.00000000 </v>
    <v>       0.00000000       0.50000000       0.00000000 </v>
    <v>       0.16666667       0.50000000       0.00000000 </v>
    <v>       0.33333333       0.50000000       0.00000000 </v>
    <v>       0.50000000       0.50000000       0.00000000 </v>
    <v>       0.00000000       0.16666667       0.16666667 </v>
    <v>       0.16666667       0.16666667       0.16666667 </v>
    <v>       0.33333333       0.16666667       0.16666667 </v>
    <v>       0.50000000       0.16666667       0.16666667 </v>
    <v>       0.00000000       0.33333333       0.16666667 </v>
    <v>       0.16666667       0.33333333       0.16666667 </v>
    <v>       0.33333333       0.33333333       0.16666667 </v>
    <v>       0.50000000       0.33333333       0.16666667 </v>
    <v>       0.00000000       0.50000000       0.16666667 </v>
    <v>       0.16666667       0.50000000       0.16666667 </v>
    <v>       0.33333333       0.50000000       0.16666667 </v>
    <v>       0.50000000       0.50000000       0.16666667 </v>
    <v>       0.00000000      -0.33333333       0.16666667 </v>
    <v>       0.16666667      -0.33333333       0.16666667 </v>
    <v>       0.33333333      -0.33333333       0.16666667 </v>
    <v>       0.50000000      -0.33333333       0.16666667 </v>
    <v>       0.00000000      -0.16666667       0.16666667 </v>
    <v>       0.16666667      -0.16666667       0.16666667 </v>
    <v>       0.33333333      -0.16666667       0.16666667 </v>
    <v>       0.50000000      -0.16666667       0.16666667 </v>
    <v>       0.00000000       0.33333333       0.33333333 </v>
    <v>       0.16666667       0.33333333       0.33333333 </v>
    <v>       0.33333333       0.33333333       0.33333333 </v>
    <v>       0.50000000       0.33333333       0.33333333 </v>
    <v>       0.00000000       0.50000000       0.33333333 </v>
    <v>       0.16666667       0.50000000       0.33333333 </v>
    <v>       0.33333333       0.50000000       0.33333333 </v>
    <v>       0.50000000       0.50000000       0.33333333 </v>
    <v>       0.00000000      -0.33333333       0.33333333 </v>
    <v>       0.16666667      -0.33333333       0.33333333 </v>
    <v>       0.33333333      -0.33333333       0.33333333 </v>
    <v>       0.50000000      -0.33333333       0.33333333 </v>
    <v>       0.00000000       0.50000000       0.50000000 </v>
    <v>       0.16666667       0.50000000       0.50000000 </v>
    <v>       0.33333333       0.50000000       0.50000000 </v>
    <v>       0.50000000       0.50000000       0.50000000 </v>
   </varray>
   <varray name="weights" >
    <v>       0.00462963 </v>
    <v>       0.00925926 </v>
    <v>       0.00925926 </v>
    <v>       0.00462963 </v>
    <v>       0.01851852 </v>
    <v>       0.03703704 </v>
    <v>       0.03703704 </v>
    <v>       0.01851852 </v>
    <v>       0.01851852 </v>
    <v>       0.03703704 </v>
    <v>       0.03703704 </v>
    <v>       0.01851852 </v>
    <v>       0.00925926 </v>
    <v>       0.01851852 </v>
    <v>       0.01851852 </v>
    <v>       0.00925926 </v>
    <v>       0.00925926 </v>
    <v>       0.01851852 </v>
    <v>       0.01851852 </v>
    <v>       0.00925926 </v>
    <v>       0.01851852 </v>
    <v>       0.03703704 </v>
    <v>       0.03703704 </v>
    <v>       0.01851852 </v>
    <v>       0.01851852 </v>
    <v>       0.03703704 </v>
    <v>       0.03703704 </v>
    <v>       0.01851852 </v>
    <v>       0.01851852 </v>
    <v>       0.03703704 </v>
    <v>       0.03703704 </v>
    <v>       0.01851852 </v>
    <v>       0.00925926 </v>
    <v>       0.01851852 </v>
    <v>       0.01851852 </v>
    <v>       0.00925926 </v>
    <v>       0.00925926 </v>
    <v>       0.01851852 </v>
    <v>       0.01851852 </v>
    <v>       0.00925926 </v>
    <v>       0.01851852 </v>
    <v>       0.03703704 </v>
    <v>       0.03703704 </v>
    <v>       0.01851852 </v>
    <v>       0.00925926 </v>
    <v>       0.01851852 </v>
    <v>       0.01851852 </v>
    <v>       0.00925926 </v>
    <v>       0.00462963 </v>
    <v>       0.00925926 </v>
    <v>       0.00925926 </v>
    <v>       0.00462963 </v>
   </varray>
  </kpoints>
  <scstep>
   <time name="total">   44.72   44.72</time>
   <energy>
    <i name="e_fr_energy">   -356.57624366 </i>
    <i name="e_wo_entrp">   -356.57624366 </i>
    <i name="e_0_energy">   -356.57624366 </i>
   </energy>
  </scstep>
  <scstep>
   <time name="total">   32.11   32.11</time>
   <energy>
    <i name="e_fr_energy">   -305.60062665 </i>
    <i name="e_wo_entrp">   -305.60062665 </i>
    <i name="e_0_energy">   -305.60062665 </i>
   </energy>
  </scstep>
  <scstep>
   <time name="total">   34.25   34.25</time>
   <energy>
    <i name="e_fr_energy">   -305.32729395 </i>
    <i name="e_wo_entrp">   -305.32729395 </i>
    <i name="e_0_energy">   -305.32729395 </i>
   </energy>
  </scstep>
  <scstep>
   <time name="total">   33.29   33.29</time>
   <energy>
    <i name="e_fr_energy">   -305.90785524 </i>
    <i name="e_wo_entrp">   -305.90785524 </i>
    <i name="e_0_energy">   -305.90785524 </i>
   </energy>
  </scstep>
  <scstep>
   <time name="total">   34.51   34.51</time>
   <energy>
    <i name="e_fr_energy">   -306.08742169 </i>
    <i name="e_wo_entrp">   -306.08742169 </i>
    <i name="e_0_energy">   -306.08742169 </i>
   </energy>
  </scstep>
  <scstep>
   <time name="total">   34.03   34.03</time>
   <energy>
    <i name="e_fr_energy">   -306.04463037 </i>
    <i name="e_wo_entrp">   -306.04463037 </i>
    <i name="e_0_energy">   -306.04463037 </i>
   </energy>
  </scstep>
  <scstep>
   <time name="total">   33.96   33.97</time>
   <energy>
    <i name="e_fr_energy">   -306.02287653 </i>
    <i name="e_wo_entrp">   -306.02287653 </i>
    <i name="e_0_energy">   -306.02287653 </i>
   </energy>
  </scstep>
  <scstep>
   <time name="total">   34.47   34.47</time>
   <energy>
    <i name="e_fr_energy">   -306.02183255 </i>
    <i name="e_wo_entrp">   -306.02183255 </i>
    <i name="e_0_energy">   -306.02183255 </i>
   </energy>
  </scstep>
  <scstep>
   <time name="total">   35.07   35.07</time>
   <energy>
    <i name="e_fr_energy">   -306.02123249 </i>
    <i name="e_wo_entrp">   -306.02123249 </i>
    <i name="e_0_energy">   -306.02123249 </i>
   </energy>
  </scstep>
  <scstep>
   <time name="total">   35.83   35.83</time>
   <energy>
    <i name="e_fr_energy">   -306.02142855 </i>
    <i name="e_wo_entrp">   -306.02142855 </i>
    <i name="e_0_energy">   -306.02142855 </i>
   </energy>
  </scstep>
  <scstep>
   <time name="total">   36.94   36.94</time>
   <energy>
    <i name="e_fr_energy">   -306.02144162 </i>
    <i name="e_wo_entrp">   -306.02144162 </i>
    <i name="e_0_energy">   -306.02144162 </i>
   </energy>
  </scstep>
  <scstep>
   <time name="total">   37.10   37.10</time>
   <energy>
    <i name="e_fr_energy">   -306.02147035 </i>
    <i name="e_wo_entrp">   -306.02147035 </i>
    <i name="e_0_energy">   -306.02147035 </i>
   </energy>
  </scstep>
  <kpoints>
   <generation param="Gamma">
    <v type="int" name="divisions">       6        6        6 </v>
    <v name="usershift">      0.00000000       0.00000000       0.00000000 </v>
    <v name="genvec1">      0.16666667       0.00000000       0.00000000 </v>
    <v name="genvec2">      0.00000000       0.16666667       0.00000000 </v>
    <v name="genvec3">      0.00000000       0.00000000       0.16666667 </v>
    <v name="shift">      0.00000000       0.00000000       0.00000000 </v>
   </generation>
   <varray name="kpointlist" >
    <v>       0.00000000       0.00000000       0.00000000 </v>
    <v>       0.16666667       0.00000000       0.00000000 </v>
    <v>       0.33333333       0.00000000       0.00000000 </v>
    <v>       0.50000000       0.00000000       0.00000000 </v>
    <v>       0.16666667       0.16666667       0.00000000 </v>
    <v>       0.33333333       0.16666667       0.00000000 </v>
    <v>       0.50000000       0.16666667       0.00000000 </v>
    <v>       0.33333333       0.33333333       0.00000000 </v>
    <v>       0.50000000       0.33333333       0.00000000 </v>
    <v>       0.50000000       0.50000000       0.00000000 </v>
    <v>       0.16666667       0.16666667       0.16666667 </v>
    <v>       0.33333333       0.16666667       0.16666667 </v>
    <v>       0.50000000       0.16666667       0.16666667 </v>
    <v>       0.33333333       0.33333333       0.16666667 </v>
    <v>       0.50000000       0.33333333       0.16666667 </v>
    <v>       0.50000000       0.50000000       0.16666667 </v>
    <v>       0.33333333       0.33333333       0.33333333 </v>
    <v>       0.50000000       0.33333333       0.33333333 </v>
    <v>       0.50000000       0.50000000       0.33333333 </v>
    <v>       0.50000000       0.50000000       0.50000000 </v>
   </varray>
   <varray name="weights" >
    <v>       0.00462963 </v>
    <v>       0.02777778 </v>
    <v>       0.02777778 </v>
    <v>       0.01388889 </v>
    <v>       0.05555556 </v>
    <v>       0.11111111 </v>
    <v>       0.05555556 </v>
    <v>       0.05555556 </v>
    <v>       0.05555556 </v>
    <v>       0.01388889 </v>
    <v>       0.03703704 </v>
    <v>       0.11111111 </v>
    <v>       0.05555556 </v>
    <v>       0.11111111 </v>
    <v>       0.11111111 </v>
    <v>       0.02777778 </v>
    <v>       0.03703704 </v>
    <v>       0.05555556 </v>
    <v>       0.02777778 </v>
    <v>       0.00462963 </v>
   </varray>
  </kpoints>
  <dynmat>
   <varray name="hessian" >
    <v>      -3.34566122       0.00000000       0.00000000       0.01267264      -0.00000000      -0.00000000       0.00762767      -0.00000000      -0.00000000       0.00874584       0.00000000       0.00000000       0.00762767      -0.00000000       0.00000000       0.00874584      -0.00000000      -0.00000000      -0.04677225      -0.00000000       0.00000000       0.00414246       0.00000000      -0.00000000      -0.01264144      -0.00762359       0.00140956       0.00626257      -0.00783057      -0.01688635       0.69429120      -0.11762170      -0.11762170      -0.00536521      -0.00762359      -0.00762359       0.02817122      -0.01688635      -0.01688635      -0.00271797      -0.00258802      -0.00258802      -0.01264144       0.00140956      -0.00762359       0.00626257      -0.01688635      -0.00783057      -0.11099167       0.05595771      -0.05595771      -0.00429776       0.00294914      -0.00294914      -0.11099167       0.05595771       0.05595771      -0.00429776       0.00294914       0.00294914      -0.11099167      -0.05595771      -0.05595771      -0.00429776      -0.00294914      -0.00294914      -0.11099167      -0.05595771       0.05595771      -0.00429776      -0.00294914       0.00294914       0.69429120       0.11762170       0.11762170      -0.00536521       0.00762359       0.00762359      -0.01264144       0.00762359      -0.00140956       0.00626257       0.00783057       0.01688635      -0.01264144      -0.00140956       0.00762359       0.00626257       0.01688635       0.00783057       0.02817122       0.01688635       0.01688635      -0.00271797       0.00258802       0.00258802       0.11803191      -0.05595771       0.12237473       0.11803191      -0.05595771      -0.12237473       0.00666097      -0.00294914      -0.00638640       0.00666097      -0.00294914       0.00638640       0.11803191       0.05595771      -0.12237473       0.11803191       0.05595771       0.12237473       0.00666097       0.00294914       0.00638640       0.00666097       0.00294914      -0.00638640      -0.01264144       0.00762359       0.00140956       0.00626257       0.00783057      -0.01688635       0.69429120       0.11762170      -0.11762170      -0.00536521       0.00762359      -0.00762359       0.02817122       0.01688635      -0.01688635      -0.00271797       0.00258802      -0.00258802      -0.01264144      -0.00140956      -0.00762359       0.00626257       0.01688635      -0.00783057       0.11803191      -0.12237473       0.05595771       0.11803191       0.12237473       0.05595771       0.11803191       0.12237473      -0.05595771       0.11803191      -0.12237473      -0.05595771       0.00666097       0.00638640       0.00294914       0.00666097      -0.00638640       0.00294914       0.00666097      -0.00638640      -0.00294914       0.00666097       0.00638640      -0.00294914       0.69429120      -0.11762170       0.11762170      -0.00536521      -0.00762359       0.00762359      -0.01264144      -0.00762359      -0.00140956       0.00626257      -0.00783057       0.01688635      -0.01264144       0.00140956       0.00762359       0.00626257      -0.01688635       0.00783057       0.02817122      -0.01688635       0.01688635      -0.00271797      -0.00258802       0.00258802 </v>
    <v>       0.00000000      -3.34566122       0.00000000      -0.00000000       0.00762767      -0.00000000      -0.00000000       0.01267264      -0.00000000       0.00000000       0.00874584       0.00000000      -0.00000000       0.00762767       0.00000000      -0.00000000      -0.04677225       0.00000000      -0.00000000       0.00874584      -0.00000000       0.00000000       0.00414246      -0.00000000      -0.00762359      -0.00536521       0.00762359      -0.00783057       0.00626257       0.01688635      -0.11762170       0.69429120       0.11762170      -0.00762359      -0.01264144      -0.00140956      -0.01688635       0.00626257       0.00783057      -0.00258802      -0.00271797       0.00258802       0.00140956      -0.01264144       0.00762359      -0.01688635       0.02817122       0.01688635      -0.05595771       0.11803191      -0.12237473      -0.00294914       0.00666097       0.00638640      -0.05595771       0.11803191       0.12237473      -0.00294914       0.00666097      -0.00638640       0.05595771       0.11803191       0.12237473       0.00294914       0.00666097      -0.00638640       0.05595771       0.11803191      -0.12237473       0.00294914       0.00666097       0.00638640       0.11762170       0.69429120       0.11762170       0.00762359      -0.01264144      -0.00140956       0.00762359      -0.00536521       0.00762359       0.00783057       0.00626257       0.01688635      -0.00140956      -0.01264144       0.00762359       0.01688635       0.02817122       0.01688635       0.01688635       0.00626257       0.00783057       0.00258802      -0.00271797       0.00258802       0.05595771      -0.11099167       0.05595771       0.05595771      -0.11099167      -0.05595771       0.00294914      -0.00429776       0.00294914       0.00294914      -0.00429776      -0.00294914      -0.05595771      -0.11099167       0.05595771      -0.05595771      -0.11099167      -0.05595771      -0.00294914      -0.00429776       0.00294914      -0.00294914      -0.00429776      -0.00294914       0.00762359      -0.00536521      -0.00762359       0.00783057       0.00626257      -0.01688635       0.11762170       0.69429120      -0.11762170       0.00762359      -0.01264144       0.00140956       0.01688635       0.00626257      -0.00783057       0.00258802      -0.00271797      -0.00258802      -0.00140956      -0.01264144      -0.00762359       0.01688635       0.02817122      -0.01688635      -0.12237473       0.11803191      -0.05595771       0.12237473       0.11803191       0.05595771       0.12237473       0.11803191      -0.05595771      -0.12237473       0.11803191       0.05595771       0.00638640       0.00666097      -0.00294914      -0.00638640       0.00666097       0.00294914      -0.00638640       0.00666097      -0.00294914       0.00638640       0.00666097       0.00294914      -0.11762170       0.69429120      -0.11762170      -0.00762359      -0.01264144       0.00140956      -0.00762359      -0.00536521      -0.00762359      -0.00783057       0.00626257      -0.01688635       0.00140956      -0.01264144      -0.00762359      -0.01688635       0.02817122      -0.01688635      -0.01688635       0.00626257      -0.00783057      -0.00258802      -0.00271797      -0.00258802 </v>
    <v>       0.00000000       0.00000000      -3.34566122      -0.00000000      -0.00000000       0.00762767      -0.00000000      -0.00000000       0.00762767       0.00000000       0.00000000      -0.04677225       0.00000000       0.00000000       0.01267264      -0.00000000       0.00000000       0.00874584       0.00000000      -0.00000000       0.00874584      -0.00000000      -0.00000000       0.00414246       0.00140956       0.00762359      -0.01264144      -0.01688635       0.01688635       0.02817122      -0.11762170       0.11762170       0.69429120      -0.00762359      -0.00140956      -0.01264144      -0.01688635       0.00783057       0.00626257      -0.00258802       0.00258802      -0.00271797      -0.00762359       0.00762359      -0.00536521      -0.00783057       0.01688635       0.00626257       0.05595771      -0.12237473       0.11803191       0.00294914       0.00638640       0.00666097      -0.05595771       0.12237473       0.11803191      -0.00294914      -0.00638640       0.00666097       0.05595771       0.12237473       0.11803191       0.00294914      -0.00638640       0.00666097      -0.05595771      -0.12237473       0.11803191      -0.00294914       0.00638640       0.00666097       0.11762170       0.11762170       0.69429120       0.00762359      -0.00140956      -0.01264144      -0.00140956       0.00762359      -0.01264144       0.01688635       0.01688635       0.02817122       0.00762359       0.00762359      -0.00536521       0.00783057       0.01688635       0.00626257       0.01688635       0.00783057       0.00626257       0.00258802       0.00258802      -0.00271797       0.12237473      -0.05595771       0.11803191      -0.12237473       0.05595771       0.11803191      -0.00638640      -0.00294914       0.00666097       0.00638640       0.00294914       0.00666097      -0.12237473      -0.05595771       0.11803191       0.12237473       0.05595771       0.11803191       0.00638640      -0.00294914       0.00666097      -0.00638640       0.00294914       0.00666097       0.00140956      -0.00762359      -0.01264144      -0.01688635      -0.01688635       0.02817122      -0.11762170      -0.11762170       0.69429120      -0.00762359       0.00140956      -0.01264144      -0.01688635      -0.00783057       0.00626257      -0.00258802      -0.00258802      -0.00271797      -0.00762359      -0.00762359      -0.00536521      -0.00783057      -0.01688635       0.00626257      -0.05595771       0.05595771      -0.11099167      -0.05595771      -0.05595771      -0.11099167       0.05595771       0.05595771      -0.11099167       0.05595771      -0.05595771      -0.11099167      -0.00294914       0.00294914      -0.00429776      -0.00294914      -0.00294914      -0.00429776       0.00294914       0.00294914      -0.00429776       0.00294914      -0.00294914      -0.00429776       0.11762170      -0.11762170       0.69429120       0.00762359       0.00140956      -0.01264144      -0.00140956      -0.00762359      -0.01264144       0.01688635      -0.01688635       0.02817122       0.00762359      -0.00762359      -0.00536521       0.00783057      -0.01688635       0.00626257       0.01688635      -0.00783057       0.00626257       0.00258802      -0.00258802      -0.00271797 </v>
    <v>       0.01267264      -0.00000000      -0.00000000      -3.34566122       0.00000000       0.00000000       0.00874584       0.00000000       0.00000000       0.00762767      -0.00000000      -0.00000000       0.00874584      -0.00000000      -0.00000000       0.00762767      -0.00000000       0.00000000       0.00414246       0.00000000      -0.00000000      -0.04677225      -0.00000000       0.00000000       0.00626257      -0.00783057      -0.01688635      -0.01264144      -0.00762359       0.00140956      -0.00536521      -0.00762359      -0.00762359       0.69429120      -0.11762170      -0.11762170      -0.00271797      -0.00258802      -0.00258802       0.02817122      -0.01688635      -0.01688635       0.00626257      -0.01688635      -0.00783057      -0.01264144       0.00140956      -0.00762359      -0.00429776       0.00294914      -0.00294914      -0.11099167       0.05595771      -0.05595771      -0.00429776       0.00294914       0.00294914      -0.11099167       0.05595771       0.05595771      -0.00429776      -0.00294914      -0.00294914      -0.11099167      -0.05595771      -0.05595771      -0.00429776      -0.00294914       0.00294914      -0.11099167      -0.05595771       0.05595771      -0.00536521       0.00762359       0.00762359       0.69429120       0.11762170       0.11762170       0.00626257       0.00783057       0.01688635      -0.01264144       0.00762359      -0.00140956       0.00626257       0.01688635       0.00783057      -0.01264144      -0.00140956       0.00762359      -0.00271797       0.00258802       0.00258802       0.02817122       0.01688635       0.01688635       0.11803191      -0.05595771      -0.12237473       0.11803191      -0.05595771       0.12237473       0.00666097      -0.00294914       0.00638640       0.00666097      -0.00294914      -0.00638640       0.11803191       0.05595771       0.12237473       0.11803191       0.05595771      -0.12237473       0.00666097       0.00294914      -0.00638640       0.00666097       0.00294914       0.00638640       0.00626257       0.00783057      -0.01688635      -0.01264144       0.00762359       0.00140956      -0.00536521       0.00762359      -0.00762359       0.69429120       0.11762170      -0.11762170      -0.00271797       0.00258802      -0.00258802       0.02817122       0.01688635      -0.01688635       0.00626257       0.01688635      -0.00783057      -0.01264144      -0.00140956      -0.00762359       0.11803191       0.12237473       0.05595771       0.11803191      -0.12237473       0.05595771       0.11803191      -0.12237473      -0.05595771       0.11803191       0.12237473      -0.05595771       0.00666097      -0.00638640       0.00294914       0.00666097       0.00638640       0.00294914       0.00666097       0.00638640      -0.00294914       0.00666097      -0.00638640      -0.00294914      -0.00536521      -0.00762359       0.00762359       0.69429120      -0.11762170       0.11762170       0.00626257      -0.00783057       0.01688635      -0.01264144      -0.00762359      -0.00140956       0.00626257      -0.01688635       0.00783057      -0.01264144       0.00140956       0.00762359      -0.00271797      -0.00258802       0.00258802       0.02817122      -0.01688635       0.01688635 </v>
    <v>      -0.00000000       0.00762767      -0.00000000       0.00000000      -3.34566122       0.00000000       0.00000000       0.00874584       0.00000000      -0.00000000       0.01267264      -0.00000000      -0.00000000      -0.04677225       0.00000000      -0.00000000       0.00762767       0.00000000       0.00000000       0.00414246      -0.00000000      -0.00000000       0.00874584      -0.00000000      -0.00783057       0.00626257       0.01688635      -0.00762359      -0.00536521       0.00762359      -0.00762359      -0.01264144      -0.00140956      -0.11762170       0.69429120       0.11762170      -0.00258802      -0.00271797       0.00258802      -0.01688635       0.00626257       0.00783057      -0.01688635       0.02817122       0.01688635       0.00140956      -0.01264144       0.00762359      -0.00294914       0.00666097       0.00638640      -0.05595771       0.11803191      -0.12237473      -0.00294914       0.00666097      -0.00638640      -0.05595771       0.11803191       0.12237473       0.00294914       0.00666097      -0.00638640       0.05595771       0.11803191       0.12237473       0.00294914       0.00666097       0.00638640       0.05595771       0.11803191      -0.12237473       0.00762359      -0.01264144      -0.00140956       0.11762170       0.69429120       0.11762170       0.00783057       0.00626257       0.01688635       0.00762359      -0.00536521       0.00762359       0.01688635       0.02817122       0.01688635      -0.00140956      -0.01264144       0.00762359       0.00258802      -0.00271797       0.00258802       0.01688635       0.00626257       0.00783057       0.05595771      -0.11099167      -0.05595771       0.05595771      -0.11099167       0.05595771       0.00294914      -0.00429776      -0.00294914       0.00294914      -0.00429776       0.00294914      -0.05595771      -0.11099167      -0.05595771      -0.05595771      -0.11099167       0.05595771      -0.00294914      -0.00429776      -0.00294914      -0.00294914      -0.00429776       0.00294914       0.00783057       0.00626257      -0.01688635       0.00762359      -0.00536521      -0.00762359       0.00762359      -0.01264144       0.00140956       0.11762170       0.69429120      -0.11762170       0.00258802      -0.00271797      -0.00258802       0.01688635       0.00626257      -0.00783057       0.01688635       0.02817122      -0.01688635      -0.00140956      -0.01264144      -0.00762359       0.12237473       0.11803191       0.05595771      -0.12237473       0.11803191      -0.05595771      -0.12237473       0.11803191       0.05595771       0.12237473       0.11803191      -0.05595771      -0.00638640       0.00666097       0.00294914       0.00638640       0.00666097      -0.00294914       0.00638640       0.00666097       0.00294914      -0.00638640       0.00666097      -0.00294914      -0.00762359      -0.01264144       0.00140956      -0.11762170       0.69429120      -0.11762170      -0.00783057       0.00626257      -0.01688635      -0.00762359      -0.00536521      -0.00762359      -0.01688635       0.02817122      -0.01688635       0.00140956      -0.01264144      -0.00762359      -0.00258802      -0.00271797      -0.00258802      -0.01688635       0.00626257      -0.00783057 </v>
    <v>      -0.00000000      -0.00000000       0.00762767       0.00000000       0.00000000      -3.34566122       0.00000000       0.00000000      -0.04677225      -0.00000000      -0.00000000       0.00762767      -0.00000000       0.00000000       0.00874584       0.00000000       0.00000000       0.01267264      -0.00000000      -0.00000000       0.00414246       0.00000000      -0.00000000       0.00874584      -0.01688635       0.01688635       0.02817122       0.00140956       0.00762359      -0.01264144      -0.00762359      -0.00140956      -0.01264144      -0.11762170       0.11762170       0.69429120      -0.00258802       0.00258802      -0.00271797      -0.01688635       0.00783057       0.00626257      -0.00783057       0.01688635       0.00626257      -0.00762359       0.00762359      -0.00536521       0.00294914       0.00638640       0.00666097       0.05595771      -0.12237473       0.11803191      -0.00294914      -0.00638640       0.00666097      -0.05595771       0.12237473       0.11803191       0.00294914      -0.00638640       0.00666097       0.05595771       0.12237473       0.11803191      -0.00294914       0.00638640       0.00666097      -0.05595771      -0.12237473       0.11803191       0.00762359      -0.00140956      -0.01264144       0.11762170       0.11762170       0.69429120       0.01688635       0.01688635       0.02817122      -0.00140956       0.00762359      -0.01264144       0.00783057       0.01688635       0.00626257       0.00762359       0.00762359      -0.00536521       0.00258802       0.00258802      -0.00271797       0.01688635       0.00783057       0.00626257      -0.12237473       0.05595771       0.11803191       0.12237473      -0.05595771       0.11803191       0.00638640       0.00294914       0.00666097      -0.00638640      -0.00294914       0.00666097       0.12237473       0.05595771       0.11803191      -0.12237473      -0.05595771       0.11803191      -0.00638640       0.00294914       0.00666097       0.00638640      -0.00294914       0.00666097      -0.01688635      -0.01688635       0.02817122       0.00140956      -0.00762359      -0.01264144      -0.00762359       0.00140956      -0.01264144      -0.11762170      -0.11762170       0.69429120      -0.00258802      -0.00258802      -0.00271797      -0.01688635      -0.00783057       0.00626257      -0.00783057      -0.01688635       0.00626257      -0.00762359      -0.00762359      -0.00536521      -0.05595771      -0.05595771      -0.11099167      -0.05595771       0.05595771      -0.11099167       0.05595771      -0.05595771      -0.11099167       0.05595771       0.05595771      -0.11099167      -0.00294914      -0.00294914      -0.00429776      -0.00294914       0.00294914      -0.00429776       0.00294914      -0.00294914      -0.00429776       0.00294914       0.00294914      -0.00429776       0.00762359       0.00140956      -0.01264144       0.11762170      -0.11762170       0.69429120       0.01688635      -0.01688635       0.02817122      -0.00140956      -0.00762359      -0.01264144       0.00783057      -0.01688635       0.00626257       0.00762359      -0.00762359      -0.00536521       0.00258802      -0.00258802      -0.00271797       0.01688635      -0.00783057       0.00626257 </v>
    <v>       0.00762767      -0.00000000      -0.00000000       0.00874584       0.00000000       0.00000000      -3.34566122       0.00000000       0.00000000       0.01267264      -0.00000000      -0.00000000      -0.04677225      -0.00000000       0.00000000       0.00414246       0.00000000      -0.00000000       0.00762767      -0.00000000       0.00000000       0.00874584      -0.00000000      -0.00000000       0.69429120      -0.11762170      -0.11762170      -0.00536521      -0.00762359      -0.00762359      -0.01264144      -0.00762359       0.00140956       0.00626257      -0.00783057      -0.01688635      -0.01264144       0.00140956      -0.00762359       0.00626257      -0.01688635      -0.00783057       0.02817122      -0.01688635      -0.01688635      -0.00271797      -0.00258802      -0.00258802      -0.11099167       0.05595771       0.05595771      -0.00429776       0.00294914       0.00294914      -0.11099167       0.05595771      -0.05595771      -0.00429776       0.00294914      -0.00294914      -0.11099167      -0.05595771       0.05595771      -0.00429776      -0.00294914       0.00294914      -0.11099167      -0.05595771      -0.05595771      -0.00429776      -0.00294914      -0.00294914      -0.01264144       0.00762359      -0.00140956       0.00626257       0.00783057       0.01688635       0.69429120       0.11762170       0.11762170      -0.00536521       0.00762359       0.00762359       0.02817122       0.01688635       0.01688635      -0.00271797       0.00258802       0.00258802      -0.01264144      -0.00140956       0.00762359       0.00626257       0.01688635       0.00783057       0.00666097      -0.00294914      -0.00638640       0.00666097      -0.00294914       0.00638640       0.11803191      -0.05595771       0.12237473       0.11803191      -0.05595771      -0.12237473       0.00666097       0.00294914       0.00638640       0.00666097       0.00294914      -0.00638640       0.11803191       0.05595771      -0.12237473       0.11803191       0.05595771       0.12237473       0.69429120       0.11762170      -0.11762170      -0.00536521       0.00762359      -0.00762359      -0.01264144       0.00762359       0.00140956       0.00626257       0.00783057      -0.01688635      -0.01264144      -0.00140956      -0.00762359       0.00626257       0.01688635      -0.00783057       0.02817122       0.01688635      -0.01688635      -0.00271797       0.00258802      -0.00258802       0.11803191       0.12237473      -0.05595771       0.11803191      -0.12237473      -0.05595771       0.11803191      -0.12237473       0.05595771       0.11803191       0.12237473       0.05595771       0.00666097      -0.00638640      -0.00294914       0.00666097       0.00638640      -0.00294914       0.00666097       0.00638640       0.00294914       0.00666097      -0.00638640       0.00294914      -0.01264144      -0.00762359      -0.00140956       0.00626257      -0.00783057       0.01688635       0.69429120      -0.11762170       0.11762170      -0.00536521      -0.00762359       0.00762359       0.02817122      -0.01688635       0.01688635      -0.00271797      -0.00258802       0.00258802      -0.01264144       0.00140956       0.00762359       0.00626257      -0.01688635       0.00783057 </v>
    <v>      -0.00000000       0.01267264      -0.00000000       0.00000000       0.00874584       0.00000000       0.00000000      -3.34566122       0.00000000      -0.00000000       0.00762767      -0.00000000      -0.00000000       0.00874584      -0.00000000       0.00000000       0.00414246      -0.00000000      -0.00000000       0.00762767       0.00000000      -0.00000000      -0.04677225       0.00000000      -0.11762170       0.69429120       0.11762170      -0.00762359      -0.01264144      -0.00140956      -0.00762359      -0.00536521       0.00762359      -0.00783057       0.00626257       0.01688635       0.00140956      -0.01264144       0.00762359      -0.01688635       0.02817122       0.01688635      -0.01688635       0.00626257       0.00783057      -0.00258802      -0.00271797       0.00258802      -0.05595771       0.11803191       0.12237473      -0.00294914       0.00666097      -0.00638640      -0.05595771       0.11803191      -0.12237473      -0.00294914       0.00666097       0.00638640       0.05595771       0.11803191      -0.12237473       0.00294914       0.00666097       0.00638640       0.05595771       0.11803191       0.12237473       0.00294914       0.00666097      -0.00638640       0.00762359      -0.00536521       0.00762359       0.00783057       0.00626257       0.01688635       0.11762170       0.69429120       0.11762170       0.00762359      -0.01264144      -0.00140956       0.01688635       0.00626257       0.00783057       0.00258802      -0.00271797       0.00258802      -0.00140956      -0.01264144       0.00762359       0.01688635       0.02817122       0.01688635       0.00294914      -0.00429776       0.00294914       0.00294914      -0.00429776      -0.00294914       0.05595771      -0.11099167       0.05595771       0.05595771      -0.11099167      -0.05595771      -0.00294914      -0.00429776       0.00294914      -0.00294914      -0.00429776      -0.00294914      -0.05595771      -0.11099167       0.05595771      -0.05595771      -0.11099167      -0.05595771       0.11762170       0.69429120      -0.11762170       0.00762359      -0.01264144       0.00140956       0.00762359      -0.00536521      -0.00762359       0.00783057       0.00626257      -0.01688635      -0.00140956      -0.01264144      -0.00762359       0.01688635       0.02817122      -0.01688635       0.01688635       0.00626257      -0.00783057       0.00258802      -0.00271797      -0.00258802       0.12237473       0.11803191      -0.05595771      -0.12237473       0.11803191       0.05595771      -0.12237473       0.11803191      -0.05595771       0.12237473       0.11803191       0.05595771      -0.00638640       0.00666097      -0.00294914       0.00638640       0.00666097       0.00294914       0.00638640       0.00666097      -0.00294914      -0.00638640       0.00666097       0.00294914      -0.00762359      -0.00536521      -0.00762359      -0.00783057       0.00626257      -0.01688635      -0.11762170       0.69429120      -0.11762170      -0.00762359      -0.01264144       0.00140956      -0.01688635       0.00626257      -0.00783057      -0.00258802      -0.00271797      -0.00258802       0.00140956      -0.01264144      -0.00762359      -0.01688635       0.02817122      -0.01688635 </v>
    <v>      -0.00000000      -0.00000000       0.00762767       0.00000000       0.00000000      -0.04677225       0.00000000       0.00000000      -3.34566122      -0.00000000      -0.00000000       0.00762767       0.00000000      -0.00000000       0.00874584      -0.00000000      -0.00000000       0.00414246       0.00000000       0.00000000       0.01267264      -0.00000000       0.00000000       0.00874584      -0.11762170       0.11762170       0.69429120      -0.00762359      -0.00140956      -0.01264144       0.00140956       0.00762359      -0.01264144      -0.01688635       0.01688635       0.02817122      -0.00762359       0.00762359      -0.00536521      -0.00783057       0.01688635       0.00626257      -0.01688635       0.00783057       0.00626257      -0.00258802       0.00258802      -0.00271797      -0.05595771       0.12237473       0.11803191      -0.00294914      -0.00638640       0.00666097       0.05595771      -0.12237473       0.11803191       0.00294914       0.00638640       0.00666097      -0.05595771      -0.12237473       0.11803191      -0.00294914       0.00638640       0.00666097       0.05595771       0.12237473       0.11803191       0.00294914      -0.00638640       0.00666097      -0.00140956       0.00762359      -0.01264144       0.01688635       0.01688635       0.02817122       0.11762170       0.11762170       0.69429120       0.00762359      -0.00140956      -0.01264144       0.01688635       0.00783057       0.00626257       0.00258802       0.00258802      -0.00271797       0.00762359       0.00762359      -0.00536521       0.00783057       0.01688635       0.00626257      -0.00638640      -0.00294914       0.00666097       0.00638640       0.00294914       0.00666097       0.12237473      -0.05595771       0.11803191      -0.12237473       0.05595771       0.11803191       0.00638640      -0.00294914       0.00666097      -0.00638640       0.00294914       0.00666097      -0.12237473      -0.05595771       0.11803191       0.12237473       0.05595771       0.11803191      -0.11762170      -0.11762170       0.69429120      -0.00762359       0.00140956      -0.01264144       0.00140956      -0.00762359      -0.01264144      -0.01688635      -0.01688635       0.02817122      -0.00762359      -0.00762359      -0.00536521      -0.00783057      -0.01688635       0.00626257      -0.01688635      -0.00783057       0.00626257      -0.00258802      -0.00258802      -0.00271797       0.05595771       0.05595771      -0.11099167       0.05595771      -0.05595771      -0.11099167      -0.05595771       0.05595771      -0.11099167      -0.05595771      -0.05595771      -0.11099167       0.00294914       0.00294914      -0.00429776       0.00294914      -0.00294914      -0.00429776      -0.00294914       0.00294914      -0.00429776      -0.00294914      -0.00294914      -0.00429776      -0.00140956      -0.00762359      -0.01264144       0.01688635      -0.01688635       0.02817122       0.11762170      -0.11762170       0.69429120       0.00762359       0.00140956      -0.01264144       0.01688635      -0.00783057       0.00626257       0.00258802      -0.00258802      -0.00271797       0.00762359      -0.00762359      -0.00536521       0.00783057      -0.01688635       0.00626257 </v>
[...]
      </set>
     </set>
    </set>
   </array>
  </eigenvalues>
  <separator name="orbital magnetization" >
   <v name="MAGDIPOLOUT">      0.00000000      0.00000000      0.00000000</v>
  </separator>
  <dos>
   <i name="efermi">      9.35398547 </i>
   <total>
    <array>
     <dimension dim="1">gridpoints</dimension>
     <dimension dim="2">spin</dimension>
     <field>energy</field>
     <field>total</field>
     <field>integrated</field>
     <set>
      <set comment="spin 1">
       <r>   -13.3774     0.0000     0.0000 </r>
       <r>   -13.2597     0.0000     0.0000 </r>
       <r>   -13.1420     0.0000     0.0000 </r>
       <r>   -13.0243     0.0000     0.0000 </r>
       <r>   -12.9066     0.0000     0.0000 </r>
       <r>   -12.7889     0.0000     0.0000 </r>
       <r>   -12.6712     0.0000     0.0000 </r>
       <r>   -12.5535     0.0000     0.0000 </r>
       <r>   -12.4357     0.0000     0.0000 </r>
       <r>   -12.3180     0.0000     0.0000 </r>
       <r>   -12.2003     0.0000     0.0000 </r>
       <r>   -12.0826     0.0000     0.0000 </r>
       <r>   -11.9649     0.0000     0.0000 </r>
       <r>   -11.8472     0.0033     0.0004 </r>
       <r>   -11.7295     0.2432     0.0290 </r>
       <r>   -11.6118     1.2427     0.1753 </r>
       <r>   -11.4941     1.4463     0.3455 </r>
       <r>   -11.3764     2.8755     0.6840 </r>
       <r>   -11.2587     1.5768     0.8696 </r>
       <r>   -11.1410     3.6129     1.2948 </r>
       <r>   -11.0233     2.9233     1.6389 </r>
       <r>   -10.9056     3.9106     2.0992 </r>
       <r>   -10.7879     2.3818     2.3795 </r>
       <r>   -10.6702     4.7211     2.9352 </r>
       <r>   -10.5525     4.4358     3.4573 </r>
       <r>   -10.4348     5.1266     4.0607 </r>
       <r>   -10.3171     2.4244     4.3461 </r>
       <r>   -10.1994     4.7663     4.9071 </r>
       <r>   -10.0817     6.4676     5.6684 </r>
       <r>    -9.9640     5.6780     6.3367 </r>
       <r>    -9.8463     4.4663     6.8624 </r>
       <r>    -9.7286     4.2230     7.3594 </r>
       <r>    -9.6109     7.0179     8.1855 </r>
       <r>    -9.4932     5.1933     8.7967 </r>
       <r>    -9.3755     5.6469     9.4614 </r>
       <r>    -9.2578     6.9802    10.2830 </r>
       <r>    -9.1401     7.4842    11.1639 </r>
       <r>    -9.0224     6.2625    11.9010 </r>
       <r>    -8.9047     5.5452    12.5537 </r>
       <r>    -8.7870     4.0140    13.0261 </r>
       <r>    -8.6693     9.4568    14.1392 </r>
       <r>    -8.5516     7.6144    15.0355 </r>
       <r>    -8.4339     9.4543    16.1483 </r>
       <r>    -8.3162     6.1020    16.8665 </r>
       <r>    -8.1984     6.5638    17.6391 </r>
       <r>    -8.0807     7.3946    18.5094 </r>
       <r>    -7.9630     7.9480    19.4449 </r>
       <r>    -7.8453     6.8632    20.2528 </r>
       <r>    -7.7276    10.9023    21.5360 </r>
       <r>    -7.6099     9.7965    22.6891 </r>
       <r>    -7.4922     5.7626    23.3673 </r>
       <r>    -7.3745     7.9523    24.3033 </r>
       <r>    -7.2568    13.6632    25.9115 </r>
       <r>    -7.1391     8.7955    26.9468 </r>
       <r>    -7.0214     5.0367    27.5396 </r>
       <r>    -6.9037     9.5569    28.6645 </r>
       <r>    -6.7860    10.4252    29.8916 </r>
       <r>    -6.6683    10.8386    31.1673 </r>
       <r>    -6.5506    13.0795    32.7068 </r>
       <r>    -6.4329    11.2238    34.0279 </r>
       <r>    -6.3152    13.5901    35.6275 </r>
       <r>    -6.1975    10.0095    36.8056 </r>
       <r>    -6.0798     9.1858    37.8868 </r>
       <r>    -5.9621    12.4667    39.3542 </r>
       <r>    -5.8444    16.3386    41.2773 </r>
       <r>    -5.7267    11.1743    42.5925 </r>
       <r>    -5.6090     8.2831    43.5675 </r>
       <r>    -5.4913    14.3187    45.2528 </r>
       <r>    -5.3736    10.5870    46.4989 </r>
       <r>    -5.2559    14.8612    48.2481 </r>
       <r>    -5.1382     6.0257    48.9574 </r>
       <r>    -5.0205    11.1168    50.2659 </r>
       <r>    -4.9028    10.6684    51.5216 </r>
       <r>    -4.7851     7.4970    52.4040 </r>
       <r>    -4.6674     5.1683    53.0123 </r>
       <r>    -4.5497    14.6532    54.7370 </r>
       <r>    -4.4320     6.3647    55.4862 </r>
       <r>    -4.3143     5.1750    56.0953 </r>
       <r>    -4.1966    12.5123    57.5680 </r>
       <r>    -4.0788     9.4061    58.6751 </r>
       <r>    -3.9611    10.6813    59.9324 </r>
       <r>    -3.8434     4.1807    60.4244 </r>
       <r>    -3.7257     4.0649    60.9029 </r>
       <r>    -3.6080     6.9696    61.7232 </r>
       <r>    -3.4903     4.7266    62.2796 </r>
       <r>    -3.3726     7.3553    63.1453 </r>
       <r>    -3.2549    12.4930    64.6158 </r>
       <r>    -3.1372     8.7838    65.6496 </r>
       <r>    -3.0195    10.5583    66.8924 </r>
       <r>    -2.9018     8.9492    67.9457 </r>
       <r>    -2.7841    10.1228    69.1372 </r>
       <r>    -2.6664     6.5799    69.9117 </r>
       <r>    -2.5487    12.2463    71.3531 </r>
       <r>    -2.4310    10.4383    72.5817 </r>
       <r>    -2.3133    10.9388    73.8693 </r>
       <r>    -2.1956    11.7965    75.2577 </r>
       <r>    -2.0779    20.4830    77.6686 </r>
       <r>    -1.9602    36.2595    81.9365 </r>
       <r>    -1.8425    25.8641    84.9808 </r>
       <r>    -1.7248     9.1519    86.0580 </r>
       <r>    -1.6071    13.9554    87.7005 </r>
       <r>    -1.4894    14.7477    89.4364 </r>
       <r>    -1.3717     6.6539    90.2196 </r>
       <r>    -1.2540     8.9127    91.2686 </r>
       <r>    -1.1363    15.0092    93.0353 </r>
       <r>    -1.0186    11.7465    94.4178 </r>
       <r>    -0.9009     7.5969    95.3120 </r>
       <r>    -0.7832    10.4025    96.5364 </r>
       <r>    -0.6655    16.3344    98.4590 </r>
       <r>    -0.5478    15.6068   100.2960 </r>
       <r>    -0.4301     6.2837   101.0356 </r>
       <r>    -0.3124     4.5527   101.5715 </r>
       <r>    -0.1947     2.6449   101.8828 </r>
       <r>    -0.0770     7.4805   102.7633 </r>
       <r>     0.0407    15.2220   104.5550 </r>
       <r>     0.1585     8.7086   105.5800 </r>
       <r>     0.2762     8.2757   106.5541 </r>
       <r>     0.3939    11.5623   107.9150 </r>
       <r>     0.5116     7.2425   108.7674 </r>
       <r>     0.6293    24.6865   111.6731 </r>
       <r>     0.7470    22.8855   114.3668 </r>
       <r>     0.8647    15.5246   116.1941 </r>
       <r>     0.9824    11.1484   117.5063 </r>
       <r>     1.1001    13.7551   119.1253 </r>
       <r>     1.2178    16.1831   121.0301 </r>
       <r>     1.3355    17.8414   123.1301 </r>
       <r>     1.4532    21.5249   125.6636 </r>
       <r>     1.5709    24.2545   128.5184 </r>
       <r>     1.6886     9.1166   129.5915 </r>
       <r>     1.8063    11.1733   130.9066 </r>
       <r>     1.9240    20.0062   133.2614 </r>
       <r>     2.0417    25.0281   136.2073 </r>
       <r>     2.1594    22.3880   138.8424 </r>
       <r>     2.2771    12.8141   140.3507 </r>
       <r>     2.3948    15.0098   142.1174 </r>
       <r>     2.5125    16.1740   144.0211 </r>
       <r>     2.6302    26.4193   147.1307 </r>
       <r>     2.7479    20.3106   149.5213 </r>
       <r>     2.8656    20.9034   151.9817 </r>
       <r>     2.9833    30.2249   155.5393 </r>
       <r>     3.1010    25.9348   158.5919 </r>
       <r>     3.2187    26.7364   161.7388 </r>
       <r>     3.3364    12.4456   163.2037 </r>
       <r>     3.4541    24.9514   166.1406 </r>
       <r>     3.5718    28.4426   169.4883 </r>
       <r>     3.6895    34.4617   173.5446 </r>
       <r>     3.8072    35.0695   177.6723 </r>
       <r>     3.9249    16.2584   179.5860 </r>
       <r>     4.0426    16.3102   181.5058 </r>
       <r>     4.1603    30.0982   185.0484 </r>
       <r>     4.2781    21.5723   187.5875 </r>
       <r>     4.3958    22.3464   190.2178 </r>
       <r>     4.5135    24.8673   193.1447 </r>
       <r>     4.6312    31.8705   196.8959 </r>
       <r>     4.7489    21.5834   199.4364 </r>
       <r>     4.8666    20.4582   201.8444 </r>
       <r>     4.9843    24.3403   204.7093 </r>
       <r>     5.1020    18.8632   206.9295 </r>
       <r>     5.2197    28.3023   210.2608 </r>
       <r>     5.3374    21.4668   212.7875 </r>
       <r>     5.4551    14.8250   214.5324 </r>
       <r>     5.5728    25.6783   217.5549 </r>
       <r>     5.6905    24.4425   220.4318 </r>
       <r>     5.8082    23.2704   223.1708 </r>
       <r>     5.9259    26.0552   226.2376 </r>
       <r>     6.0436    17.6398   228.3138 </r>
       <r>     6.1613    12.8362   229.8247 </r>
       <r>     6.2790    19.1290   232.0762 </r>
       <r>     6.3967    23.5151   234.8440 </r>
       <r>     6.5144    32.6482   238.6868 </r>
       <r>     6.6321     7.6079   239.5823 </r>
       <r>     6.7498     9.2036   240.6656 </r>
       <r>     6.8675    13.4808   242.2523 </r>
       <r>     6.9852    13.2274   243.8092 </r>
       <r>     7.1029     8.5250   244.8126 </r>
       <r>     7.2206    15.3050   246.6140 </r>
       <r>     7.3383     8.3644   247.5985 </r>
       <r>     7.4560     7.9927   248.5393 </r>
       <r>     7.5737     7.2650   249.3944 </r>
       <r>     7.6914     7.5550   250.2837 </r>
       <r>     7.8091     7.3048   251.1435 </r>
       <r>     7.9268     7.2716   251.9993 </r>
       <r>     8.0445     4.5864   252.5392 </r>
       <r>     8.1622     4.4940   253.0681 </r>
       <r>     8.2799     7.1744   253.9126 </r>
       <r>     8.3977     4.1625   254.4025 </r>
       <r>     8.5154     2.3059   254.6739 </r>
       <r>     8.6331     3.1879   255.0491 </r>
       <r>     8.7508     3.3612   255.4448 </r>
       <r>     8.8685     2.8947   255.7855 </r>
       <r>     8.9862     0.9325   255.8952 </r>
       <r>     9.1039     0.7899   255.9882 </r>
       <r>     9.2216     0.0999   256.0000 </r>
       <r>     9.3393     0.0003   256.0000 </r>
       <r>     9.4570     0.0000   256.0000 </r>
       <r>     9.5747     0.0000   256.0000 </r>
       <r>     9.6924     0.0000   256.0000 </r>
       <r>     9.8101     0.0000   256.0000 </r>
       <r>     9.9278     0.0000   256.0000 </r>
       <r>    10.0455     0.0000   256.0000 </r>
       <r>    10.1632     0.0000   256.0000 </r>
       <r>    10.2809     0.0000   256.0000 </r>
       <r>    10.3986     0.0000   256.0000 </r>
       <r>    10.5163     0.0000   256.0000 </r>
       <r>    10.6340     0.0000   256.0000 </r>
       <r>    10.7517     0.0000   256.0000 </r>
       <r>    10.8694     0.0000   256.0000 </r>
       <r>    10.9871     0.0000   256.0000 </r>
       <r>    11.1048     0.0000   256.0000 </r>
       <r>    11.2225     0.0000   256.0000 </r>
       <r>    11.3402     0.0000   256.0000 </r>
       <r>    11.4579     0.0000   256.0000 </r>
       <r>    11.5756     0.0000   256.0000 </r>
       <r>    11.6933     0.0000   256.0000 </r>
       <r>    11.8110     0.0000   256.0000 </r>
       <r>    11.9287     0.0000   256.0000 </r>
       <r>    12.0464     0.0000   256.0000 </r>
       <r>    12.1641     0.0000   256.0000 </r>
       <r>    12.2818     0.0000   256.0000 </r>
       <r>    12.3995     0.0000   256.0000 </r>
       <r>    12.5172     0.0000   256.0000 </r>
       <r>    12.6350     0.0000   256.0000 </r>
       <r>    12.7527     0.0000   256.0000 </r>
       <r>    12.8704     0.0000   256.0000 </r>
       <r>    12.9881     0.0062   256.0007 </r>
       <r>    13.1058     0.5909   256.0703 </r>
       <r>    13.2235     1.0689   256.1961 </r>
       <r>    13.3412     1.5708   256.3810 </r>
       <r>    13.4589     5.2433   256.9981 </r>
       <r>    13.5766     5.0957   257.5979 </r>
       <r>    13.6943     7.7045   258.5047 </r>
       <r>    13.8120     3.9002   258.9638 </r>
       <r>    13.9297     4.3875   259.4802 </r>
       <r>    14.0474     3.1460   259.8505 </r>
       <r>    14.1651    21.0567   262.3289 </r>
       <r>    14.2828    12.9038   263.8478 </r>
       <r>    14.4005    10.9219   265.1333 </r>
       <r>    14.5182     8.5218   266.1363 </r>
       <r>    14.6359    14.7941   267.8776 </r>
       <r>    14.7536    13.0518   269.4139 </r>
       <r>    14.8713    12.4743   270.8821 </r>
       <r>    14.9890    15.8728   272.7504 </r>
       <r>    15.1067    19.5296   275.0491 </r>
       <r>    15.2244    19.3883   277.3311 </r>
       <r>    15.3421    20.1816   279.7066 </r>
       <r>    15.4598    14.1157   281.3680 </r>
       <r>    15.5775    18.5997   283.5573 </r>
       <r>    15.6952    19.7645   285.8836 </r>
       <r>    15.8129    26.9513   289.0559 </r>
       <r>    15.9306    16.5441   291.0031 </r>
       <r>    16.0483    15.2078   292.7931 </r>
       <r>    16.1660    29.3523   296.2480 </r>
       <r>    16.2837    22.3704   298.8810 </r>
       <r>    16.4014    10.3729   300.1020 </r>
       <r>    16.5191    21.9957   302.6909 </r>
       <r>    16.6368    43.1779   307.7731 </r>
       <r>    16.7546    44.2083   312.9765 </r>
       <r>    16.8723    33.7400   316.9478 </r>
       <r>    16.9900    23.8053   319.7498 </r>
       <r>    17.1077    22.7668   322.4295 </r>
       <r>    17.2254    30.4603   326.0148 </r>
       <r>    17.3431    45.6378   331.3865 </r>
       <r>    17.4608    41.9875   336.3285 </r>
       <r>    17.5785    44.5584   341.5731 </r>
       <r>    17.6962    24.5698   344.4651 </r>
       <r>    17.8139    29.2596   347.9090 </r>
       <r>    17.9316    39.6172   352.5721 </r>
       <r>    18.0493    40.3588   357.3224 </r>
       <r>    18.1670    18.4294   359.4916 </r>
       <r>    18.2847    13.6986   361.1040 </r>
       <r>    18.4024    19.1064   363.3529 </r>
       <r>    18.5201    29.6872   366.8471 </r>
       <r>    18.6378    29.9138   370.3681 </r>
       <r>    18.7555    36.0732   374.6140 </r>
       <r>    18.8732    20.3405   377.0081 </r>
       <r>    18.9909    16.3081   378.9276 </r>
       <r>    19.1086    14.8762   380.6786 </r>
       <r>    19.2263     3.9418   381.1426 </r>
       <r>    19.3440     2.0919   381.3888 </r>
       <r>    19.4617     6.7681   382.1854 </r>
       <r>    19.5794     7.5250   383.0711 </r>
       <r>    19.6971     1.0394   383.1935 </r>
       <r>    19.8148     1.7260   383.3966 </r>
       <r>    19.9325     0.6356   383.4714 </r>
       <r>    20.0502     1.4051   383.6368 </r>
       <r>    20.1679     1.0733   383.7632 </r>
       <r>    20.2856     0.4682   383.8183 </r>
       <r>    20.4033     1.4848   383.9930 </r>
       <r>    20.5210     0.0592   384.0000 </r>
       <r>    20.6387     0.0000   384.0000 </r>
       <r>    20.7564     0.0000   384.0000 </r>
       <r>    20.8741     0.0000   384.0000 </r>
       <r>    20.9919     0.0000   384.0000 </r>
       <r>    21.1096     0.0000   384.0000 </r>
       <r>    21.2273     0.0000   384.0000 </r>
       <r>    21.3450     0.0000   384.0000 </r>
       <r>    21.4627     0.0000   384.0000 </r>
       <r>    21.5804     0.0000   384.0000 </r>
       <r>    21.6981     0.0000   384.0000 </r>
       <r>    21.8158     0.0000   384.0000 </r>
       <r>    21.9335     0.0000   384.0000 </r>
      </set>
     </set>
    </array>
   </total>
  </dos>
 </calculation>
 <structure name="finalpos" >
  <crystal>
   <varray name="basis" >
    <v>       7.25144289       0.00000000       0.00000000 </v>
    <v>       0.00000000       7.25144289       0.00000000 </v>
    <v>       0.00000000       0.00000000       7.25144289 </v>
   </varray>
   <i name="volume">    381.30569610 </i>
   <varray name="rec_basis" >
    <v>       0.13790359       0.00000000       0.00000000 </v>
    <v>       0.00000000       0.13790359       0.00000000 </v>
    <v>       0.00000000       0.00000000       0.13790359 </v>
   </varray>
  </crystal>
  <varray name="positions" >
   <v>       0.12500000       0.37500000       0.12500000 </v>
   <v>       0.62500000       0.37500000       0.12500000 </v>
   <v>       0.12500000       0.87500000       0.12500000 </v>
   <v>       0.62500000       0.87500000       0.12500000 </v>
   <v>       0.12500000       0.37500000       0.62500000 </v>
   <v>       0.62500000       0.37500000       0.62500000 </v>
   <v>       0.12500000       0.87500000       0.62500000 </v>
   <v>       0.62500000       0.87500000       0.62500000 </v>
   <v>       0.00000000       0.00000000       0.25000000 </v>
   <v>       0.50000000       0.00000000       0.25000000 </v>
   <v>       0.00000000       0.50000000       0.25000000 </v>
   <v>       0.50000000       0.50000000       0.25000000 </v>
   <v>       0.00000000       0.00000000       0.75000000 </v>
   <v>       0.50000000       0.00000000       0.75000000 </v>
   <v>       0.00000000       0.50000000       0.75000000 </v>
   <v>       0.50000000       0.50000000       0.75000000 </v>
   <v>       0.12500000       0.12500000       0.37500000 </v>
   <v>       0.62500000       0.12500000       0.37500000 </v>
   <v>       0.12500000       0.62500000       0.37500000 </v>
   <v>       0.62500000       0.62500000       0.37500000 </v>
   <v>       0.12500000       0.12500000       0.87500000 </v>
   <v>       0.62500000       0.12500000       0.87500000 </v>
   <v>       0.12500000       0.62500000       0.87500000 </v>
   <v>       0.62500000       0.62500000       0.87500000 </v>
   <v>       0.00000000       0.25000000       0.00000000 </v>
   <v>       0.50000000       0.25000000       0.00000000 </v>
   <v>       0.00000000       0.75000000       0.00000000 </v>
   <v>       0.50000000       0.75000000       0.00000000 </v>
   <v>       0.00000000       0.25000000       0.50000000 </v>
   <v>       0.50000000       0.25000000       0.50000000 </v>
   <v>       0.00000000       0.75000000       0.50000000 </v>
   <v>       0.50000000       0.75000000       0.50000000 </v>
   <v>       0.37500000       0.37500000       0.37500000 </v>
   <v>       0.87500000       0.37500000       0.37500000 </v>
   <v>       0.37500000       0.87500000       0.37500000 </v>
   <v>       0.87500000       0.87500000       0.37500000 </v>
   <v>       0.37500000       0.37500000       0.87500000 </v>
   <v>       0.87500000       0.37500000       0.87500000 </v>
   <v>       0.37500000       0.87500000       0.87500000 </v>
   <v>       0.87500000       0.87500000       0.87500000 </v>
   <v>       0.25000000       0.00000000       0.00000000 </v>
   <v>       0.75000000       0.00000000       0.00000000 </v>
   <v>       0.25000000       0.50000000       0.00000000 </v>
   <v>       0.75000000       0.50000000       0.00000000 </v>
   <v>       0.25000000       0.00000000       0.50000000 </v>
   <v>       0.75000000       0.00000000       0.50000000 </v>
   <v>       0.25000000       0.50000000       0.50000000 </v>
   <v>       0.75000000       0.50000000       0.50000000 </v>
   <v>       0.37500000       0.12500000       0.12500000 </v>
   <v>       0.87500000       0.12500000       0.12500000 </v>
   <v>       0.37500000       0.62500000       0.12500000 </v>
   <v>       0.87500000       0.62500000       0.12500000 </v>
   <v>       0.37500000       0.12500000       0.62500000 </v>
   <v>       0.87500000       0.12500000       0.62500000 </v>
   <v>       0.37500000       0.62500000       0.62500000 </v>
   <v>       0.87500000       0.62500000       0.62500000 </v>
   <v>       0.25000000       0.25000000       0.25000000 </v>
   <v>       0.75000000       0.25000000       0.25000000 </v>
   <v>       0.25000000       0.75000000       0.25000000 </v>
   <v>       0.75000000       0.75000000       0.25000000 </v>
   <v>       0.25000000       0.25000000       0.75000000 </v>
   <v>       0.75000000       0.25000000       0.75000000 </v>
   <v>       0.25000000       0.75000000       0.75000000 </v>
   <v>       0.75000000       0.75000000       0.75000000 </v>
  </varray>
 </structure>
</modeling>
