   8   8   0   0
  0.5270900E+01  0.3480633E-09  0.3480633E-09  0.3480633E-09  0.2000000E-16
  1.000000000000000E-004
  CAR 
 unknown system                          
     24.92991181    -13.38143790  301     10.89837998      1.00000000
    -13.381  0.0000E+00  0.0000E+00
    -13.254  0.0000E+00  0.0000E+00
    -13.126  0.0000E+00  0.0000E+00
    -12.998  0.0000E+00  0.0000E+00
    -12.871  0.0000E+00  0.0000E+00
    -12.743  0.0000E+00  0.0000E+00
    -12.615  0.0000E+00  0.0000E+00
    -12.488  0.0000E+00  0.0000E+00
    -12.360  0.0000E+00  0.0000E+00
    -12.232  0.0000E+00  0.0000E+00
    -12.104  0.0000E+00  0.0000E+00
    -11.977  0.0000E+00  0.0000E+00
    -11.849  0.0000E+00  0.0000E+00
    -11.721  0.0000E+00  0.0000E+00
    -11.594  0.3263E-01  0.5050E-03
    -11.466  0.1454E+00  0.1478E-01
    -11.338  0.2279E+00  0.3857E-01
    -11.210  0.2575E+00  0.6928E-01
    -11.083  0.3021E+00  0.1050E+00
    -10.955  0.3407E+00  0.1466E+00
    -10.827  0.3677E+00  0.1917E+00
    -10.700  0.3966E+00  0.2404E+00
    -10.572  0.4325E+00  0.2933E+00
    -10.444  0.4548E+00  0.3502E+00
    -10.317  0.4767E+00  0.4097E+00
    -10.189  0.5005E+00  0.4720E+00
    -10.061  0.5270E+00  0.5376E+00
     -9.933  0.5530E+00  0.6066E+00
     -9.806  0.5706E+00  0.6783E+00
     -9.678  0.5892E+00  0.7524E+00
     -9.550  0.6094E+00  0.8289E+00
     -9.423  0.6304E+00  0.9080E+00
     -9.295  0.6527E+00  0.9899E+00
     -9.167  0.6735E+00  0.1075E+01
     -9.039  0.6897E+00  0.1162E+01
     -8.912  0.7057E+00  0.1251E+01
     -8.784  0.7240E+00  0.1342E+01
     -8.656  0.7428E+00  0.1436E+01
     -8.529  0.7624E+00  0.1532E+01
     -8.401  0.7828E+00  0.1631E+01
     -8.273  0.7991E+00  0.1732E+01
     -8.146  0.8150E+00  0.1835E+01
     -8.018  0.8315E+00  0.1940E+01
     -7.890  0.8489E+00  0.2047E+01
     -7.762  0.8664E+00  0.2157E+01
     -7.635  0.8846E+00  0.2268E+01
     -7.507  0.9424E+00  0.2386E+01
     -7.379  0.9674E+00  0.2508E+01
     -7.252  0.1012E+01  0.2634E+01
     -7.124  0.1016E+01  0.2764E+01
     -6.996  0.9950E+00  0.2893E+01
     -6.869  0.9641E+00  0.3018E+01
     -6.741  0.9868E+00  0.3142E+01
     -6.613  0.9969E+00  0.3269E+01
     -6.485  0.1000E+01  0.3397E+01
     -6.358  0.1012E+01  0.3525E+01
     -6.230  0.1058E+01  0.3657E+01
     -6.102  0.1109E+01  0.3796E+01
     -5.975  0.1184E+01  0.3942E+01
     -5.847  0.1225E+01  0.4096E+01
     -5.719  0.1231E+01  0.4252E+01
     -5.591  0.1319E+01  0.4413E+01
     -5.464  0.1486E+01  0.4592E+01
     -5.336  0.1509E+01  0.4788E+01
     -5.208  0.1414E+01  0.4971E+01
     -5.081  0.1352E+01  0.5150E+01
     -4.953  0.1336E+01  0.5324E+01
     -4.825  0.1279E+01  0.5490E+01
     -4.698  0.1328E+01  0.5656E+01
     -4.570  0.1273E+01  0.5827E+01
     -4.442  0.1172E+01  0.5983E+01
     -4.314  0.1135E+01  0.6129E+01
     -4.187  0.1110E+01  0.6272E+01
     -4.059  0.1087E+01  0.6412E+01
     -3.931  0.1102E+01  0.6553E+01
     -3.804  0.1078E+01  0.6688E+01
     -3.676  0.1040E+01  0.6821E+01
     -3.548  0.9582E+00  0.6951E+01
     -3.420  0.9239E+00  0.7072E+01
     -3.293  0.8974E+00  0.7188E+01
     -3.165  0.1065E+01  0.7310E+01
     -3.037  0.1223E+01  0.7450E+01
     -2.910  0.1146E+01  0.7593E+01
     -2.782  0.1075E+01  0.7736E+01
     -2.654  0.1055E+01  0.7871E+01
     -2.527  0.1074E+01  0.8006E+01
     -2.399  0.1441E+01  0.8153E+01
     -2.271  0.1049E+01  0.8301E+01
     -2.143  0.9921E+00  0.8430E+01
     -2.016  0.9976E+00  0.8557E+01
     -1.888  0.1083E+01  0.8688E+01
     -1.760  0.1147E+01  0.8830E+01
     -1.633  0.1268E+01  0.8983E+01
     -1.505  0.1430E+01  0.9155E+01
     -1.377  0.1668E+01  0.9351E+01
     -1.250  0.2148E+01  0.9592E+01
     -1.122  0.2496E+01  0.9893E+01
     -0.994  0.2599E+01  0.1021E+02
     -0.866  0.2360E+01  0.1053E+02
     -0.739  0.1890E+01  0.1078E+02
     -0.611  0.1577E+01  0.1100E+02
     -0.483  0.1466E+01  0.1119E+02
     -0.356  0.1387E+01  0.1137E+02
     -0.228  0.1323E+01  0.1155E+02
     -0.100  0.1284E+01  0.1171E+02
      0.028  0.1258E+01  0.1187E+02
      0.155  0.1234E+01  0.1203E+02
      0.283  0.1211E+01  0.1219E+02
      0.411  0.1237E+01  0.1235E+02
      0.538  0.1138E+01  0.1251E+02
      0.666  0.1161E+01  0.1265E+02
      0.794  0.1089E+01  0.1280E+02
      0.921  0.1000E+01  0.1293E+02
      1.049  0.1145E+01  0.1307E+02
      1.177  0.1459E+01  0.1323E+02
      1.305  0.1844E+01  0.1344E+02
      1.432  0.2120E+01  0.1370E+02
      1.560  0.2085E+01  0.1397E+02
      1.688  0.1991E+01  0.1423E+02
      1.815  0.2025E+01  0.1449E+02
      1.943  0.2108E+01  0.1475E+02
      2.071  0.2166E+01  0.1502E+02
      2.199  0.2040E+01  0.1530E+02
      2.326  0.1673E+01  0.1554E+02
      2.454  0.1267E+01  0.1572E+02
      2.582  0.1475E+01  0.1589E+02
      2.709  0.1858E+01  0.1610E+02
      2.837  0.2065E+01  0.1636E+02
      2.965  0.2219E+01  0.1663E+02
      3.092  0.2164E+01  0.1691E+02
      3.220  0.2244E+01  0.1719E+02
      3.348  0.2276E+01  0.1748E+02
      3.476  0.2423E+01  0.1777E+02
      3.603  0.2737E+01  0.1811E+02
      3.731  0.2903E+01  0.1848E+02
      3.859  0.2523E+01  0.1881E+02
      3.986  0.2481E+01  0.1913E+02
      4.114  0.2472E+01  0.1943E+02
      4.242  0.2861E+01  0.1977E+02
      4.369  0.2603E+01  0.2011E+02
      4.497  0.3012E+01  0.2046E+02
      4.625  0.3414E+01  0.2087E+02
      4.753  0.3552E+01  0.2132E+02
      4.880  0.3053E+01  0.2174E+02
      5.008  0.2890E+01  0.2213E+02
      5.136  0.2511E+01  0.2246E+02
      5.263  0.2556E+01  0.2278E+02
      5.391  0.2729E+01  0.2312E+02
      5.519  0.2530E+01  0.2346E+02
      5.647  0.2679E+01  0.2379E+02
      5.774  0.2800E+01  0.2414E+02
      5.902  0.2784E+01  0.2450E+02
      6.030  0.2787E+01  0.2485E+02
      6.157  0.2885E+01  0.2522E+02
      6.285  0.2829E+01  0.2559E+02
      6.413  0.2503E+01  0.2593E+02
      6.540  0.2338E+01  0.2623E+02
      6.668  0.2188E+01  0.2652E+02
      6.796  0.2223E+01  0.2680E+02
      6.924  0.2542E+01  0.2709E+02
      7.051  0.2630E+01  0.2743E+02
      7.179  0.2552E+01  0.2776E+02
      7.307  0.2565E+01  0.2809E+02
      7.434  0.2363E+01  0.2841E+02
      7.562  0.2257E+01  0.2870E+02
      7.690  0.2137E+01  0.2898E+02
      7.818  0.3145E+01  0.2929E+02
      7.945  0.1878E+01  0.2964E+02
      8.073  0.1667E+01  0.2986E+02
      8.201  0.1529E+01  0.3006E+02
      8.328  0.1403E+01  0.3025E+02
      8.456  0.1293E+01  0.3042E+02
      8.584  0.1231E+01  0.3058E+02
      8.711  0.1161E+01  0.3074E+02
      8.839  0.1093E+01  0.3088E+02
      8.967  0.9797E+00  0.3101E+02
      9.095  0.8857E+00  0.3113E+02
      9.222  0.8301E+00  0.3124E+02
      9.350  0.7858E+00  0.3134E+02
      9.478  0.7539E+00  0.3144E+02
      9.605  0.6769E+00  0.3153E+02
      9.733  0.6034E+00  0.3162E+02
      9.861  0.5313E+00  0.3169E+02
      9.988  0.5137E+00  0.3175E+02
     10.116  0.4471E+00  0.3182E+02
     10.244  0.3482E+00  0.3187E+02
     10.372  0.3631E+00  0.3191E+02
     10.499  0.3459E+00  0.3196E+02
     10.627  0.1436E+00  0.3198E+02
     10.755  0.1229E+00  0.3200E+02
     10.882  0.0000E+00  0.3200E+02
     11.010  0.0000E+00  0.3200E+02
     11.138  0.0000E+00  0.3200E+02
     11.266  0.0000E+00  0.3200E+02
     11.393  0.0000E+00  0.3200E+02
     11.521  0.0000E+00  0.3200E+02
     11.649  0.0000E+00  0.3200E+02
     11.776  0.0000E+00  0.3200E+02
     11.904  0.0000E+00  0.3200E+02
     12.032  0.0000E+00  0.3200E+02
     12.159  0.0000E+00  0.3200E+02
     12.287  0.0000E+00  0.3200E+02
     12.415  0.0000E+00  0.3200E+02
     12.543  0.0000E+00  0.3200E+02
     12.670  0.0000E+00  0.3200E+02
     12.798  0.0000E+00  0.3200E+02
     12.926  0.0000E+00  0.3200E+02
     13.053  0.0000E+00  0.3200E+02
     13.181  0.0000E+00  0.3200E+02
     13.309  0.0000E+00  0.3200E+02
     13.437  0.0000E+00  0.3200E+02
     13.564  0.0000E+00  0.3200E+02
     13.692  0.0000E+00  0.3200E+02
     13.820  0.0000E+00  0.3200E+02
     13.947  0.0000E+00  0.3200E+02
     14.075  0.0000E+00  0.3200E+02
     14.203  0.0000E+00  0.3200E+02
     14.330  0.0000E+00  0.3200E+02
     14.458  0.0000E+00  0.3200E+02
     14.586  0.0000E+00  0.3200E+02
     14.714  0.0000E+00  0.3200E+02
     14.841  0.0000E+00  0.3200E+02
     14.969  0.0000E+00  0.3200E+02
     15.097  0.0000E+00  0.3200E+02
     15.224  0.3938E-01  0.3200E+02
     15.352  0.1851E+00  0.3201E+02
     15.480  0.4195E+00  0.3205E+02
     15.607  0.5621E+00  0.3212E+02
     15.735  0.5579E+00  0.3219E+02
     15.863  0.6988E+00  0.3227E+02
     15.991  0.8244E+00  0.3237E+02
     16.118  0.9177E+00  0.3248E+02
     16.246  0.1672E+01  0.3262E+02
     16.374  0.1395E+01  0.3280E+02
     16.501  0.1385E+01  0.3298E+02
     16.629  0.1447E+01  0.3316E+02
     16.757  0.1448E+01  0.3334E+02
     16.885  0.1527E+01  0.3353E+02
     17.012  0.1629E+01  0.3373E+02
     17.140  0.1728E+01  0.3395E+02
     17.268  0.1960E+01  0.3419E+02
     17.395  0.2178E+01  0.3446E+02
     17.523  0.2082E+01  0.3473E+02
     17.651  0.1969E+01  0.3499E+02
     17.778  0.1989E+01  0.3524E+02
     17.906  0.2045E+01  0.3550E+02
     18.034  0.2141E+01  0.3577E+02
     18.162  0.2303E+01  0.3605E+02
     18.289  0.2447E+01  0.3635E+02
     18.417  0.2643E+01  0.3667E+02
     18.545  0.2618E+01  0.3701E+02
     18.672  0.2707E+01  0.3735E+02
     18.800  0.2866E+01  0.3771E+02
     18.928  0.3191E+01  0.3809E+02
     19.056  0.3441E+01  0.3852E+02
     19.183  0.4072E+01  0.3900E+02
     19.311  0.4170E+01  0.3954E+02
     19.439  0.4130E+01  0.4005E+02
     19.566  0.3354E+01  0.4055E+02
     19.694  0.2584E+01  0.4091E+02
     19.822  0.2537E+01  0.4125E+02
     19.949  0.2774E+01  0.4158E+02
     20.077  0.3269E+01  0.4197E+02
     20.205  0.3257E+01  0.4239E+02
     20.333  0.3128E+01  0.4278E+02
     20.460  0.3509E+01  0.4321E+02
     20.588  0.3605E+01  0.4368E+02
     20.716  0.3212E+01  0.4412E+02
     20.843  0.2854E+01  0.4451E+02
     20.971  0.2595E+01  0.4485E+02
     21.099  0.2560E+01  0.4518E+02
     21.226  0.2690E+01  0.4551E+02
     21.354  0.2646E+01  0.4585E+02
     21.482  0.2648E+01  0.4619E+02
     21.610  0.2648E+01  0.4653E+02
     21.737  0.2623E+01  0.4686E+02
     21.865  0.2483E+01  0.4720E+02
     21.993  0.1882E+01  0.4748E+02
     22.120  0.1361E+01  0.4769E+02
     22.248  0.6489E+00  0.4782E+02
     22.376  0.4510E+00  0.4789E+02
     22.504  0.2196E+00  0.4793E+02
     22.631  0.1739E+00  0.4795E+02
     22.759  0.1296E+00  0.4797E+02
     22.887  0.8685E-01  0.4799E+02
     23.014  0.4708E-01  0.4800E+02
     23.142  0.1079E-01  0.4800E+02
     23.270  0.0000E+00  0.4800E+02
     23.397  0.0000E+00  0.4800E+02
     23.525  0.0000E+00  0.4800E+02
     23.653  0.0000E+00  0.4800E+02
     23.781  0.0000E+00  0.4800E+02
     23.908  0.0000E+00  0.4800E+02
     24.036  0.0000E+00  0.4800E+02
     24.164  0.0000E+00  0.4800E+02
     24.291  0.0000E+00  0.4800E+02
     24.419  0.0000E+00  0.4800E+02
     24.547  0.0000E+00  0.4800E+02
     24.675  0.0000E+00  0.4800E+02
     24.802  0.0000E+00  0.4800E+02
     24.930  0.0000E+00  0.4800E+02
