       N       E                     dE             d eps       ncg     rms          rms(c)
DAV:   1     0.593800518580E+02    0.59380E+02   -0.14641E+04  4032   0.106E+03
DAV:   2    -0.713512509664E+02   -0.13073E+03   -0.12416E+03  5528   0.227E+02
DAV:   3    -0.754589176013E+02   -0.41077E+01   -0.40886E+01  5216   0.373E+01
DAV:   4    -0.754962553965E+02   -0.37338E-01   -0.37312E-01  5064   0.394E+00
DAV:   5    -0.754968953411E+02   -0.63994E-03   -0.63951E-03  5216   0.457E-01    0.104E+01
DAV:   6    -0.731403552141E+02    0.23565E+01   -0.15357E+00  4536   0.722E+00    0.563E+00
DAV:   7    -0.723466489063E+02    0.79371E+00   -0.16999E+00  4624   0.781E+00    0.715E-01
DAV:   8    -0.723549342597E+02   -0.82854E-02   -0.31744E-02  5024   0.105E+00    0.854E-02
DAV:   9    -0.723551320247E+02   -0.19777E-03   -0.42348E-04  4888   0.142E-01    0.292E-02
DAV:  10    -0.723551812039E+02   -0.49179E-04   -0.38982E-05  5008   0.487E-02    0.275E-03
DAV:  11    -0.723551819181E+02   -0.71416E-06   -0.97483E-07  3640   0.711E-03
   1 F= -.72355182E+02 E0= -.72355182E+02  d E =0.000000E+00
