 vasp.5.4.4.18Apr17-6-g9f103f2a35 (build Mar 12 2022 03:36:41) complex          
  
 executed on IFC19.0.3.199_CrayMP date 2022.12.01  10:38:03
 running on   16 total cores
 distrk:  each k-point on   16 cores,    1 groups
 distr:  one band on NCORES_PER_BAND=   4 cores,    4 groups


--------------------------------------------------------------------------------------------------------


 INCAR:
 POTCAR:   PAW_PBE C 08Apr2002                    
 POTCAR:   PAW_PBE C 08Apr2002                    
   VRHFIN =C: s2p2                                                              
   LEXCH  = PE                                                                  
   EATOM  =   147.1560 eV,   10.8157 Ry                                         
                                                                                
   TITEL  = PAW_PBE C 08Apr2002                                                 
   LULTRA =        F    use ultrasoft PP ?                                      
   IUNSCR =        0    unscreen: 0-lin 1-nonlin 2-no                           
   RPACOR =     .000    partial core radius                                     
   POMASS =   12.011; ZVAL   =    4.000    mass and valenz                      
   RCORE  =    1.500    outmost cutoff radius                                   
   RWIGS  =    1.630; RWIGS  =     .863    wigner-seitz radius (au A)           
   ENMAX  =  400.000; ENMIN  =  300.000 eV                                      
   ICORE  =        2    local potential                                         
   LCOR   =        T    correct aug charges                                     
   LPAW   =        T    paw PP                                                  
   EAUG   =  644.873                                                            
   DEXC   =     .000                                                            
   RMAX   =    2.266    core radius for proj-oper                               
   RAUG   =    1.300    factor for augmentation sphere                          
   RDEP   =    1.501    radius for radial grids                                 
   RDEPT  =    1.300    core radius for aug-charge                              
   QCUT   =   -5.516; QGAM   =   11.032    optimization parameters              
                                                                                
   Description                                                                  
     l     E      TYP  RCUT    TYP  RCUT                                        
     0   .000     23  1.200                                                     
     0   .000     23  1.200                                                     
     1   .000     23  1.500                                                     
     1  2.500     23  1.500                                                     
     2   .000      7  1.500                                                     
  local pseudopotential read in
  atomic valenz-charges read in
  non local Contribution for L=           0  read in
    real space projection operators read in
  non local Contribution for L=           0  read in
    real space projection operators read in
  non local Contribution for L=           1  read in
    real space projection operators read in
  non local Contribution for L=           1  read in
    real space projection operators read in
    PAW grid and wavefunctions read in
 
   number of l-projection  operators is LMAX  =           4
   number of lm-projection operators is LMMAX =           8
 
 PAW_PBE C 08Apr2002                    :
 energy of atom  1       EATOM= -147.1560
 kinetic energy error for atom=    0.0288 (will be added to EATOM!!)
 
 
 POSCAR: C8                                      
  positions in direct lattice
  No initial velocities read in
 exchange correlation table for  LEXCH =        8
   RHO(1)=    0.500       N(1)  =     2000
   RHO(2)=  100.500       N(2)  =     4000
 


--------------------------------------------------------------------------------------------------------


 ion  position               nearest neighbor table
   1  0.250  0.750  0.250-   2 1.51   4 1.51   6 1.51   8 1.51
   2  0.000  0.000  0.500-   1 1.51   3 1.51   5 1.51   7 1.51
   3  0.250  0.250  0.750-   2 1.51   4 1.51   6 1.51   8 1.51
   4  0.000  0.500  0.000-   1 1.51   3 1.51   5 1.51   7 1.51
   5  0.750  0.750  0.750-   2 1.51   4 1.51   6 1.51   8 1.51
   6  0.500  0.000  0.000-   1 1.51   3 1.51   5 1.51   7 1.51
   7  0.750  0.250  0.250-   2 1.51   4 1.51   6 1.51   8 1.51
   8  0.500  0.500  0.500-   1 1.51   3 1.51   5 1.51   7 1.51
 
  LATTYP: Found a simple cubic cell.
 ALAT       =     3.4806331177
  
  Lattice vectors:
  
 A1 = (   3.4806331177,   0.0000000000,   0.0000000000)
 A2 = (   0.0000000000,   3.4806331177,   0.0000000000)
 A3 = (   0.0000000000,   0.0000000000,   3.4806331177)


Analysis of symmetry for initial positions (statically):
=====================================================================
 Subroutine PRICEL returns following result:
 
  LATTYP: Found a face centered cubic cell.
 ALAT       =     3.4806331177
  
  Lattice vectors:
  
 A1 = (   1.7403165588,   1.7403165588,   0.0000000000)
 A2 = (   1.7403165588,   0.0000000000,  -1.7403165588)
 A3 = (   0.0000000000,   1.7403165588,  -1.7403165588)
 
   4 primitive cells build up your supercell.
 

 Routine SETGRP: Setting up the symmetry group for a 
 simple cubic supercell.


 Subroutine GETGRP returns: Found 48 space group operations
 (whereof 24 operations were pure point group operations)
 out of a pool of 48 trial point group operations.


The static configuration has the point symmetry T_d .
 The point group associated with its full space group is O_h .


Analysis of symmetry for dynamics (positions and initial velocities):
=====================================================================
 Subroutine PRICEL returns following result:
 
  LATTYP: Found a face centered cubic cell.
 ALAT       =     3.4806331177
  
  Lattice vectors:
  
 A1 = (   1.7403165588,   1.7403165588,   0.0000000000)
 A2 = (   1.7403165588,   0.0000000000,  -1.7403165588)
 A3 = (   0.0000000000,   1.7403165588,  -1.7403165588)
 
   4 primitive cells build up your supercell.
 

 Routine SETGRP: Setting up the symmetry group for a 
 simple cubic supercell.


 Subroutine GETGRP returns: Found 48 space group operations
 (whereof 24 operations were pure point group operations)
 out of a pool of 48 trial point group operations.


The dynamic configuration has the point symmetry T_d .
 The point group associated with its full space group is O_h .


 Subroutine INISYM returns: Found 48 space group operations
 (whereof 24 operations are pure point group operations),
 and found     4 'primitive' translations

 
 
 KPOINTS: kpt_density=1000                        

Automatic generation of k-mesh.
Space group operators:
 irot       det(A)        alpha          n_x          n_y          n_z        tau_x        tau_y        tau_z
    1     1.000000     0.000000     1.000000     0.000000     0.000000     0.000000     0.000000     0.000000
    2     1.000000   120.000000    -0.577350    -0.577350    -0.577350     0.000000     0.000000     0.000000
    3     1.000000   120.000000     0.577350     0.577350     0.577350     0.000000     0.000000     0.000000
    4    -1.000000    90.000000     0.000000     0.000000    -1.000000     0.000000     0.000000     0.000000
    5    -1.000000   180.000000     0.000000     0.707107     0.707107     0.000000     0.000000     0.000000
    6    -1.000000    90.000000     0.000000     1.000000     0.000000     0.000000     0.000000     0.000000
    7     1.000000   180.000000     0.000000     0.000000     1.000000     0.000000     0.000000     0.000000
    8     1.000000   120.000000    -0.577350     0.577350     0.577350     0.000000     0.000000     0.000000
    9     1.000000   120.000000    -0.577350     0.577350    -0.577350     0.000000     0.000000     0.000000
   10    -1.000000    90.000000     0.000000     0.000000     1.000000     0.000000     0.000000     0.000000
   11    -1.000000    90.000000    -1.000000     0.000000     0.000000     0.000000     0.000000     0.000000
   12    -1.000000   180.000000     0.707107     0.000000     0.707107     0.000000     0.000000     0.000000
   13     1.000000   120.000000     0.577350    -0.577350     0.577350     0.000000     0.000000     0.000000
   14     1.000000   120.000000    -0.577350    -0.577350     0.577350     0.000000     0.000000     0.000000
   15     1.000000   180.000000     1.000000     0.000000     0.000000     0.000000     0.000000     0.000000
   16    -1.000000    90.000000     0.000000    -1.000000     0.000000     0.000000     0.000000     0.000000
   17    -1.000000   180.000000     0.707107     0.707107     0.000000     0.000000     0.000000     0.000000
   18    -1.000000    90.000000     1.000000     0.000000     0.000000     0.000000     0.000000     0.000000
   19     1.000000   120.000000     0.577350    -0.577350    -0.577350     0.000000     0.000000     0.000000
   20     1.000000   180.000000     0.000000     1.000000     0.000000     0.000000     0.000000     0.000000
   21     1.000000   120.000000     0.577350     0.577350    -0.577350     0.000000     0.000000     0.000000
   22    -1.000000   180.000000     0.000000    -0.707107     0.707107     0.000000     0.000000     0.000000
   23    -1.000000   180.000000     0.707107    -0.707107     0.000000     0.000000     0.000000     0.000000
   24    -1.000000   180.000000     0.707107     0.000000    -0.707107     0.000000     0.000000     0.000000
   25    -1.000000     0.000000     1.000000     0.000000     0.000000     0.750000     0.750000    -0.750000
   26    -1.000000   120.000000    -0.577350    -0.577350    -0.577350     0.750000     0.750000    -0.750000
   27    -1.000000   120.000000     0.577350     0.577350     0.577350     0.750000     0.750000    -0.750000
   28     1.000000    90.000000     0.000000     0.000000    -1.000000     0.750000     0.750000    -0.750000
   29     1.000000   180.000000     0.000000     0.707107     0.707107     0.750000     0.750000    -0.750000
   30     1.000000    90.000000     0.000000     1.000000     0.000000     0.750000     0.750000    -0.750000
   31    -1.000000   180.000000     0.000000     0.000000     1.000000     0.750000     0.750000    -0.750000
   32    -1.000000   120.000000    -0.577350     0.577350     0.577350     0.750000     0.750000    -0.750000
   33    -1.000000   120.000000    -0.577350     0.577350    -0.577350     0.750000     0.750000    -0.750000
   34     1.000000    90.000000     0.000000     0.000000     1.000000     0.750000     0.750000    -0.750000
   35     1.000000    90.000000    -1.000000     0.000000     0.000000     0.750000     0.750000    -0.750000
   36     1.000000   180.000000     0.707107     0.000000     0.707107     0.750000     0.750000    -0.750000
   37    -1.000000   120.000000     0.577350    -0.577350     0.577350     0.750000     0.750000    -0.750000
   38    -1.000000   120.000000    -0.577350    -0.577350     0.577350     0.750000     0.750000    -0.750000
   39    -1.000000   180.000000     1.000000     0.000000     0.000000     0.750000     0.750000    -0.750000
   40     1.000000    90.000000     0.000000    -1.000000     0.000000     0.750000     0.750000    -0.750000
   41     1.000000   180.000000     0.707107     0.707107     0.000000     0.750000     0.750000    -0.750000
   42     1.000000    90.000000     1.000000     0.000000     0.000000     0.750000     0.750000    -0.750000
   43    -1.000000   120.000000     0.577350    -0.577350    -0.577350     0.750000     0.750000    -0.750000
   44    -1.000000   180.000000     0.000000     1.000000     0.000000     0.750000     0.750000    -0.750000
   45    -1.000000   120.000000     0.577350     0.577350    -0.577350     0.750000     0.750000    -0.750000
   46     1.000000   180.000000     0.000000    -0.707107     0.707107     0.750000     0.750000    -0.750000
   47     1.000000   180.000000     0.707107    -0.707107     0.000000     0.750000     0.750000    -0.750000
   48     1.000000   180.000000     0.707107     0.000000    -0.707107     0.750000     0.750000    -0.750000
 
 Subroutine IBZKPT returns following result:
 ===========================================
 
 Found     84 irreducible k-points:
 
 Following reciprocal coordinates:
            Coordinates               Weight
  0.000000  0.000000  0.000000      1.000000
  0.083333  0.000000  0.000000      6.000000
  0.166667  0.000000  0.000000      6.000000
  0.250000  0.000000  0.000000      6.000000
  0.333333  0.000000  0.000000      6.000000
  0.416667  0.000000  0.000000      6.000000
  0.500000  0.000000  0.000000      3.000000
  0.083333  0.083333  0.000000     12.000000
  0.166667  0.083333  0.000000     24.000000
  0.250000  0.083333  0.000000     24.000000
  0.333333  0.083333  0.000000     24.000000
  0.416667  0.083333  0.000000     24.000000
  0.500000  0.083333  0.000000     12.000000
  0.166667  0.166667  0.000000     12.000000
  0.250000  0.166667  0.000000     24.000000
  0.333333  0.166667  0.000000     24.000000
  0.416667  0.166667  0.000000     24.000000
  0.500000  0.166667  0.000000     12.000000
  0.250000  0.250000  0.000000     12.000000
  0.333333  0.250000  0.000000     24.000000
  0.416667  0.250000  0.000000     24.000000
  0.500000  0.250000  0.000000     12.000000
  0.333333  0.333333  0.000000     12.000000
  0.416667  0.333333  0.000000     24.000000
  0.500000  0.333333  0.000000     12.000000
  0.416667  0.416667  0.000000     12.000000
  0.500000  0.416667  0.000000     12.000000
  0.500000  0.500000  0.000000      3.000000
  0.083333  0.083333  0.083333      8.000000
  0.166667  0.083333  0.083333     24.000000
  0.250000  0.083333  0.083333     24.000000
  0.333333  0.083333  0.083333     24.000000
  0.416667  0.083333  0.083333     24.000000
  0.500000  0.083333  0.083333     12.000000
  0.166667  0.166667  0.083333     24.000000
  0.250000  0.166667  0.083333     48.000000
  0.333333  0.166667  0.083333     48.000000
  0.416667  0.166667  0.083333     48.000000
  0.500000  0.166667  0.083333     24.000000
  0.250000  0.250000  0.083333     24.000000
  0.333333  0.250000  0.083333     48.000000
  0.416667  0.250000  0.083333     48.000000
  0.500000  0.250000  0.083333     24.000000
  0.333333  0.333333  0.083333     24.000000
  0.416667  0.333333  0.083333     48.000000
  0.500000  0.333333  0.083333     24.000000
  0.416667  0.416667  0.083333     24.000000
  0.500000  0.416667  0.083333     24.000000
  0.500000  0.500000  0.083333      6.000000
  0.166667  0.166667  0.166667      8.000000
  0.250000  0.166667  0.166667     24.000000
  0.333333  0.166667  0.166667     24.000000
  0.416667  0.166667  0.166667     24.000000
  0.500000  0.166667  0.166667     12.000000
  0.250000  0.250000  0.166667     24.000000
  0.333333  0.250000  0.166667     48.000000
  0.416667  0.250000  0.166667     48.000000
  0.500000  0.250000  0.166667     24.000000
  0.333333  0.333333  0.166667     24.000000
  0.416667  0.333333  0.166667     48.000000
  0.500000  0.333333  0.166667     24.000000
  0.416667  0.416667  0.166667     24.000000
  0.500000  0.416667  0.166667     24.000000
  0.500000  0.500000  0.166667      6.000000
  0.250000  0.250000  0.250000      8.000000
  0.333333  0.250000  0.250000     24.000000
  0.416667  0.250000  0.250000     24.000000
  0.500000  0.250000  0.250000     12.000000
  0.333333  0.333333  0.250000     24.000000
  0.416667  0.333333  0.250000     48.000000
  0.500000  0.333333  0.250000     24.000000
  0.416667  0.416667  0.250000     24.000000
  0.500000  0.416667  0.250000     24.000000
  0.500000  0.500000  0.250000      6.000000
  0.333333  0.333333  0.333333      8.000000
  0.416667  0.333333  0.333333     24.000000
  0.500000  0.333333  0.333333     12.000000
  0.416667  0.416667  0.333333     24.000000
  0.500000  0.416667  0.333333     24.000000
  0.500000  0.500000  0.333333      6.000000
  0.416667  0.416667  0.416667      8.000000
  0.500000  0.416667  0.416667     12.000000
  0.500000  0.500000  0.416667      6.000000
  0.500000  0.500000  0.500000      1.000000
 
 Following cartesian coordinates:
            Coordinates               Weight
  0.000000  0.000000  0.000000      1.000000
  0.024051  0.000000  0.000000      6.000000
  0.048102  0.000000  0.000000      6.000000
  0.072153  0.000000  0.000000      6.000000
  0.096205  0.000000  0.000000      6.000000
  0.120256  0.000000  0.000000      6.000000
  0.144307  0.000000  0.000000      3.000000
  0.024051  0.024051  0.000000     12.000000
  0.048102  0.024051  0.000000     24.000000
  0.072153  0.024051  0.000000     24.000000
  0.096205  0.024051  0.000000     24.000000
  0.120256  0.024051  0.000000     24.000000
  0.144307  0.024051  0.000000     12.000000
  0.048102  0.048102  0.000000     12.000000
  0.072153  0.048102  0.000000     24.000000
  0.096205  0.048102  0.000000     24.000000
  0.120256  0.048102  0.000000     24.000000
  0.144307  0.048102  0.000000     12.000000
  0.072153  0.072153  0.000000     12.000000
  0.096205  0.072153  0.000000     24.000000
  0.120256  0.072153  0.000000     24.000000
  0.144307  0.072153  0.000000     12.000000
  0.096205  0.096205  0.000000     12.000000
  0.120256  0.096205  0.000000     24.000000
  0.144307  0.096205  0.000000     12.000000
  0.120256  0.120256  0.000000     12.000000
  0.144307  0.120256  0.000000     12.000000
  0.144307  0.144307  0.000000      3.000000
  0.024051  0.024051  0.024051      8.000000
  0.048102  0.024051  0.024051     24.000000
  0.072153  0.024051  0.024051     24.000000
  0.096205  0.024051  0.024051     24.000000
  0.120256  0.024051  0.024051     24.000000
  0.144307  0.024051  0.024051     12.000000
  0.048102  0.048102  0.024051     24.000000
  0.072153  0.048102  0.024051     48.000000
  0.096205  0.048102  0.024051     48.000000
  0.120256  0.048102  0.024051     48.000000
  0.144307  0.048102  0.024051     24.000000
  0.072153  0.072153  0.024051     24.000000
  0.096205  0.072153  0.024051     48.000000
  0.120256  0.072153  0.024051     48.000000
  0.144307  0.072153  0.024051     24.000000
  0.096205  0.096205  0.024051     24.000000
  0.120256  0.096205  0.024051     48.000000
  0.144307  0.096205  0.024051     24.000000
  0.120256  0.120256  0.024051     24.000000
  0.144307  0.120256  0.024051     24.000000
  0.144307  0.144307  0.024051      6.000000
  0.048102  0.048102  0.048102      8.000000
  0.072153  0.048102  0.048102     24.000000
  0.096205  0.048102  0.048102     24.000000
  0.120256  0.048102  0.048102     24.000000
  0.144307  0.048102  0.048102     12.000000
  0.072153  0.072153  0.048102     24.000000
  0.096205  0.072153  0.048102     48.000000
  0.120256  0.072153  0.048102     48.000000
  0.144307  0.072153  0.048102     24.000000
  0.096205  0.096205  0.048102     24.000000
  0.120256  0.096205  0.048102     48.000000
  0.144307  0.096205  0.048102     24.000000
  0.120256  0.120256  0.048102     24.000000
  0.144307  0.120256  0.048102     24.000000
  0.144307  0.144307  0.048102      6.000000
  0.072153  0.072153  0.072153      8.000000
  0.096205  0.072153  0.072153     24.000000
  0.120256  0.072153  0.072153     24.000000
  0.144307  0.072153  0.072153     12.000000
  0.096205  0.096205  0.072153     24.000000
  0.120256  0.096205  0.072153     48.000000
  0.144307  0.096205  0.072153     24.000000
  0.120256  0.120256  0.072153     24.000000
  0.144307  0.120256  0.072153     24.000000
  0.144307  0.144307  0.072153      6.000000
  0.096205  0.096205  0.096205      8.000000
  0.120256  0.096205  0.096205     24.000000
  0.144307  0.096205  0.096205     12.000000
  0.120256  0.120256  0.096205     24.000000
  0.144307  0.120256  0.096205     24.000000
  0.144307  0.144307  0.096205      6.000000
  0.120256  0.120256  0.120256      8.000000
  0.144307  0.120256  0.120256     12.000000
  0.144307  0.144307  0.120256      6.000000
  0.144307  0.144307  0.144307      1.000000
 
 TETIRR: Found    854 inequivalent tetrahedra from    10368


--------------------------------------------------------------------------------------------------------




 Dimension of arrays:
   k-points           NKPTS =     84   k-points in BZ     NKDIM =     84   number of bands    NBANDS=     24
   number of dos      NEDOS =    301   number of ions     NIONS =      8
   non local maximal  LDIM  =      4   non local SUM 2l+1 LMDIM =      8
   total plane-waves  NPLWV =  13824
   max r-space proj   IRMAX =      1   max aug-charges    IRDMAX=   4068
   dimension x,y,z NGX =    24 NGY =   24 NGZ =   24
   dimension x,y,z NGXF=    48 NGYF=   48 NGZF=   48
   support grid    NGXF=    48 NGYF=   48 NGZF=   48
   ions per type =               8
   NGX,Y,Z   is equivalent  to a cutoff of  11.46, 11.46, 11.46 a.u.
   NGXF,Y,Z  is equivalent  to a cutoff of  22.93, 22.93, 22.93 a.u.

 SYSTEM =  unknown system                          
 POSCAR =  C8                                      

 Startparameter for this run:
   NWRITE =      2    write-flag & timer
   PREC   = accura    normal or accurate (medium, high low for compatibility)
   ISTART =      0    job   : 0-new  1-cont  2-samecut
   ICHARG =      2    charge: 1-file 2-atom 10-const
   ISPIN  =      1    spin polarized calculation?
   LNONCOLLINEAR =      F non collinear calculations
   LSORBIT =      F    spin-orbit coupling
   INIWAV =      1    electr: 0-lowe 1-rand  2-diag
   LASPH  =      F    aspherical Exc in radial PAW
   METAGGA=      F    non-selfconsistent MetaGGA calc.

 Electronic Relaxation 1
   ENCUT  =  400.0 eV  29.40 Ry    5.42 a.u.   5.68  5.68  5.68*2*pi/ulx,y,z
   ENINI  =  400.0     initial cutoff
   ENAUG  =  644.9 eV  augmentation charge cutoff
   NELM   =     60;   NELMIN=  2; NELMDL= -5     # of ELM steps 
   EDIFF  = 0.1E-05   stopping-criterion for ELM
   LREAL  =      F    real-space projection
   NLSPLINE    = F    spline interpolate recip. space projectors
   LCOMPAT=      F    compatible to vasp.4.4
   GGA_COMPAT  = T    GGA compatible to vasp.4.4-vasp.4.6
   LMAXPAW     = -100 max onsite density
   LMAXMIX     =    2 max onsite mixed and CHGCAR
   VOSKOWN=      0    Vosko Wilk Nusair interpolation
   ROPT   =    0.00000
 Ionic relaxation
   EDIFFG = 0.1E-04   stopping-criterion for IOM
   NSW    =      0    number of steps for IOM
   NBLOCK =      1;   KBLOCK =      1    inner block; outer block 
   IBRION =     -1    ionic relax: 0-MD 1-quasi-New 2-CG
   NFREE  =      0    steps in history (QN), initial steepest desc. (CG)
   ISIF   =      2    stress and relaxation
   IWAVPR =     10    prediction:  0-non 1-charg 2-wave 3-comb
   ISYM   =      2    0-nonsym 1-usesym 2-fastsym
   LCORR  =      T    Harris-Foulkes like correction to forces

   POTIM  = 0.0200    time-step for ionic-motion
   TEIN   =    0.0    initial temperature
   TEBEG  =    0.0;   TEEND  =   0.0 temperature during run
   SMASS  =  -3.00    Nose mass-parameter (am)
   estimated Nose-frequenzy (Omega)   =  0.10E-29 period in steps =****** mass=  -0.277E-27a.u.
   SCALEE = 1.0000    scale energy and forces
   NPACO  =    256;   APACO  = 16.0  distance and # of slots for P.C.
   PSTRESS=    0.0 pullay stress

  Mass of Ions in am
   POMASS =  12.01
  Ionic Valenz
   ZVAL   =   4.00
  Atomic Wigner-Seitz radii
   RWIGS  =  -1.00
  virtual crystal weights 
   VCA    =   1.00
   NELECT =      32.0000    total number of electrons
   NUPDOWN=      -1.0000    fix difference up-down

 DOS related values:
   EMIN   =  10.00;   EMAX   =-10.00  energy-range for DOS
   EFERMI =   0.00
   ISMEAR =    -5;   SIGMA  =   0.06  broadening in eV -4-tet -1-fermi 0-gaus

 Electronic relaxation 2 (details)
   IALGO  =     38    algorithm
   LDIAG  =      T    sub-space diagonalisation (order eigenvalues)
   LSUBROT=      F    optimize rotation matrix (better conditioning)
   TURBO    =      0    0=normal 1=particle mesh
   IRESTART =      0    0=no restart 2=restart with 2 vectors
   NREBOOT  =      0    no. of reboots
   NMIN     =      0    reboot dimension
   EREF     =   0.00    reference energy to select bands
   IMIX   =      4    mixing-type and parameters
     AMIX     =   0.40;   BMIX     =  1.00
     AMIX_MAG =   1.60;   BMIX_MAG =  1.00
     AMIN     =   0.10
     WC   =   100.;   INIMIX=   1;  MIXPRE=   1;  MAXMIX= -45

 Intra band minimization:
   WEIMIN = 0.0000     energy-eigenvalue tresh-hold
   EBREAK =  0.10E-07  absolut break condition
   DEPER  =   0.30     relativ break condition  

   TIME   =   0.40     timestep for ELM

  volume/ion in A,a.u.               =       5.27        35.57
  Fermi-wavevector in a.u.,A,eV,Ry     =   1.493252  2.821838 30.338311  2.229803
  Thomas-Fermi vector in A             =   2.605677
 
 Write flags
   LWAVE        =      F    write WAVECAR
   LDOWNSAMPLE  =      F    k-point downsampling of WAVECAR
   LCHARG       =      F    write CHGCAR
   LVTOT        =      F    write LOCPOT, total local potential
   LVHAR        =      F    write LOCPOT, Hartree potential only
   LELF         =      F    write electronic localiz. function (ELF)
   LORBIT       =      0    0 simple, 1 ext, 2 COOP (PROOUT), +10 PAW based schemes


 Dipole corrections
   LMONO  =      F    monopole corrections only (constant potential shift)
   LDIPOL =      F    correct potential (dipole corrections)
   IDIPOL =      0    1-x, 2-y, 3-z, 4-all directions 
   EPSILON=  1.0000000 bulk dielectric constant

 Exchange correlation treatment:
   GGA     =    --    GGA type
   LEXCH   =     8    internal setting for exchange type
   VOSKOWN=      0    Vosko Wilk Nusair interpolation
   LHFCALC =     F    Hartree Fock is set to
   LHFONE  =     F    Hartree Fock one center treatment
   AEXX    =    0.0000 exact exchange contribution

 Linear response parameters
   LEPSILON=     F    determine dielectric tensor
   LRPA    =     F    only Hartree local field effects (RPA)
   LNABLA  =     F    use nabla operator in PAW spheres
   LVEL    =     F    velocity operator in full k-point grid
   LINTERFAST=   F  fast interpolation
   KINTER  =     0    interpolate to denser k-point grid
   CSHIFT  =0.1000    complex shift for real part using Kramers Kronig
   OMEGAMAX=  -1.0    maximum frequency
   DEG_THRESHOLD= 0.2000000E-02 threshold for treating states as degnerate
   RTIME   =   -0.100 relaxation time in fs
  (WPLASMAI=    0.000 imaginary part of plasma frequency in eV, 0.658/RTIME)
   DFIELD  = 0.0000000 0.0000000 0.0000000 field for delta impulse in time
 
 Orbital magnetization related:
   ORBITALMAG=     F  switch on orbital magnetization
   LCHIMAG   =     F  perturbation theory with respect to B field
   DQ        =  0.001000  dq finite difference perturbation B field
   LLRAUG    =     F  two centre corrections for induced B field



--------------------------------------------------------------------------------------------------------


 Static calculation
 charge density and potential will be updated during run
 non-spin polarized calculation
 Variant of blocked Davidson
 Davidson routine will perform the subspace rotation
 perform sub-space diagonalisation
    after iterative eigenvector-optimisation
 modified Broyden-mixing scheme, WC =      100.0
 initial mixing is a Kerker type mixing with AMIX =  0.4000 and BMIX =      1.0000
 Hartree-type preconditioning will be used
 using additional bands            8
 reciprocal scheme for non local part
 calculate Harris-corrections to forces 
   (improved forces if not selfconsistent)
 use gradient corrections 
 use of overlap-Matrix (Vanderbilt PP)
 Fermi weights with tetrahedron method with Bloechl corrections


--------------------------------------------------------------------------------------------------------


  energy-cutoff  :      400.00
  volume of cell :       42.17
      direct lattice vectors                 reciprocal lattice vectors
     3.480633118  0.000000000  0.000000000     0.287304053  0.000000000  0.000000000
     0.000000000  3.480633118  0.000000000     0.000000000  0.287304053  0.000000000
     0.000000000  0.000000000  3.480633118     0.000000000  0.000000000  0.287304053

  length of vectors
     3.480633118  3.480633118  3.480633118     0.287304053  0.287304053  0.287304053


 
 k-points in units of 2pi/SCALE and weight: kpt_density=1000                        
   0.00000000  0.00000000  0.00000000       0.001
   0.02405113  0.00000000  0.00000000       0.003
   0.04810227  0.00000000  0.00000000       0.003
   0.07215340  0.00000000  0.00000000       0.003
   0.09620454  0.00000000  0.00000000       0.003
   0.12025567  0.00000000  0.00000000       0.003
   0.14430681  0.00000000  0.00000000       0.002
   0.02405113  0.02405113  0.00000000       0.007
   0.04810227  0.02405113  0.00000000       0.014
   0.07215340  0.02405113  0.00000000       0.014
   0.09620454  0.02405113  0.00000000       0.014
   0.12025567  0.02405113  0.00000000       0.014
   0.14430681  0.02405113  0.00000000       0.007
   0.04810227  0.04810227  0.00000000       0.007
   0.07215340  0.04810227  0.00000000       0.014
   0.09620454  0.04810227  0.00000000       0.014
   0.12025567  0.04810227  0.00000000       0.014
   0.14430681  0.04810227  0.00000000       0.007
   0.07215340  0.07215340  0.00000000       0.007
   0.09620454  0.07215340  0.00000000       0.014
   0.12025567  0.07215340  0.00000000       0.014
   0.14430681  0.07215340  0.00000000       0.007
   0.09620454  0.09620454  0.00000000       0.007
   0.12025567  0.09620454  0.00000000       0.014
   0.14430681  0.09620454  0.00000000       0.007
   0.12025567  0.12025567  0.00000000       0.007
   0.14430681  0.12025567  0.00000000       0.007
   0.14430681  0.14430681  0.00000000       0.002
   0.02405113  0.02405113  0.02405113       0.005
   0.04810227  0.02405113  0.02405113       0.014
   0.07215340  0.02405113  0.02405113       0.014
   0.09620454  0.02405113  0.02405113       0.014
   0.12025567  0.02405113  0.02405113       0.014
   0.14430681  0.02405113  0.02405113       0.007
   0.04810227  0.04810227  0.02405113       0.014
   0.07215340  0.04810227  0.02405113       0.028
   0.09620454  0.04810227  0.02405113       0.028
   0.12025567  0.04810227  0.02405113       0.028
   0.14430681  0.04810227  0.02405113       0.014
   0.07215340  0.07215340  0.02405113       0.014
   0.09620454  0.07215340  0.02405113       0.028
   0.12025567  0.07215340  0.02405113       0.028
   0.14430681  0.07215340  0.02405113       0.014
   0.09620454  0.09620454  0.02405113       0.014
   0.12025567  0.09620454  0.02405113       0.028
   0.14430681  0.09620454  0.02405113       0.014
   0.12025567  0.12025567  0.02405113       0.014
   0.14430681  0.12025567  0.02405113       0.014
   0.14430681  0.14430681  0.02405113       0.003
   0.04810227  0.04810227  0.04810227       0.005
   0.07215340  0.04810227  0.04810227       0.014
   0.09620454  0.04810227  0.04810227       0.014
   0.12025567  0.04810227  0.04810227       0.014
   0.14430681  0.04810227  0.04810227       0.007
   0.07215340  0.07215340  0.04810227       0.014
   0.09620454  0.07215340  0.04810227       0.028
   0.12025567  0.07215340  0.04810227       0.028
   0.14430681  0.07215340  0.04810227       0.014
   0.09620454  0.09620454  0.04810227       0.014
   0.12025567  0.09620454  0.04810227       0.028
   0.14430681  0.09620454  0.04810227       0.014
   0.12025567  0.12025567  0.04810227       0.014
   0.14430681  0.12025567  0.04810227       0.014
   0.14430681  0.14430681  0.04810227       0.003
   0.07215340  0.07215340  0.07215340       0.005
   0.09620454  0.07215340  0.07215340       0.014
   0.12025567  0.07215340  0.07215340       0.014
   0.14430681  0.07215340  0.07215340       0.007
   0.09620454  0.09620454  0.07215340       0.014
   0.12025567  0.09620454  0.07215340       0.028
   0.14430681  0.09620454  0.07215340       0.014
   0.12025567  0.12025567  0.07215340       0.014
   0.14430681  0.12025567  0.07215340       0.014
   0.14430681  0.14430681  0.07215340       0.003
   0.09620454  0.09620454  0.09620454       0.005
   0.12025567  0.09620454  0.09620454       0.014
   0.14430681  0.09620454  0.09620454       0.007
   0.12025567  0.12025567  0.09620454       0.014
   0.14430681  0.12025567  0.09620454       0.014
   0.14430681  0.14430681  0.09620454       0.003
   0.12025567  0.12025567  0.12025567       0.005
   0.14430681  0.12025567  0.12025567       0.007
   0.14430681  0.14430681  0.12025567       0.003
   0.14430681  0.14430681  0.14430681       0.001
 
 k-points in reciprocal lattice and weights: kpt_density=1000                        
   0.00000000  0.00000000  0.00000000       0.001
   0.08333333  0.00000000  0.00000000       0.003
   0.16666667  0.00000000  0.00000000       0.003
   0.25000000  0.00000000  0.00000000       0.003
   0.33333333  0.00000000  0.00000000       0.003
   0.41666667  0.00000000  0.00000000       0.003
   0.50000000  0.00000000  0.00000000       0.002
   0.08333333  0.08333333  0.00000000       0.007
   0.16666667  0.08333333  0.00000000       0.014
   0.25000000  0.08333333  0.00000000       0.014
   0.33333333  0.08333333  0.00000000       0.014
   0.41666667  0.08333333  0.00000000       0.014
   0.50000000  0.08333333  0.00000000       0.007
   0.16666667  0.16666667  0.00000000       0.007
   0.25000000  0.16666667  0.00000000       0.014
   0.33333333  0.16666667  0.00000000       0.014
   0.41666667  0.16666667  0.00000000       0.014
   0.50000000  0.16666667  0.00000000       0.007
   0.25000000  0.25000000  0.00000000       0.007
   0.33333333  0.25000000  0.00000000       0.014
   0.41666667  0.25000000  0.00000000       0.014
   0.50000000  0.25000000  0.00000000       0.007
   0.33333333  0.33333333  0.00000000       0.007
   0.41666667  0.33333333  0.00000000       0.014
   0.50000000  0.33333333  0.00000000       0.007
   0.41666667  0.41666667  0.00000000       0.007
   0.50000000  0.41666667  0.00000000       0.007
   0.50000000  0.50000000  0.00000000       0.002
   0.08333333  0.08333333  0.08333333       0.005
   0.16666667  0.08333333  0.08333333       0.014
   0.25000000  0.08333333  0.08333333       0.014
   0.33333333  0.08333333  0.08333333       0.014
   0.41666667  0.08333333  0.08333333       0.014
   0.50000000  0.08333333  0.08333333       0.007
   0.16666667  0.16666667  0.08333333       0.014
   0.25000000  0.16666667  0.08333333       0.028
   0.33333333  0.16666667  0.08333333       0.028
   0.41666667  0.16666667  0.08333333       0.028
   0.50000000  0.16666667  0.08333333       0.014
   0.25000000  0.25000000  0.08333333       0.014
   0.33333333  0.25000000  0.08333333       0.028
   0.41666667  0.25000000  0.08333333       0.028
   0.50000000  0.25000000  0.08333333       0.014
   0.33333333  0.33333333  0.08333333       0.014
   0.41666667  0.33333333  0.08333333       0.028
   0.50000000  0.33333333  0.08333333       0.014
   0.41666667  0.41666667  0.08333333       0.014
   0.50000000  0.41666667  0.08333333       0.014
   0.50000000  0.50000000  0.08333333       0.003
   0.16666667  0.16666667  0.16666667       0.005
   0.25000000  0.16666667  0.16666667       0.014
   0.33333333  0.16666667  0.16666667       0.014
   0.41666667  0.16666667  0.16666667       0.014
   0.50000000  0.16666667  0.16666667       0.007
   0.25000000  0.25000000  0.16666667       0.014
   0.33333333  0.25000000  0.16666667       0.028
   0.41666667  0.25000000  0.16666667       0.028
   0.50000000  0.25000000  0.16666667       0.014
   0.33333333  0.33333333  0.16666667       0.014
   0.41666667  0.33333333  0.16666667       0.028
   0.50000000  0.33333333  0.16666667       0.014
   0.41666667  0.41666667  0.16666667       0.014
   0.50000000  0.41666667  0.16666667       0.014
   0.50000000  0.50000000  0.16666667       0.003
   0.25000000  0.25000000  0.25000000       0.005
   0.33333333  0.25000000  0.25000000       0.014
   0.41666667  0.25000000  0.25000000       0.014
   0.50000000  0.25000000  0.25000000       0.007
   0.33333333  0.33333333  0.25000000       0.014
   0.41666667  0.33333333  0.25000000       0.028
   0.50000000  0.33333333  0.25000000       0.014
   0.41666667  0.41666667  0.25000000       0.014
   0.50000000  0.41666667  0.25000000       0.014
   0.50000000  0.50000000  0.25000000       0.003
   0.33333333  0.33333333  0.33333333       0.005
   0.41666667  0.33333333  0.33333333       0.014
   0.50000000  0.33333333  0.33333333       0.007
   0.41666667  0.41666667  0.33333333       0.014
   0.50000000  0.41666667  0.33333333       0.014
   0.50000000  0.50000000  0.33333333       0.003
   0.41666667  0.41666667  0.41666667       0.005
   0.50000000  0.41666667  0.41666667       0.007
   0.50000000  0.50000000  0.41666667       0.003
   0.50000000  0.50000000  0.50000000       0.001
 
 position of ions in fractional coordinates (direct lattice) 
   0.25000000  0.75000000  0.25000000
   0.00000000  0.00000000  0.50000000
   0.25000000  0.25000000  0.75000000
   0.00000000  0.50000000  0.00000000
   0.75000000  0.75000000  0.75000000
   0.50000000  0.00000000  0.00000000
   0.75000000  0.25000000  0.25000000
   0.50000000  0.50000000  0.50000000
 
 position of ions in cartesian coordinates  (Angst):
   0.87015828  2.61047484  0.87015828
   0.00000000  0.00000000  1.74031656
   0.87015828  0.87015828  2.61047484
   0.00000000  1.74031656  0.00000000
   2.61047484  2.61047484  2.61047484
   1.74031656  0.00000000  0.00000000
   2.61047484  0.87015828  0.87015828
   1.74031656  1.74031656  1.74031656
 


--------------------------------------------------------------------------------------------------------


 k-point  1 :   0.0000 0.0000 0.0000  plane waves:     751
 k-point  2 :   0.0833 0.0000 0.0000  plane waves:     751
 k-point  3 :   0.1667 0.0000 0.0000  plane waves:     759
 k-point  4 :   0.2500 0.0000 0.0000  plane waves:     767
 k-point  5 :   0.3333 0.0000 0.0000  plane waves:     784
 k-point  6 :   0.4167 0.0000 0.0000  plane waves:     780
 k-point  7 :   0.5000 0.0000 0.0000  plane waves:     756
 k-point  8 :   0.0833 0.0833 0.0000  plane waves:     756
 k-point  9 :   0.1667 0.0833 0.0000  plane waves:     765
 k-point 10 :   0.2500 0.0833 0.0000  plane waves:     768
 k-point 11 :   0.3333 0.0833 0.0000  plane waves:     772
 k-point 12 :   0.4167 0.0833 0.0000  plane waves:     778
 k-point 13 :   0.5000 0.0833 0.0000  plane waves:     780
 k-point 14 :   0.1667 0.1667 0.0000  plane waves:     770
 k-point 15 :   0.2500 0.1667 0.0000  plane waves:     764
 k-point 16 :   0.3333 0.1667 0.0000  plane waves:     766
 k-point 17 :   0.4167 0.1667 0.0000  plane waves:     773
 k-point 18 :   0.5000 0.1667 0.0000  plane waves:     766
 k-point 19 :   0.2500 0.2500 0.0000  plane waves:     774
 k-point 20 :   0.3333 0.2500 0.0000  plane waves:     766
 k-point 21 :   0.4167 0.2500 0.0000  plane waves:     765
 k-point 22 :   0.5000 0.2500 0.0000  plane waves:     770
 k-point 23 :   0.3333 0.3333 0.0000  plane waves:     748
 k-point 24 :   0.4167 0.3333 0.0000  plane waves:     766
 k-point 25 :   0.5000 0.3333 0.0000  plane waves:     770
 k-point 26 :   0.4167 0.4167 0.0000  plane waves:     766
 k-point 27 :   0.5000 0.4167 0.0000  plane waves:     766
 k-point 28 :   0.5000 0.5000 0.0000  plane waves:     768
 k-point 29 :   0.0833 0.0833 0.0833  plane waves:     763
 k-point 30 :   0.1667 0.0833 0.0833  plane waves:     769
 k-point 31 :   0.2500 0.0833 0.0833  plane waves:     770
 k-point 32 :   0.3333 0.0833 0.0833  plane waves:     771
 k-point 33 :   0.4167 0.0833 0.0833  plane waves:     774
 k-point 34 :   0.5000 0.0833 0.0833  plane waves:     768
 k-point 35 :   0.1667 0.1667 0.0833  plane waves:     762
 k-point 36 :   0.2500 0.1667 0.0833  plane waves:     766
 k-point 37 :   0.3333 0.1667 0.0833  plane waves:     769
 k-point 38 :   0.4167 0.1667 0.0833  plane waves:     769
 k-point 39 :   0.5000 0.1667 0.0833  plane waves:     772
 k-point 40 :   0.2500 0.2500 0.0833  plane waves:     763
 k-point 41 :   0.3333 0.2500 0.0833  plane waves:     766
 k-point 42 :   0.4167 0.2500 0.0833  plane waves:     768
 k-point 43 :   0.5000 0.2500 0.0833  plane waves:     776
 k-point 44 :   0.3333 0.3333 0.0833  plane waves:     762
 k-point 45 :   0.4167 0.3333 0.0833  plane waves:     765
 k-point 46 :   0.5000 0.3333 0.0833  plane waves:     772
 k-point 47 :   0.4167 0.4167 0.0833  plane waves:     767
 k-point 48 :   0.5000 0.4167 0.0833  plane waves:     760
 k-point 49 :   0.5000 0.5000 0.0833  plane waves:     760
 k-point 50 :   0.1667 0.1667 0.1667  plane waves:     772
 k-point 51 :   0.2500 0.1667 0.1667  plane waves:     765
 k-point 52 :   0.3333 0.1667 0.1667  plane waves:     773
 k-point 53 :   0.4167 0.1667 0.1667  plane waves:     765
 k-point 54 :   0.5000 0.1667 0.1667  plane waves:     768
 k-point 55 :   0.2500 0.2500 0.1667  plane waves:     763
 k-point 56 :   0.3333 0.2500 0.1667  plane waves:     766
 k-point 57 :   0.4167 0.2500 0.1667  plane waves:     765
 k-point 58 :   0.5000 0.2500 0.1667  plane waves:     772
 k-point 59 :   0.3333 0.3333 0.1667  plane waves:     756
 k-point 60 :   0.4167 0.3333 0.1667  plane waves:     766
 k-point 61 :   0.5000 0.3333 0.1667  plane waves:     770
 k-point 62 :   0.4167 0.4167 0.1667  plane waves:     767
 k-point 63 :   0.5000 0.4167 0.1667  plane waves:     764
 k-point 64 :   0.5000 0.5000 0.1667  plane waves:     760
 k-point 65 :   0.2500 0.2500 0.2500  plane waves:     769
 k-point 66 :   0.3333 0.2500 0.2500  plane waves:     757
 k-point 67 :   0.4167 0.2500 0.2500  plane waves:     763
 k-point 68 :   0.5000 0.2500 0.2500  plane waves:     764
 k-point 69 :   0.3333 0.3333 0.2500  plane waves:     763
 k-point 70 :   0.4167 0.3333 0.2500  plane waves:     768
 k-point 71 :   0.5000 0.3333 0.2500  plane waves:     764
 k-point 72 :   0.4167 0.4167 0.2500  plane waves:     764
 k-point 73 :   0.5000 0.4167 0.2500  plane waves:     762
 k-point 74 :   0.5000 0.5000 0.2500  plane waves:     756
 k-point 75 :   0.3333 0.3333 0.3333  plane waves:     756
 k-point 76 :   0.4167 0.3333 0.3333  plane waves:     754
 k-point 77 :   0.5000 0.3333 0.3333  plane waves:     760
 k-point 78 :   0.4167 0.4167 0.3333  plane waves:     755
 k-point 79 :   0.5000 0.4167 0.3333  plane waves:     756
 k-point 80 :   0.5000 0.5000 0.3333  plane waves:     752
 k-point 81 :   0.4167 0.4167 0.4167  plane waves:     762
 k-point 82 :   0.5000 0.4167 0.4167  plane waves:     758
 k-point 83 :   0.5000 0.5000 0.4167  plane waves:     748
 k-point 84 :   0.5000 0.5000 0.5000  plane waves:     720

 maximum and minimum number of plane-waves per node :       204      172

 maximum number of plane-waves:       784
 maximum index in each direction: 
   IXMAX=    5   IYMAX=    5   IZMAX=    5
   IXMIN=   -6   IYMIN=   -6   IZMIN=   -6


 parallel 3D FFT for wavefunctions:
    minimum data exchange during FFTs selected (reduces bandwidth)
 parallel 3D FFT for charge:
    minimum data exchange during FFTs selected (reduces bandwidth)


 total amount of memory used by VASP MPI-rank0    33673. kBytes
=======================================================================

   base      :      30000. kBytes
   nonl-proj :       1100. kBytes
   fftplans  :        345. kBytes
   grid      :        481. kBytes
   one-center:          6. kBytes
   wavefun   :       1741. kBytes
 
     INWAV:  cpu time    0.0004: real time    0.0005
 Broyden mixing: mesh for mixing (old mesh)
   NGX = 11   NGY = 11   NGZ = 11
  (NGX  = 48   NGY  = 48   NGZ  = 48)
  gives a total of   1331 points

 initial charge density was supplied:
 charge density of overlapping atoms calculated
 number of electron      32.0000000 magnetization 
 keeping initial charge density in first step


--------------------------------------------------------------------------------------------------------


 Maximum index for augmentation-charges          293 (set IRDMAX)


--------------------------------------------------------------------------------------------------------


 First call to EWALD:  gamma=   0.509
 Maximum number of real-space cells 3x 3x 3
 Maximum number of reciprocal cells 3x 3x 3

    FEWALD:  cpu time    0.0054: real time    0.0054


--------------------------------------- Iteration      1(   1)  ---------------------------------------


    POTLOK:  cpu time    0.0255: real time    0.0657
    SETDIJ:  cpu time    0.0065: real time    0.0065
     EDDAV:  cpu time    3.7364: real time    3.7458
 BZINTS: Fermi energy: 19.855437; 32.000000 electrons
         Band energy: 142.071402;  BLOECHL correction: -0.180130
       DOS:  cpu time    0.1526: real time    0.1526
    --------------------------------------------
      LOOP:  cpu time    3.9210: real time    3.9706

 eigenvalue-minimisations  :  4032
 total energy-change (2. order) : 0.5938005E+02  (-0.1464098E+04)
 number of electron      32.0000000 magnetization 
 augmentation part       32.0000000 magnetization 

 Free energy of the ion-electron system (eV)
  ---------------------------------------------------
  alpha Z        PSCENC =       123.66793929
  Ewald energy   TEWEN  =     -1426.29222096
  -Hartree energ DENC   =       -64.17783267
  -exchange      EXHF   =         0.00000000
  -V(xc)+E(xc)   XCENC  =       116.29681065
  PAW double counting   =       302.65154477     -311.85538214
  entropy T*S    EENTRO =         0.00000000
  eigenvalues    EBANDS =       142.07140194
  atomic energy  EATOM  =      1177.01779097
  Solvation  Ediel_sol  =         0.00000000
  ---------------------------------------------------
  free energy    TOTEN  =        59.38005186 eV

  energy without entropy =       59.38005186  energy(sigma->0) =       59.38005186


--------------------------------------------------------------------------------------------------------




--------------------------------------- Iteration      1(   2)  ---------------------------------------


     EDDAV:  cpu time    4.6767: real time    4.6774
 BZINTS: Fermi energy: 10.258172; 32.000000 electrons
         Band energy:  11.340099;  BLOECHL correction:  0.000000
       DOS:  cpu time    0.0539: real time    0.0539
    --------------------------------------------
      LOOP:  cpu time    4.7306: real time    4.7313

 eigenvalue-minimisations  :  5528
 total energy-change (2. order) :-0.1307313E+03  (-0.1241629E+03)
 number of electron      32.0000000 magnetization 
 augmentation part       32.0000000 magnetization 

 Free energy of the ion-electron system (eV)
  ---------------------------------------------------
  alpha Z        PSCENC =       123.66793929
  Ewald energy   TEWEN  =     -1426.29222096
  -Hartree energ DENC   =       -64.17783267
  -exchange      EXHF   =         0.00000000
  -V(xc)+E(xc)   XCENC  =       116.29681065
  PAW double counting   =       302.65154477     -311.85538214
  entropy T*S    EENTRO =         0.00000000
  eigenvalues    EBANDS =        11.34009911
  atomic energy  EATOM  =      1177.01779097
  Solvation  Ediel_sol  =         0.00000000
  ---------------------------------------------------
  free energy    TOTEN  =       -71.35125097 eV

  energy without entropy =      -71.35125097  energy(sigma->0) =      -71.35125097


--------------------------------------------------------------------------------------------------------




--------------------------------------- Iteration      1(   3)  ---------------------------------------


     EDDAV:  cpu time    4.4781: real time    4.4814
 BZINTS: Fermi energy:  9.306101; 32.000000 electrons
         Band energy:   7.232432;  BLOECHL correction:  0.000000
       DOS:  cpu time    0.0356: real time    0.0356
    --------------------------------------------
      LOOP:  cpu time    4.5137: real time    4.5170

 eigenvalue-minimisations  :  5216
 total energy-change (2. order) :-0.4107667E+01  (-0.4088627E+01)
 number of electron      32.0000000 magnetization 
 augmentation part       32.0000000 magnetization 

 Free energy of the ion-electron system (eV)
  ---------------------------------------------------
  alpha Z        PSCENC =       123.66793929
  Ewald energy   TEWEN  =     -1426.29222096
  -Hartree energ DENC   =       -64.17783267
  -exchange      EXHF   =         0.00000000
  -V(xc)+E(xc)   XCENC  =       116.29681065
  PAW double counting   =       302.65154477     -311.85538214
  entropy T*S    EENTRO =         0.00000000
  eigenvalues    EBANDS =         7.23243248
  atomic energy  EATOM  =      1177.01779097
  Solvation  Ediel_sol  =         0.00000000
  ---------------------------------------------------
  free energy    TOTEN  =       -75.45891760 eV

  energy without entropy =      -75.45891760  energy(sigma->0) =      -75.45891760


--------------------------------------------------------------------------------------------------------




--------------------------------------- Iteration      1(   4)  ---------------------------------------


     EDDAV:  cpu time    4.3878: real time    4.3885
 BZINTS: Fermi energy:  9.362355; 32.000000 electrons
         Band energy:   7.195095;  BLOECHL correction:  0.000000
       DOS:  cpu time    0.0360: real time    0.0360
    --------------------------------------------
      LOOP:  cpu time    4.4238: real time    4.4245

 eigenvalue-minimisations  :  5064
 total energy-change (2. order) :-0.3733780E-01  (-0.3731249E-01)
 number of electron      32.0000000 magnetization 
 augmentation part       32.0000000 magnetization 

 Free energy of the ion-electron system (eV)
  ---------------------------------------------------
  alpha Z        PSCENC =       123.66793929
  Ewald energy   TEWEN  =     -1426.29222096
  -Hartree energ DENC   =       -64.17783267
  -exchange      EXHF   =         0.00000000
  -V(xc)+E(xc)   XCENC  =       116.29681065
  PAW double counting   =       302.65154477     -311.85538214
  entropy T*S    EENTRO =         0.00000000
  eigenvalues    EBANDS =         7.19509468
  atomic energy  EATOM  =      1177.01779097
  Solvation  Ediel_sol  =         0.00000000
  ---------------------------------------------------
  free energy    TOTEN  =       -75.49625540 eV

  energy without entropy =      -75.49625540  energy(sigma->0) =      -75.49625540


--------------------------------------------------------------------------------------------------------




--------------------------------------- Iteration      1(   5)  ---------------------------------------


     EDDAV:  cpu time    4.4703: real time    4.4710
 BZINTS: Fermi energy:  9.312231; 32.000000 electrons
         Band energy:   7.194455;  BLOECHL correction:  0.000000
       DOS:  cpu time    0.0356: real time    0.0356
    CHARGE:  cpu time    0.1249: real time    0.1249
    MIXING:  cpu time    0.0013: real time    0.0013
    --------------------------------------------
      LOOP:  cpu time    4.6321: real time    4.6329

 eigenvalue-minimisations  :  5216
 total energy-change (2. order) :-0.6399446E-03  (-0.6395127E-03)
 number of electron      31.9999972 magnetization 
 augmentation part        0.8499634 magnetization 

 Broyden mixing:
  rms(total) = 0.10383E+01    rms(broyden)= 0.10381E+01
  rms(prec ) = 0.24949E+01
  weight for this iteration     100.00

 Free energy of the ion-electron system (eV)
  ---------------------------------------------------
  alpha Z        PSCENC =       123.66793929
  Ewald energy   TEWEN  =     -1426.29222096
  -Hartree energ DENC   =       -64.17783267
  -exchange      EXHF   =         0.00000000
  -V(xc)+E(xc)   XCENC  =       116.29681065
  PAW double counting   =       302.65154477     -311.85538214
  entropy T*S    EENTRO =         0.00000000
  eigenvalues    EBANDS =         7.19445474
  atomic energy  EATOM  =      1177.01779097
  Solvation  Ediel_sol  =         0.00000000
  ---------------------------------------------------
  free energy    TOTEN  =       -75.49689534 eV

  energy without entropy =      -75.49689534  energy(sigma->0) =      -75.49689534


--------------------------------------------------------------------------------------------------------




--------------------------------------- Iteration      1(   6)  ---------------------------------------


    POTLOK:  cpu time    0.0197: real time    0.0201
    SETDIJ:  cpu time    0.0058: real time    0.0058
     EDDAV:  cpu time    4.0316: real time    4.0319
 BZINTS: Fermi energy: 10.075733; 32.000000 electrons
         Band energy:  24.809255;  BLOECHL correction:  0.000000
       DOS:  cpu time    0.0360: real time    0.0360
    CHARGE:  cpu time    0.1278: real time    0.1278
    MIXING:  cpu time    0.0017: real time    0.0017
    --------------------------------------------
      LOOP:  cpu time    4.2227: real time    4.2234

 eigenvalue-minimisations  :  4536
 total energy-change (2. order) : 0.2356540E+01  (-0.1535693E+00)
 number of electron      31.9999973 magnetization 
 augmentation part        0.8294869 magnetization 

 Broyden mixing:
  rms(total) = 0.56260E+00    rms(broyden)= 0.56259E+00
  rms(prec ) = 0.13371E+01
  weight for this iteration     100.00

 eigenvalues of (default mixing * dielectric matrix)
  average eigenvalue GAMMA=   2.1418
  2.1418

 Free energy of the ion-electron system (eV)
  ---------------------------------------------------
  alpha Z        PSCENC =       123.66793929
  Ewald energy   TEWEN  =     -1426.29222096
  -Hartree energ DENC   =       -80.31143366
  -exchange      EXHF   =         0.00000000
  -V(xc)+E(xc)   XCENC  =       117.81902359
  PAW double counting   =       408.69634194     -418.54705160
  entropy T*S    EENTRO =         0.00000000
  eigenvalues    EBANDS =        24.80925522
  atomic energy  EATOM  =      1177.01779097
  Solvation  Ediel_sol  =         0.00000000
  ---------------------------------------------------
  free energy    TOTEN  =       -73.14035521 eV

  energy without entropy =      -73.14035521  energy(sigma->0) =      -73.14035521


--------------------------------------------------------------------------------------------------------




--------------------------------------- Iteration      1(   7)  ---------------------------------------


    POTLOK:  cpu time    0.0217: real time    0.0225
    SETDIJ:  cpu time    0.0058: real time    0.0058
     EDDAV:  cpu time    4.1344: real time    4.1347
 BZINTS: Fermi energy: 10.907860; 32.000000 electrons
         Band energy:  44.860390;  BLOECHL correction:  0.000000
       DOS:  cpu time    0.0358: real time    0.0358
    CHARGE:  cpu time    0.1167: real time    0.1167
    MIXING:  cpu time    0.0019: real time    0.0019
    --------------------------------------------
      LOOP:  cpu time    4.3163: real time    4.3174

 eigenvalue-minimisations  :  4624
 total energy-change (2. order) : 0.7937063E+00  (-0.1699947E+00)
 number of electron      31.9999973 magnetization 
 augmentation part        0.8073232 magnetization 

 Broyden mixing:
  rms(total) = 0.71526E-01    rms(broyden)= 0.71196E-01
  rms(prec ) = 0.12490E+00
  weight for this iteration     100.00

 eigenvalues of (default mixing * dielectric matrix)
  average eigenvalue GAMMA=   2.2691
  2.0023  2.5358

 Free energy of the ion-electron system (eV)
  ---------------------------------------------------
  alpha Z        PSCENC =       123.66793929
  Ewald energy   TEWEN  =     -1426.29222096
  -Hartree energ DENC   =      -100.91040777
  -exchange      EXHF   =         0.00000000
  -V(xc)+E(xc)   XCENC  =       119.77835676
  PAW double counting   =       554.98299402     -565.45149095
  entropy T*S    EENTRO =         0.00000000
  eigenvalues    EBANDS =        44.86038972
  atomic energy  EATOM  =      1177.01779097
  Solvation  Ediel_sol  =         0.00000000
  ---------------------------------------------------
  free energy    TOTEN  =       -72.34664891 eV

  energy without entropy =      -72.34664891  energy(sigma->0) =      -72.34664891


--------------------------------------------------------------------------------------------------------




--------------------------------------- Iteration      1(   8)  ---------------------------------------


    POTLOK:  cpu time    0.0197: real time    0.0201
    SETDIJ:  cpu time    0.0058: real time    0.0058
     EDDAV:  cpu time    4.3697: real time    4.3701
 BZINTS: Fermi energy: 10.912737; 32.000000 electrons
         Band energy:  45.245212;  BLOECHL correction:  0.000000
       DOS:  cpu time    0.0362: real time    0.0362
    CHARGE:  cpu time    0.1182: real time    0.1182
    MIXING:  cpu time    0.0020: real time    0.0020
    --------------------------------------------
      LOOP:  cpu time    4.5516: real time    4.5523

 eigenvalue-minimisations  :  5024
 total energy-change (2. order) :-0.8285353E-02  (-0.3174381E-02)
 number of electron      31.9999973 magnetization 
 augmentation part        0.8073622 magnetization 

 Broyden mixing:
  rms(total) = 0.85361E-02    rms(broyden)= 0.84257E-02
  rms(prec ) = 0.14939E-01
  weight for this iteration     100.00

 eigenvalues of (default mixing * dielectric matrix)
  average eigenvalue GAMMA=   2.0972
  1.4412  2.6899  2.1607

 Free energy of the ion-electron system (eV)
  ---------------------------------------------------
  alpha Z        PSCENC =       123.66793929
  Ewald energy   TEWEN  =     -1426.29222096
  -Hartree energ DENC   =      -101.49613688
  -exchange      EXHF   =         0.00000000
  -V(xc)+E(xc)   XCENC  =       119.83901190
  PAW double counting   =       568.67704044     -579.01357074
  entropy T*S    EENTRO =         0.00000000
  eigenvalues    EBANDS =        45.24521172
  atomic energy  EATOM  =      1177.01779097
  Solvation  Ediel_sol  =         0.00000000
  ---------------------------------------------------
  free energy    TOTEN  =       -72.35493426 eV

  energy without entropy =      -72.35493426  energy(sigma->0) =      -72.35493426


--------------------------------------------------------------------------------------------------------




--------------------------------------- Iteration      1(   9)  ---------------------------------------


    POTLOK:  cpu time    0.0208: real time    0.0212
    SETDIJ:  cpu time    0.0059: real time    0.0059
     EDDAV:  cpu time    4.3066: real time    4.3069
 BZINTS: Fermi energy: 10.904012; 32.000000 electrons
         Band energy:  45.132478;  BLOECHL correction:  0.000000
       DOS:  cpu time    0.0358: real time    0.0358
    CHARGE:  cpu time    0.1281: real time    0.1281
    MIXING:  cpu time    0.0021: real time    0.0022
    --------------------------------------------
      LOOP:  cpu time    4.4992: real time    4.5000

 eigenvalue-minimisations  :  4888
 total energy-change (2. order) :-0.1977650E-03  (-0.4234759E-04)
 number of electron      31.9999973 magnetization 
 augmentation part        0.8073485 magnetization 

 Broyden mixing:
  rms(total) = 0.29171E-02    rms(broyden)= 0.29086E-02
  rms(prec ) = 0.50874E-02
  weight for this iteration     100.00

 eigenvalues of (default mixing * dielectric matrix)
  average eigenvalue GAMMA=   2.0373
  0.9730  2.7445  2.4359  1.9956

 Free energy of the ion-electron system (eV)
  ---------------------------------------------------
  alpha Z        PSCENC =       123.66793929
  Ewald energy   TEWEN  =     -1426.29222096
  -Hartree energ DENC   =      -101.39026698
  -exchange      EXHF   =         0.00000000
  -V(xc)+E(xc)   XCENC  =       119.82893197
  PAW double counting   =       568.05333398     -578.37311796
  entropy T*S    EENTRO =         0.00000000
  eigenvalues    EBANDS =        45.13247765
  atomic energy  EATOM  =      1177.01779097
  Solvation  Ediel_sol  =         0.00000000
  ---------------------------------------------------
  free energy    TOTEN  =       -72.35513202 eV

  energy without entropy =      -72.35513202  energy(sigma->0) =      -72.35513202


--------------------------------------------------------------------------------------------------------




--------------------------------------- Iteration      1(  10)  ---------------------------------------


    POTLOK:  cpu time    0.0217: real time    0.0220
    SETDIJ:  cpu time    0.0056: real time    0.0056
     EDDAV:  cpu time    4.4210: real time    4.4213
 BZINTS: Fermi energy: 10.901064; 32.000000 electrons
         Band energy:  45.164061;  BLOECHL correction:  0.000000
       DOS:  cpu time    0.0361: real time    0.0361
    CHARGE:  cpu time    0.1153: real time    0.1153
    MIXING:  cpu time    0.0021: real time    0.0021
    --------------------------------------------
      LOOP:  cpu time    4.6019: real time    4.6026

 eigenvalue-minimisations  :  5008
 total energy-change (2. order) :-0.4917921E-04  (-0.3898158E-05)
 number of electron      31.9999973 magnetization 
 augmentation part        0.8073271 magnetization 

 Broyden mixing:
  rms(total) = 0.27533E-03    rms(broyden)= 0.27042E-03
  rms(prec ) = 0.65524E-03
  weight for this iteration     100.00

 eigenvalues of (default mixing * dielectric matrix)
  average eigenvalue GAMMA=   1.9478
  2.9046  2.5548  2.0586  0.9947  1.2262

 Free energy of the ion-electron system (eV)
  ---------------------------------------------------
  alpha Z        PSCENC =       123.66793929
  Ewald energy   TEWEN  =     -1426.29222096
  -Hartree energ DENC   =      -101.42355496
  -exchange      EXHF   =         0.00000000
  -V(xc)+E(xc)   XCENC  =       119.83166334
  PAW double counting   =       567.35161644     -577.67247603
  entropy T*S    EENTRO =         0.00000000
  eigenvalues    EBANDS =        45.16406069
  atomic energy  EATOM  =      1177.01779097
  Solvation  Ediel_sol  =         0.00000000
  ---------------------------------------------------
  free energy    TOTEN  =       -72.35518120 eV

  energy without entropy =      -72.35518120  energy(sigma->0) =      -72.35518120


--------------------------------------------------------------------------------------------------------




--------------------------------------- Iteration      1(  11)  ---------------------------------------


    POTLOK:  cpu time    0.0219: real time    0.0224
    SETDIJ:  cpu time    0.0057: real time    0.0057
     EDDAV:  cpu time    3.6060: real time    3.6063
 BZINTS: Fermi energy: 10.898380; 32.000000 electrons
         Band energy:  45.176215;  BLOECHL correction:  0.000000
       DOS:  cpu time    0.0358: real time    0.0358
    --------------------------------------------
      LOOP:  cpu time    3.6694: real time    3.6702

 eigenvalue-minimisations  :  3640
 total energy-change (2. order) :-0.7141605E-06  (-0.9748267E-07)
 number of electron      31.9999973 magnetization 
 augmentation part        0.8073271 magnetization 

 Free energy of the ion-electron system (eV)
  ---------------------------------------------------
  alpha Z        PSCENC =       123.66793929
  Ewald energy   TEWEN  =     -1426.29222096
  -Hartree energ DENC   =      -101.43627900
  -exchange      EXHF   =         0.00000000
  -V(xc)+E(xc)   XCENC  =       119.83283285
  PAW double counting   =       567.36343078     -577.68489134
  entropy T*S    EENTRO =         0.00000000
  eigenvalues    EBANDS =        45.17621548
  atomic energy  EATOM  =      1177.01779097
  Solvation  Ediel_sol  =         0.00000000
  ---------------------------------------------------
  free energy    TOTEN  =       -72.35518192 eV

  energy without entropy =      -72.35518192  energy(sigma->0) =      -72.35518192


--------------------------------------------------------------------------------------------------------




 average (electrostatic) potential at core
  the test charge radii are     0.6991
  (the norm of the test charge is              1.0000)
       1 -44.2957       2 -44.2957       3 -44.2957       4 -44.2957       5 -44.2957
       6 -44.2957       7 -44.2957       8 -44.2957
 
 
 
 E-fermi :  10.8984     XC(G=0): -13.5933     alpha+bet :-19.0461


 k-point     1 :       0.0000    0.0000    0.0000
  band No.  band energies     occupation 
      1     -11.6400      2.00000
      2      -2.4524      2.00000
      3      -2.4524      2.00000
      4      -2.4524      2.00000
      5      -2.4524      2.00000
      6      -2.4524      2.00000
      7      -2.4524      2.00000
      8       4.0953      2.00000
      9       4.0953      2.00000
     10       4.0953      2.00000
     11       4.0953      2.00000
     12       4.0953      2.00000
     13       4.0953      2.00000
     14      10.8613      2.00000
     15      10.8613      2.00000
     16      10.8613      2.00000
     17      15.7631      0.00000
     18      15.7631      0.00000
     19      15.7631      0.00000
     20      15.7631      0.00000
     21      15.7631      0.00000
     22      15.7631      0.00000
     23      16.6535      0.00000
     24      16.6535      0.00000

 k-point     2 :       0.0833    0.0000    0.0000
  band No.  band energies     occupation 
      1     -11.5726      2.00000
      2      -3.8286      2.00000
      3      -2.4066      2.00000
      4      -2.4066      2.00000
      5      -2.4066      2.00000
      6      -2.4066      2.00000
      7      -1.0122      2.00000
      8       3.9431      2.00000
      9       3.9431      2.00000
     10       3.9431      2.00000
     11       3.9431      2.00000
     12       4.1617      2.00000
     13       4.1617      2.00000
     14      10.5727      2.00000
     15      10.5727      2.00000
     16      10.7041      2.00000
     17      15.4227      0.00000
     18      16.0425      0.00000
     19      16.0425      0.00000
     20      16.0425      0.00000
     21      16.0425      0.00000
     22      16.2550      0.00000
     23      16.6108      0.00000
     24      17.0077      0.00000

 k-point     3 :       0.1667    0.0000    0.0000
  band No.  band energies     occupation 
      1     -11.3706      2.00000
      2      -5.1217      2.00000
      3      -2.2739      2.00000
      4      -2.2739      2.00000
      5      -2.2739      2.00000
      6      -2.2739      2.00000
      7       0.4705      2.00000
      8       3.5358      2.00000
      9       3.5358      2.00000
     10       3.5358      2.00000
     11       3.5358      2.00000
     12       4.3609      2.00000
     13       4.3609      2.00000
     14       9.8662      2.00000
     15       9.8662      2.00000
     16      10.2483      2.00000
     17      15.2238      0.00000
     18      16.4630      0.00000
     19      16.8280      0.00000
     20      16.8280      0.00000
     21      16.8280      0.00000
     22      16.8280      0.00000
     23      16.9208      0.00000
     24      17.8956      0.00000

 k-point     4 :       0.2500    0.0000    0.0000
  band No.  band energies     occupation 
      1     -11.0347      2.00000
      2      -6.3185      2.00000
      3      -2.0709      2.00000
      4      -2.0709      2.00000
      5      -2.0709      2.00000
      6      -2.0709      2.00000
      7       1.9683      2.00000
      8       2.9951      2.00000
      9       2.9951      2.00000
     10       2.9951      2.00000
     11       2.9951      2.00000
     12       4.6892      2.00000
     13       4.6892      2.00000
     14       8.9858      2.00000
     15       8.9858      2.00000
     16       9.5327      2.00000
     17      15.1460      0.00000
     18      16.2449      0.00000
     19      17.7781      0.00000
     20      17.9975      0.00000
     21      17.9975      0.00000
     22      17.9975      0.00000
     23      17.9975      0.00000
     24      19.0749      0.00000

 k-point     5 :       0.3333    0.0000    0.0000
  band No.  band energies     occupation 
      1     -10.5659      2.00000
      2      -7.4083      2.00000
      3      -1.8322      2.00000
      4      -1.8322      2.00000
      5      -1.8322      2.00000
      6      -1.8322      2.00000
      7       2.4492      2.00000
      8       2.4492      2.00000
      9       2.4492      2.00000
     10       2.4492      2.00000
     11       3.4513      2.00000
     12       5.1457      2.00000
     13       5.1457      2.00000
     14       8.0752      2.00000
     15       8.0752      2.00000
     16       8.5932      2.00000
     17      15.1768      0.00000
     18      15.9818      0.00000
     19      18.8409      0.00000
     20      19.4161      0.00000
     21      19.4161      0.00000
     22      19.4161      0.00000
     23      19.4161      0.00000
     24      20.3904      0.00000

 k-point     6 :       0.4167    0.0000    0.0000
  band No.  band energies     occupation 
      1      -9.9660      2.00000
      2      -8.3833      2.00000
      3      -1.6231      2.00000
      4      -1.6231      2.00000
      5      -1.6231      2.00000
      6      -1.6231      2.00000
      7       2.0331      2.00000
      8       2.0331      2.00000
      9       2.0331      2.00000
     10       2.0331      2.00000
     11       4.8869      2.00000
     12       5.7232      2.00000
     13       5.7232      2.00000
     14       7.2069      2.00000
     15       7.2069      2.00000
     16       7.4885      2.00000
     17      15.2955      0.00000
     18      15.7197      0.00000
     19      20.1110      0.00000
     20      20.9038      0.00000
     21      20.9038      0.00000
     22      20.9038      0.00000
     23      20.9038      0.00000
     24      21.7719      0.00000

 k-point     7 :       0.5000    0.0000    0.0000
  band No.  band energies     occupation 
      1      -9.2374      2.00000
      2      -9.2374      2.00000
      3      -1.5360      2.00000
      4      -1.5360      2.00000
      5      -1.5360      2.00000
      6      -1.5360      2.00000
      7       1.8730      2.00000
      8       1.8730      2.00000
      9       1.8730      2.00000
     10       1.8730      2.00000
     11       6.2465      2.00000
     12       6.2465      2.00000
     13       6.4189      2.00000
     14       6.4189      2.00000
     15       6.4189      2.00000
     16       6.4189      2.00000
     17      15.4870      0.00000
     18      15.4870      0.00000
     19      21.5691      0.00000
     20      21.5691      0.00000
     21      21.8196      0.00000
     22      21.8196      0.00000
     23      21.8196      0.00000
     24      21.8196      0.00000

 k-point     8 :       0.0833    0.0833    0.0000
  band No.  band energies     occupation 
      1     -11.5053      2.00000
      2      -3.7748      2.00000
      3      -3.7748      2.00000
      4      -2.3926      2.00000
      5      -2.3329      2.00000
      6      -0.9794      2.00000
      7      -0.9794      2.00000
      8       3.4185      2.00000
      9       3.9967      2.00000
     10       3.9967      2.00000
     11       4.0264      2.00000
     12       4.0264      2.00000
     13       4.2099      2.00000
     14      10.1116      2.00000
     15      10.2965      2.00000
     16      10.7783      2.00000
     17      15.7098      0.00000
     18      15.7098      0.00000
     19      15.8712      0.00000
     20      16.5259      0.00000
     21      16.5259      0.00000
     22      16.7265      0.00000
     23      16.7973      0.00000
     24      17.1092      0.00000

 k-point     9 :       0.1667    0.0833    0.0000
  band No.  band energies     occupation 
      1     -11.3034      2.00000
      2      -5.0635      2.00000
      3      -3.6171      2.00000
      4      -2.3057      2.00000
      5      -2.1683      2.00000
      6      -0.8900      2.00000
      7       0.4797      2.00000
      8       2.7564      2.00000
      9       3.5559      2.00000
     10       3.6725      2.00000
     11       4.1725      2.00000
     12       4.1859      2.00000
     13       4.2528      2.00000
     14       9.3355      2.00000
     15       9.6122      2.00000
     16      10.5002      2.00000
     17      15.5131      0.00000
     18      16.2526      0.00000
     19      16.5107      0.00000
     20      16.7368      0.00000
     21      17.1813      0.00000
     22      17.2898      0.00000
     23      17.8129      0.00000
     24      17.9021      0.00000

 k-point    10 :       0.2500    0.0833    0.0000
  band No.  band energies     occupation 
      1     -10.9677      2.00000
      2      -6.2572      2.00000
      3      -3.3640      2.00000
      4      -2.1797      2.00000
      5      -1.9190      2.00000
      6      -0.7748      2.00000
      7       1.9327      2.00000
      8       2.0885      2.00000
      9       2.9589      2.00000
     10       3.2238      2.00000
     11       3.8832      2.00000
     12       4.5077      2.00000
     13       4.6317      2.00000
     14       8.4353      2.00000
     15       8.7502      2.00000
     16       9.8891      2.00000
     17      15.4393      0.00000
     18      16.5293      0.00000
     19      17.1277      0.00000
     20      17.7027      0.00000
     21      18.0261      0.00000
     22      18.4290      0.00000
     23      19.0632      0.00000
     24      19.1090      0.00000

 k-point    11 :       0.3333    0.0833    0.0000
  band No.  band energies     occupation 
      1     -10.4992      2.00000
      2      -7.3451      2.00000
      3      -3.0344      2.00000
      4      -2.0820      2.00000
      5      -1.6028      2.00000
      6      -0.6948      2.00000
      7       1.5531      2.00000
      8       2.3257      2.00000
      9       2.8318      2.00000
     10       3.3226      2.00000
     11       3.4613      2.00000
     12       4.9568      2.00000
     13       5.1842      2.00000
     14       7.5007      2.00000
     15       7.8538      2.00000
     16       9.0312      2.00000
     17      15.4720      0.00000
     18      16.2747      0.00000
     19      18.3603      0.00000
     20      19.0734      0.00000
     21      19.1574      0.00000
     22      19.7871      0.00000
     23      20.3284      0.00000
     24      20.3799      0.00000

 k-point    12 :       0.4167    0.0833    0.0000
  band No.  band energies     occupation 
      1      -9.8998      2.00000
      2      -8.3187      2.00000
      3      -2.6650      2.00000
      4      -2.1111      2.00000
      5      -1.2546      2.00000
      6      -0.7341      2.00000
      7       1.2914      2.00000
      8       1.7635      2.00000
      9       2.6391      2.00000
     10       3.0323      2.00000
     11       4.5680      2.00000
     12       5.5276      2.00000
     13       5.9541      2.00000
     14       6.5677      2.00000
     15       6.9951      2.00000
     16       8.0163      2.00000
     17      15.5921      0.00000
     18      16.0138      0.00000
     19      19.7830      0.00000
     20      20.3258      0.00000
     21      20.7433      0.00000
     22      21.0499      0.00000
     23      21.6240      0.00000
     24      21.7608      0.00000

 k-point    13 :       0.5000    0.0833    0.0000
  band No.  band energies     occupation 
      1      -9.1719      2.00000
      2      -9.1719      2.00000
      3      -2.3244      2.00000
      4      -2.3244      2.00000
      5      -0.9369      2.00000
      6      -0.9369      2.00000
      7       1.3800      2.00000
      8       1.3800      2.00000
      9       2.7217      2.00000
     10       2.7217      2.00000
     11       5.6216      2.00000
     12       5.6216      2.00000
     13       6.2119      2.00000
     14       6.2119      2.00000
     15       6.9420      2.00000
     16       6.9420      2.00000
     17      15.7794      0.00000
     18      15.7794      0.00000
     19      21.0693      0.00000
     20      21.0693      0.00000
     21      21.7559      0.00000
     22      21.7559      0.00000
     23      22.2029      0.00000
     24      22.2030      0.00000

 k-point    14 :       0.1667    0.1667    0.0000
  band No.  band energies     occupation 
      1     -11.1019      2.00000
      2      -4.8905      2.00000
      3      -4.8905      2.00000
      4      -2.2958      2.00000
      5      -1.9752      2.00000
      6       0.4907      2.00000
      7       0.4907      2.00000
      8       1.9660      2.00000
      9       3.7207      2.00000
     10       3.7207      2.00000
     11       3.9861      2.00000
     12       3.9861      2.00000
     13       4.5486      2.00000
     14       8.4997      2.00000
     15       8.9699      2.00000
     16      10.5178      2.00000
     17      16.1904      0.00000
     18      16.3250      0.00000
     19      16.3250      0.00000
     20      17.2129      0.00000
     21      17.9165      0.00000
     22      17.9165      0.00000
     23      18.1336      0.00000
     24      18.5078      0.00000

 k-point    15 :       0.2500    0.1667    0.0000
  band No.  band energies     occupation 
      1     -10.7668      2.00000
      2      -6.0746      2.00000
      3      -4.6078      2.00000
      4      -2.3117      2.00000
      5      -1.6929      2.00000
      6       0.4514      2.00000
      7       1.3079      2.00000
      8       1.8014      2.00000
      9       3.0871      2.00000
     10       3.6939      2.00000
     11       4.0240      2.00000
     12       4.5150      2.00000
     13       4.6228      2.00000
     14       7.5840      2.00000
     15       8.1448      2.00000
     16      10.1489      2.00000
     17      16.2578      0.00000
     18      16.6714      0.00000
     19      17.2371      0.00000
     20      17.5309      0.00000
     21      18.7252      0.00000
     22      19.0058      0.00000
     23      19.0683      0.00000
     24      19.2372      0.00000

 k-point    16 :       0.3333    0.1667    0.0000
  band No.  band energies     occupation 
      1     -10.2994      2.00000
      2      -7.1561      2.00000
      3      -4.2264      2.00000
      4      -2.4569      2.00000
      5      -1.3293      2.00000
      6       0.2896      2.00000
      7       0.9308      2.00000
      8       2.4018      2.00000
      9       2.9632      2.00000
     10       3.5302      2.00000
     11       4.4449      2.00000
     12       4.4564      2.00000
     13       5.3002      2.00000
     14       6.6540      2.00000
     15       7.2765      2.00000
     16       9.4466      2.00000
     17      16.2917      0.00000
     18      17.0415      0.00000
     19      17.6196      0.00000
     20      18.9994      0.00000
     21      19.7264      0.00000
     22      20.1705      0.00000
     23      20.2524      0.00000
     24      20.3459      0.00000

 k-point    17 :       0.4167    0.1667    0.0000
  band No.  band energies     occupation 
      1      -9.7015      2.00000
      2      -8.1255      2.00000
      3      -3.7660      2.00000
      4      -2.7942      2.00000
      5      -0.9036      2.00000
      6      -0.0267      2.00000
      7       0.9217      2.00000
      8       1.7572      2.00000
      9       3.5763      2.00000
     10       3.9563      2.00000
     11       4.1333      2.00000
     12       5.0108      2.00000
     13       5.7445      2.00000
     14       6.3145      2.00000
     15       6.4399      2.00000
     16       8.5087      2.00000
     17      16.4090      0.00000
     18      16.8073      0.00000
     19      18.8821      0.00000
     20      20.6202      0.00000
     21      20.9157      0.00000
     22      21.0223      0.00000
     23      21.2303      0.00000
     24      21.7333      0.00000

 k-point    18 :       0.5000    0.1667    0.0000
  band No.  band energies     occupation 
      1      -8.9756      2.00000
      2      -8.9756      2.00000
      3      -3.2649      2.00000
      4      -3.2649      2.00000
      5      -0.4497      2.00000
      6      -0.4497      2.00000
      7       1.2341      2.00000
      8       1.2341      2.00000
      9       3.8087      2.00000
     10       3.8087      2.00000
     11       4.8572      2.00000
[...]

 k-point    72 :       0.4167    0.4167    0.2500
  band No.  band energies     occupation 
      1      -7.7549      2.00000
      2      -6.2718      2.00000
      3      -6.2718      2.00000
      4      -5.0375      2.00000
      5      -2.4254      2.00000
      6      -1.2351      2.00000
      7      -1.2351      2.00000
      8       0.1852      2.00000
      9       5.0615      2.00000
     10       5.8712      2.00000
     11       5.8712      2.00000
     12       7.0069      2.00000
     13       7.0135      2.00000
     14       7.2011      2.00000
     15       7.2011      2.00000
     16       8.3610      2.00000
     17      18.6937      0.00000
     18      19.2081      0.00000
     19      19.2081      0.00000
     20      19.6233      0.00000
     21      19.8612      0.00000
     22      20.5321      0.00000
     23      20.5321      0.00000
     24      20.9885      0.00000

 k-point    73 :       0.5000    0.4167    0.2500
  band No.  band energies     occupation 
      1      -7.0639      2.00000
      2      -7.0639      2.00000
      3      -5.6569      2.00000
      4      -5.6569      2.00000
      5      -1.9402      2.00000
      6      -1.9402      2.00000
      7      -0.5891      2.00000
      8      -0.5891      2.00000
      9       5.4854      2.00000
     10       5.4854      2.00000
     11       6.4689      2.00000
     12       6.4689      2.00000
     13       7.2398      2.00000
     14       7.2398      2.00000
     15       7.9195      2.00000
     16       7.9195      2.00000
     17      19.2180      0.00000
     18      19.2180      0.00000
     19      19.4894      0.00000
     20      19.4894      0.00000
     21      20.1284      0.00000
     22      20.1284      0.00000
     23      20.7210      0.00000
     24      20.7210      0.00000

 k-point    74 :       0.5000    0.5000    0.2500
  band No.  band energies     occupation 
      1      -6.3982      2.00000
      2      -6.3982      2.00000
      3      -6.3982      2.00000
      4      -6.3982      2.00000
      5      -1.3410      2.00000
      6      -1.3410      2.00000
      7      -1.3410      2.00000
      8      -1.3410      2.00000
      9       5.9941      2.00000
     10       5.9941      2.00000
     11       5.9941      2.00000
     12       5.9941      2.00000
     13       7.7397      2.00000
     14       7.7397      2.00000
     15       7.7397      2.00000
     16       7.7397      2.00000
     17      19.4265      0.00000
     18      19.4265      0.00000
     19      19.4265      0.00000
     20      19.4265      0.00000
     21      20.4431      0.00000
     22      20.4431      0.00000
     23      20.4431      0.00000
     24      20.4431      0.00000

 k-point    75 :       0.3333    0.3333    0.3333
  band No.  band energies     occupation 
      1      -8.4608      2.00000
      2      -5.5284      2.00000
      3      -5.5284      2.00000
      4      -5.5284      2.00000
      5      -1.8438      2.00000
      6      -1.8438      2.00000
      7      -1.8438      2.00000
      8       0.9708      2.00000
      9       5.5872      2.00000
     10       5.5872      2.00000
     11       5.5872      2.00000
     12       6.5975      2.00000
     13       6.5975      2.00000
     14       6.5975      2.00000
     15       8.3731      2.00000
     16       8.3731      2.00000
     17      18.2286      0.00000
     18      18.2286      0.00000
     19      18.2286      0.00000
     20      19.5038      0.00000
     21      19.5038      0.00000
     22      20.2839      0.00000
     23      22.1255      0.00000
     24      22.1255      0.00000

 k-point    76 :       0.4167    0.3333    0.3333
  band No.  band energies     occupation 
      1      -7.8834      2.00000
      2      -6.3951      2.00000
      3      -5.1509      2.00000
      4      -5.1509      2.00000
      5      -2.5570      2.00000
      6      -2.5570      2.00000
      7      -1.3535      2.00000
      8       0.0779      2.00000
      9       5.8093      2.00000
     10       5.8093      2.00000
     11       6.7554      2.00000
     12       6.8331      2.00000
     13       6.8331      2.00000
     14       6.9956      2.00000
     15       7.9123      2.00000
     16       8.2457      2.00000
     17      18.5966      0.00000
     18      18.7793      0.00000
     19      18.7793      0.00000
     20      19.2612      0.00000
     21      19.9706      0.00000
     22      20.5852      0.00000
     23      21.1686      0.00000
     24      21.1702      0.00000

 k-point    77 :       0.5000    0.3333    0.3333
  band No.  band energies     occupation 
      1      -7.1902      2.00000
      2      -7.1902      2.00000
      3      -4.9608      2.00000
      4      -4.9608      2.00000
      5      -2.8602      2.00000
      6      -2.8602      2.00000
      7      -0.7028      2.00000
      8      -0.7028      2.00000
      9       5.8839      2.00000
     10       5.8839      2.00000
     11       6.9085      2.00000
     12       6.9085      2.00000
     13       7.4427      2.00000
     14       7.4427      2.00000
     15       7.6781      2.00000
     16       7.6781      2.00000
     17      18.9562      0.00000
     18      18.9562      0.00000
     19      19.3049      0.00000
     20      19.3049      0.00000
     21      20.4444      0.00000
     22      20.4444      0.00000
     23      20.5782      0.00000
     24      20.5783      0.00000

 k-point    78 :       0.4167    0.4167    0.3333
  band No.  band energies     occupation 
      1      -7.3181      2.00000
      2      -5.8988      2.00000
      3      -5.8988      2.00000
      4      -5.0780      2.00000
      5      -2.9840      2.00000
      6      -2.1829      2.00000
      7      -2.1829      2.00000
      8      -0.8109      2.00000
      9       6.2383      2.00000
     10       6.7254      2.00000
     11       6.7254      2.00000
     12       7.2273      2.00000
     13       7.3091      2.00000
     14       7.3091      2.00000
     15       7.6996      2.00000
     16       8.1979      2.00000
     17      18.9676      0.00000
     18      19.0965      0.00000
     19      19.0965      0.00000
     20      19.5516      0.00000
     21      19.7751      0.00000
     22      20.5577      0.00000
     23      20.5579      0.00000
     24      20.6670      0.00000

 k-point    79 :       0.5000    0.4167    0.3333
  band No.  band energies     occupation 
      1      -6.6471      2.00000
      2      -6.6471      2.00000
      3      -5.3920      2.00000
      4      -5.3920      2.00000
      5      -2.7953      2.00000
      6      -2.7953      2.00000
      7      -1.5752      2.00000
      8      -1.5752      2.00000
      9       6.5317      2.00000
     10       6.5317      2.00000
     11       7.2898      2.00000
     12       7.2898      2.00000
     13       7.4087      2.00000
     14       7.4087      2.00000
     15       7.8746      2.00000
     16       7.8746      2.00000
     17      19.3739      0.00000
     18      19.3739      0.00000
     19      19.3924      0.00000
     20      19.3924      0.00000
     21      20.0839      0.00000
     22      20.0839      0.00000
     23      20.2793      0.00000
     24      20.2793      0.00000

 k-point    80 :       0.5000    0.5000    0.3333
  band No.  band energies     occupation 
      1      -6.0229      2.00000
      2      -6.0229      2.00000
      3      -6.0229      2.00000
      4      -6.0229      2.00000
      5      -2.2987      2.00000
      6      -2.2987      2.00000
      7      -2.2987      2.00000
      8      -2.2987      2.00000
      9       6.9629      2.00000
     10       6.9629      2.00000
     11       6.9629      2.00000
     12       6.9629      2.00000
     13       7.7980      2.00000
     14       7.7980      2.00000
     15       7.7980      2.00000
     16       7.7980      2.00000
     17      19.5597      0.00000
     18      19.5597      0.00000
     19      19.5597      0.00000
     20      19.5597      0.00000
     21      20.0316      0.00000
     22      20.0316      0.00000
     23      20.0316      0.00000
     24      20.0316      0.00000

 k-point    81 :       0.4167    0.4167    0.4167
  band No.  band energies     occupation 
      1      -6.7728      2.00000
      2      -5.5110      2.00000
      3      -5.5110      2.00000
      4      -5.5110      2.00000
      5      -2.9209      2.00000
      6      -2.9209      2.00000
      7      -2.9209      2.00000
      8      -1.6911      2.00000
      9       7.1932      2.00000
     10       7.1932      2.00000
     11       7.1932      2.00000
     12       7.4801      2.00000
     13       7.4801      2.00000
     14       7.4801      2.00000
     15       7.9879      2.00000
     16       7.9879      2.00000
     17      19.2434      0.00000
     18      19.2434      0.00000
     19      19.2434      0.00000
     20      19.6353      0.00000
     21      19.6353      0.00000
     22      20.3365      0.00000
     23      20.3365      0.00000
     24      20.3384      0.00000

 k-point    82 :       0.5000    0.4167    0.4167
  band No.  band energies     occupation 
      1      -6.1455      2.00000
      2      -6.1455      2.00000
      3      -5.3134      2.00000
      4      -5.3134      2.00000
      5      -3.2354      2.00000
      6      -3.2354      2.00000
      7      -2.4204      2.00000
      8      -2.4204      2.00000
      9       7.2795      2.00000
     10       7.2795      2.00000
     11       7.6168      2.00000
     12       7.6168      2.00000
     13       7.7415      2.00000
     14       7.7415      2.00000
     15       7.8104      2.00000
     16       7.8104      2.00000
     17      19.4747      0.00000
     18      19.4747      0.00000
     19      19.4969      0.00000
     20      19.4969      0.00000
     21      19.8982      0.00000
     22      19.8982      0.00000
     23      19.9839      0.00000
     24      19.9839      0.00000

 k-point    83 :       0.5000    0.5000    0.4167
  band No.  band energies     occupation 
      1      -5.6314      2.00000
      2      -5.6314      2.00000
      3      -5.6314      2.00000
      4      -5.6314      2.00000
      5      -3.0439      2.00000
      6      -3.0439      2.00000
      7      -3.0439      2.00000
      8      -3.0439      2.00000
      9       7.6217      2.00000
     10       7.6217      2.00000
     11       7.6217      2.00000
     12       7.6217      2.00000
     13       7.8425      2.00000
     14       7.8425      2.00000
     15       7.8425      2.00000
     16       7.8425      2.00000
     17      19.6282      0.00000
     18      19.6282      0.00000
     19      19.6282      0.00000
     20      19.6282      0.00000
     21      19.7485      0.00000
     22      19.7485      0.00000
     23      19.7485      0.00000
     24      19.7485      0.00000

 k-point    84 :       0.5000    0.5000    0.5000
  band No.  band energies     occupation 
      1      -5.4313      2.00000
      2      -5.4313      2.00000
      3      -5.4313      2.00000
      4      -5.4313      2.00000
      5      -3.3623      2.00000
      6      -3.3623      2.00000
      7      -3.3623      2.00000
      8      -3.3623      2.00000
      9       7.8596      2.00000
     10       7.8596      2.00000
     11       7.8596      2.00000
     12       7.8596      2.00000
     13       7.8596      2.00000
     14       7.8596      2.00000
     15       7.8596      2.00000
     16       7.8596      2.00000
     17      19.6530      0.00000
     18      19.6530      0.00000
     19      19.6530      0.00000
     20      19.6530      0.00000
     21      19.6530      0.00000
     22      19.6530      0.00000
     23      19.6530      0.00000
     24      19.6531      0.00000


--------------------------------------------------------------------------------------------------------


 soft charge-density along one line, spin component           1
         0         1         2         3         4         5         6         7         8         9
 total charge-density along one line
 
 pseudopotential strength for first ion, spin component:           1
  9.380  -0.007   0.000   0.000   0.000  -0.000  -0.000  -0.000
 -0.007  -0.002  -0.000  -0.000  -0.000  -0.000  -0.000  -0.000
  0.000  -0.000  -3.598  -0.000  -0.000  -0.012  -0.000  -0.000
  0.000  -0.000  -0.000  -3.598   0.000  -0.000  -0.012   0.000
  0.000  -0.000  -0.000   0.000  -3.598  -0.000   0.000  -0.012
 -0.000  -0.000  -0.012  -0.000  -0.000  -0.756  -0.000  -0.000
 -0.000  -0.000  -0.000  -0.012   0.000  -0.000  -0.756   0.000
 -0.000  -0.000  -0.000   0.000  -0.012  -0.000   0.000  -0.756
 total augmentation occupancy for first ion, spin component:           1
  1.435  -1.139   0.000   0.000  -0.000  -0.000  -0.000   0.000
 -1.139   1.204  -0.000   0.000   0.000  -0.000   0.000   0.000
  0.000   0.000   1.144   0.000  -0.000   0.199   0.000  -0.000
 -0.000  -0.000  -0.000   1.144   0.000  -0.000   0.199   0.000
 -0.000   0.000  -0.000  -0.000   1.144   0.000   0.000   0.199
  0.000  -0.000   0.199  -0.000  -0.000   0.041  -0.000   0.000
 -0.000   0.000  -0.000   0.199   0.000  -0.000   0.041   0.000
  0.000  -0.000  -0.000   0.000   0.199  -0.000  -0.000   0.041


------------------------ aborting loop because EDIFF is reached ----------------------------------------


    CHARGE:  cpu time    0.4235: real time    0.4235
    FORLOC:  cpu time    0.0020: real time    0.0020
    FORNL :  cpu time    0.1803: real time    0.1803
    STRESS:  cpu time    0.4287: real time    0.4290
    FORHAR:  cpu time    0.0054: real time    0.0054
    MIXING:  cpu time    0.0019: real time    0.0019
    OFIELD:  cpu time    0.0001: real time    0.0001

  FORCE on cell =-STRESS in cart. coord.  units (eV):
  Direction    XX          YY          ZZ          XY          YZ          ZX
  --------------------------------------------------------------------------------------
  Alpha Z   123.66794   123.66794   123.66794
  Ewald    -475.43155  -475.43155  -475.43155     0.00000    -0.00000     0.00000
  Hartree    33.81149    33.81149    33.81149    -0.00000    -0.00000    -0.00000
  E(xc)    -121.77199  -121.77199  -121.77199     0.00000    -0.00000     0.00000
  Local     -41.58319   -41.58319   -41.58319    -0.00000    -0.00000     0.00000
  n-local   -31.06671   -31.82979   -31.60058     0.62514     0.74329     0.34911
  augment    -3.15104    -3.15104    -3.15104    -0.00000     0.00000    -0.00000
  Kinetic   513.27129   529.95553   532.65984    -4.72679    -6.53235    -3.26640
  Fock        0.00000     0.00000     0.00000     0.00000     0.00000     0.00000
  -------------------------------------------------------------------------------------
  Total       9.33818     9.33818     9.33818    -0.00000     0.00000    -0.00000
  in kB     354.81198   354.81198   354.81198    -0.00000     0.00000    -0.00000
  external pressure =      354.81 kB  Pullay stress =        0.00 kB


 VOLUME and BASIS-vectors are now :
 -----------------------------------------------------------------------------
  energy-cutoff  :      400.00
  volume of cell :       42.17
      direct lattice vectors                 reciprocal lattice vectors
     3.480633118  0.000000000  0.000000000     0.287304053  0.000000000  0.000000000
     0.000000000  3.480633118  0.000000000     0.000000000  0.287304053  0.000000000
     0.000000000  0.000000000  3.480633118     0.000000000  0.000000000  0.287304053

  length of vectors
     3.480633118  3.480633118  3.480633118     0.287304053  0.287304053  0.287304053


 FORCES acting on ions
    electron-ion (+dipol)            ewald-force                    non-local-force                 convergence-correction
 -----------------------------------------------------------------------------------------------
   0.817E-14 -.159E-12 -.248E-14   -.568E-13 -.213E-13 0.711E-14   0.344E-17 -.277E-16 0.114E-16   0.865E-14 -.574E-14 0.248E-14
   0.817E-14 -.182E-14 0.169E-13   -.280E-13 -.143E-13 0.424E-17   0.161E-16 0.182E-16 -.303E-16   -.826E-14 0.334E-14 0.346E-14
   0.817E-14 -.174E-12 0.126E-13   -.284E-13 -.142E-13 0.711E-14   -.140E-16 -.190E-16 0.130E-17   0.912E-14 -.429E-14 0.308E-14
   0.817E-14 0.220E-13 -.736E-14   -.216E-14 -.712E-14 0.276E-15   -.312E-17 0.146E-16 -.129E-16   -.838E-14 0.993E-15 0.381E-14
   0.163E-13 0.197E-12 0.378E-12   0.711E-14 0.711E-14 0.000E+00   -.692E-17 -.158E-16 0.290E-16   -.144E-13 -.644E-14 0.282E-14
   0.163E-13 -.145E-14 -.418E-12   0.283E-13 0.144E-13 -.683E-14   -.676E-17 0.253E-16 -.981E-17   0.777E-14 0.370E-14 0.408E-14
   0.163E-13 -.191E-12 -.930E-14   0.284E-13 0.142E-13 0.000E+00   -.544E-17 -.105E-16 0.117E-16   -.145E-13 -.432E-14 0.244E-14
   0.163E-13 0.375E-12 0.552E-14   0.500E-13 0.214E-13 -.715E-14   0.934E-17 0.772E-17 0.462E-18   0.821E-14 0.930E-15 0.403E-14
 -----------------------------------------------------------------------------------------------
   0.980E-13 0.673E-13 -.234E-13   -.158E-14 0.136E-15 0.517E-15   -.733E-17 -.710E-17 0.734E-18   -.117E-13 -.118E-13 0.262E-13
 
 
 POSITION                                       TOTAL-FORCE (eV/Angst)
 -----------------------------------------------------------------------------------
      0.87016      2.61047      0.87016         0.000000      0.000000      0.000000
      0.00000      0.00000      1.74032         0.000000     -0.000000     -0.000000
      0.87016      0.87016      2.61047        -0.000000      0.000000     -0.000000
      0.00000      1.74032      0.00000        -0.000000      0.000000     -0.000000
      2.61047      2.61047      2.61047        -0.000000      0.000000     -0.000000
      1.74032      0.00000      0.00000        -0.000000     -0.000000     -0.000000
      2.61047      0.87016      0.87016         0.000000     -0.000000     -0.000000
      1.74032      1.74032      1.74032         0.000000     -0.000000      0.000000
 -----------------------------------------------------------------------------------
    total drift:                                0.000000      0.000000      0.000000


--------------------------------------------------------------------------------------------------------



  FREE ENERGIE OF THE ION-ELECTRON SYSTEM (eV)
  ---------------------------------------------------
  free  energy   TOTEN  =       -72.35518192 eV

  energy  without entropy=      -72.35518192  energy(sigma->0) =      -72.35518192
 


--------------------------------------------------------------------------------------------------------


    POTLOK:  cpu time    0.0257: real time    0.0257


--------------------------------------------------------------------------------------------------------


     LOOP+:  cpu time   49.2045: real time   50.3096
    4ORBIT:  cpu time    0.0000: real time    0.0000
 BZINTS: Fermi energy: 10.898380; 32.000000 electrons
         Band energy:  45.176215;  BLOECHL correction:  0.000000

 total amount of memory used by VASP MPI-rank0    33673. kBytes
=======================================================================

   base      :      30000. kBytes
   nonl-proj :       1100. kBytes
   fftplans  :        345. kBytes
   grid      :        481. kBytes
   one-center:          6. kBytes
   wavefun   :       1741. kBytes
 
  
  
 General timing and accounting informations for this job:
 ========================================================
  
                  Total CPU time used (sec):       51.452
                            User time (sec):       49.739
                          System time (sec):        1.713
                         Elapsed time (sec):       53.955
  
                   Maximum memory used (kb):      189604.
                   Average memory used (kb):           0.
  
                          Minor page faults:        36889
                          Major page faults:           36
                 Voluntary context switches:          788
