  64  64   0   0
  0.5762528E+01  0.7179999E-09  0.7179999E-09  0.7179999E-09  0.5000000E-15
  1.000000000000000E-004
  CAR 
 unknown system                          
     22.96377575    -13.41809515  301      9.87388178      1.00000000
    -13.418  0.0000E+00  0.0000E+00
    -13.297  0.0000E+00  0.0000E+00
    -13.176  0.0000E+00  0.0000E+00
    -13.054  0.0000E+00  0.0000E+00
    -12.933  0.0000E+00  0.0000E+00
    -12.812  0.0000E+00  0.0000E+00
    -12.690  0.0000E+00  0.0000E+00
    -12.569  0.0000E+00  0.0000E+00
    -12.448  0.0000E+00  0.0000E+00
    -12.327  0.0000E+00  0.0000E+00
    -12.205  0.0000E+00  0.0000E+00
    -12.084  0.1852E-14  0.2246E-15
    -11.963  0.1110E-06  0.1347E-07
    -11.842  0.2842E-02  0.3447E-03
    -11.720  0.2357E+00  0.2893E-01
    -11.599  0.1222E+01  0.1772E+00
    -11.478  0.1454E+01  0.3535E+00
    -11.356  0.2744E+01  0.6862E+00
    -11.235  0.1661E+01  0.8876E+00
    -11.114  0.3531E+01  0.1316E+01
    -10.993  0.2977E+01  0.1677E+01
    -10.871  0.3378E+01  0.2087E+01
    -10.750  0.2911E+01  0.2440E+01
    -10.629  0.4452E+01  0.2980E+01
    -10.508  0.4737E+01  0.3554E+01
    -10.386  0.3923E+01  0.4030E+01
    -10.265  0.3552E+01  0.4461E+01
    -10.144  0.4601E+01  0.5019E+01
    -10.022  0.6074E+01  0.5755E+01
     -9.901  0.4676E+01  0.6322E+01
     -9.780  0.6005E+01  0.7051E+01
     -9.659  0.3845E+01  0.7517E+01
     -9.537  0.5245E+01  0.8153E+01
     -9.416  0.6147E+01  0.8898E+01
     -9.295  0.7575E+01  0.9817E+01
     -9.174  0.5380E+01  0.1047E+02
     -9.052  0.6079E+01  0.1121E+02
     -8.931  0.7309E+01  0.1209E+02
     -8.810  0.4241E+01  0.1261E+02
     -8.688  0.7090E+01  0.1347E+02
     -8.567  0.8158E+01  0.1446E+02
     -8.446  0.6860E+01  0.1529E+02
     -8.325  0.7354E+01  0.1618E+02
     -8.203  0.8632E+01  0.1723E+02
     -8.082  0.6607E+01  0.1803E+02
     -7.961  0.6830E+01  0.1886E+02
     -7.840  0.6759E+01  0.1968E+02
     -7.718  0.8585E+01  0.2072E+02
     -7.597  0.7663E+01  0.2165E+02
     -7.476  0.1191E+02  0.2309E+02
     -7.354  0.9897E+01  0.2429E+02
     -7.233  0.7091E+01  0.2515E+02
     -7.112  0.6287E+01  0.2591E+02
     -6.991  0.1038E+02  0.2717E+02
     -6.869  0.1120E+02  0.2853E+02
     -6.748  0.8397E+01  0.2955E+02
     -6.627  0.1247E+02  0.3106E+02
     -6.506  0.9128E+01  0.3217E+02
     -6.384  0.1003E+02  0.3338E+02
     -6.263  0.1087E+02  0.3470E+02
     -6.142  0.1099E+02  0.3603E+02
     -6.020  0.1053E+02  0.3731E+02
     -5.899  0.1032E+02  0.3856E+02
     -5.778  0.8041E+01  0.3954E+02
     -5.657  0.1048E+02  0.4081E+02
     -5.535  0.1277E+02  0.4236E+02
     -5.414  0.1442E+02  0.4411E+02
     -5.293  0.1302E+02  0.4568E+02
     -5.172  0.1017E+02  0.4692E+02
     -5.050  0.9146E+01  0.4803E+02
     -4.929  0.9614E+01  0.4919E+02
     -4.808  0.8383E+01  0.5021E+02
     -4.686  0.7969E+01  0.5118E+02
     -4.565  0.7558E+01  0.5209E+02
     -4.444  0.1471E+02  0.5388E+02
     -4.323  0.9784E+01  0.5506E+02
     -4.201  0.5819E+01  0.5577E+02
     -4.080  0.8993E+01  0.5686E+02
     -3.959  0.7227E+01  0.5774E+02
     -3.838  0.7128E+01  0.5860E+02
     -3.716  0.6500E+01  0.5939E+02
     -3.595  0.8721E+01  0.6045E+02
     -3.474  0.6878E+01  0.6128E+02
     -3.352  0.1049E+02  0.6255E+02
     -3.231  0.7610E+01  0.6348E+02
     -3.110  0.6649E+01  0.6428E+02
     -2.989  0.6135E+01  0.6503E+02
     -2.867  0.9307E+01  0.6616E+02
     -2.746  0.1159E+02  0.6756E+02
     -2.625  0.8585E+01  0.6860E+02
     -2.504  0.7150E+01  0.6947E+02
     -2.382  0.1146E+02  0.7086E+02
     -2.261  0.1074E+02  0.7216E+02
     -2.140  0.1080E+02  0.7347E+02
     -2.018  0.1731E+02  0.7557E+02
     -1.897  0.2172E+02  0.7820E+02
     -1.776  0.1505E+02  0.8003E+02
     -1.655  0.1729E+02  0.8213E+02
     -1.533  0.1688E+02  0.8417E+02
     -1.412  0.1137E+02  0.8555E+02
     -1.291  0.1315E+02  0.8715E+02
     -1.170  0.1768E+02  0.8929E+02
     -1.048  0.1469E+02  0.9107E+02
     -0.927  0.1137E+02  0.9245E+02
     -0.806  0.1081E+02  0.9376E+02
     -0.684  0.9238E+01  0.9488E+02
     -0.563  0.9283E+01  0.9601E+02
     -0.442  0.1145E+02  0.9740E+02
     -0.321  0.1008E+02  0.9862E+02
     -0.199  0.1146E+02  0.1000E+03
     -0.078  0.1160E+02  0.1014E+03
      0.043  0.7660E+01  0.1023E+03
      0.164  0.6901E+01  0.1032E+03
      0.286  0.7153E+01  0.1040E+03
      0.407  0.8369E+01  0.1051E+03
      0.528  0.1322E+02  0.1067E+03
      0.650  0.1277E+02  0.1082E+03
      0.771  0.1589E+02  0.1101E+03
      0.892  0.1688E+02  0.1122E+03
      1.013  0.1685E+02  0.1142E+03
      1.135  0.1486E+02  0.1160E+03
      1.256  0.1813E+02  0.1182E+03
      1.377  0.1534E+02  0.1201E+03
      1.498  0.1497E+02  0.1219E+03
      1.620  0.1689E+02  0.1240E+03
      1.741  0.1670E+02  0.1260E+03
      1.862  0.1558E+02  0.1279E+03
      1.984  0.1578E+02  0.1298E+03
      2.105  0.1980E+02  0.1322E+03
      2.226  0.2075E+02  0.1347E+03
      2.347  0.1738E+02  0.1368E+03
      2.469  0.1312E+02  0.1384E+03
      2.590  0.1995E+02  0.1408E+03
      2.711  0.1770E+02  0.1430E+03
      2.832  0.2157E+02  0.1456E+03
      2.954  0.2324E+02  0.1484E+03
      3.075  0.2215E+02  0.1511E+03
      3.196  0.1946E+02  0.1535E+03
      3.318  0.2252E+02  0.1562E+03
      3.439  0.2118E+02  0.1588E+03
      3.560  0.2748E+02  0.1621E+03
      3.681  0.2369E+02  0.1650E+03
      3.803  0.1965E+02  0.1673E+03
      3.924  0.2544E+02  0.1704E+03
      4.045  0.2434E+02  0.1734E+03
      4.166  0.2539E+02  0.1765E+03
      4.288  0.2761E+02  0.1798E+03
      4.409  0.2597E+02  0.1830E+03
      4.530  0.2209E+02  0.1856E+03
      4.652  0.2157E+02  0.1882E+03
      4.773  0.2088E+02  0.1908E+03
      4.894  0.2330E+02  0.1936E+03
      5.015  0.2475E+02  0.1966E+03
      5.137  0.2755E+02  0.1999E+03
      5.258  0.2119E+02  0.2025E+03
      5.379  0.2319E+02  0.2053E+03
      5.500  0.2129E+02  0.2079E+03
      5.622  0.2103E+02  0.2105E+03
      5.743  0.1969E+02  0.2129E+03
      5.864  0.1861E+02  0.2151E+03
      5.986  0.2642E+02  0.2183E+03
      6.107  0.2614E+02  0.2215E+03
      6.228  0.2047E+02  0.2240E+03
      6.349  0.1879E+02  0.2262E+03
      6.471  0.1850E+02  0.2285E+03
      6.592  0.1702E+02  0.2306E+03
      6.713  0.1958E+02  0.2329E+03
      6.834  0.2067E+02  0.2354E+03
      6.956  0.1786E+02  0.2376E+03
      7.077  0.1303E+02  0.2392E+03
      7.198  0.1262E+02  0.2407E+03
      7.320  0.1205E+02  0.2422E+03
      7.441  0.1292E+02  0.2437E+03
      7.562  0.1067E+02  0.2450E+03
      7.683  0.1053E+02  0.2463E+03
      7.805  0.1312E+02  0.2479E+03
      7.926  0.8291E+01  0.2489E+03
      8.047  0.4732E+01  0.2495E+03
      8.168  0.6582E+01  0.2503E+03
      8.290  0.9058E+01  0.2514E+03
      8.411  0.6207E+01  0.2521E+03
      8.532  0.5586E+01  0.2528E+03
      8.654  0.5354E+01  0.2535E+03
      8.775  0.4015E+01  0.2539E+03
      8.896  0.4051E+01  0.2544E+03
      9.017  0.3752E+01  0.2549E+03
      9.139  0.3401E+01  0.2553E+03
      9.260  0.2452E+01  0.2556E+03
      9.381  0.1709E+01  0.2558E+03
      9.502  0.1146E+01  0.2559E+03
      9.624  0.3967E+00  0.2560E+03
      9.745  0.4675E-01  0.2560E+03
      9.866  0.4944E-04  0.2560E+03
      9.988  0.2768E-10  0.2560E+03
     10.109  0.0000E+00  0.2560E+03
     10.230  0.0000E+00  0.2560E+03
     10.351  0.0000E+00  0.2560E+03
     10.473  0.0000E+00  0.2560E+03
     10.594  0.0000E+00  0.2560E+03
     10.715  0.0000E+00  0.2560E+03
     10.836  0.0000E+00  0.2560E+03
     10.958  0.0000E+00  0.2560E+03
     11.079  0.0000E+00  0.2560E+03
     11.200  0.0000E+00  0.2560E+03
     11.322  0.0000E+00  0.2560E+03
     11.443  0.0000E+00  0.2560E+03
     11.564  0.0000E+00  0.2560E+03
     11.685  0.0000E+00  0.2560E+03
     11.807  0.0000E+00  0.2560E+03
     11.928  0.0000E+00  0.2560E+03
     12.049  0.0000E+00  0.2560E+03
     12.170  0.0000E+00  0.2560E+03
     12.292  0.0000E+00  0.2560E+03
     12.413  0.0000E+00  0.2560E+03
     12.534  0.0000E+00  0.2560E+03
     12.656  0.0000E+00  0.2560E+03
     12.777  0.0000E+00  0.2560E+03
     12.898  0.0000E+00  0.2560E+03
     13.019  0.1907E-15  0.2560E+03
     13.141  0.6181E-07  0.2560E+03
     13.262  0.8193E-02  0.2560E+03
     13.383  0.8898E+00  0.2561E+03
     13.504  0.1943E+01  0.2563E+03
     13.626  0.5511E+01  0.2570E+03
     13.747  0.4731E+01  0.2576E+03
     13.868  0.5309E+01  0.2582E+03
     13.990  0.7985E+01  0.2592E+03
     14.111  0.5433E+01  0.2599E+03
     14.232  0.8610E+01  0.2609E+03
     14.353  0.1144E+02  0.2623E+03
     14.475  0.9412E+01  0.2634E+03
     14.596  0.1021E+02  0.2647E+03
     14.717  0.1139E+02  0.2660E+03
     14.838  0.9029E+01  0.2671E+03
     14.960  0.1050E+02  0.2684E+03
     15.081  0.1080E+02  0.2697E+03
     15.202  0.1088E+02  0.2710E+03
     15.324  0.1601E+02  0.2730E+03
     15.445  0.1290E+02  0.2746E+03
     15.566  0.1314E+02  0.2761E+03
     15.687  0.1590E+02  0.2781E+03
     15.809  0.1547E+02  0.2800E+03
     15.930  0.1401E+02  0.2817E+03
     16.051  0.2215E+02  0.2843E+03
     16.172  0.2334E+02  0.2872E+03
     16.294  0.1839E+02  0.2894E+03
     16.415  0.2335E+02  0.2922E+03
     16.536  0.2738E+02  0.2956E+03
     16.658  0.2686E+02  0.2988E+03
     16.779  0.2803E+02  0.3022E+03
     16.900  0.2393E+02  0.3051E+03
     17.021  0.1458E+02  0.3069E+03
     17.143  0.2451E+02  0.3098E+03
     17.264  0.1969E+02  0.3122E+03
     17.385  0.1849E+02  0.3145E+03
     17.506  0.1737E+02  0.3166E+03
     17.628  0.2279E+02  0.3193E+03
     17.749  0.2528E+02  0.3224E+03
     17.870  0.2159E+02  0.3250E+03
     17.992  0.2893E+02  0.3285E+03
     18.113  0.2488E+02  0.3316E+03
     18.234  0.2613E+02  0.3347E+03
     18.355  0.3263E+02  0.3387E+03
     18.477  0.3995E+02  0.3435E+03
     18.598  0.3938E+02  0.3483E+03
     18.719  0.3672E+02  0.3528E+03
     18.840  0.3088E+02  0.3565E+03
     18.962  0.3062E+02  0.3602E+03
     19.083  0.2927E+02  0.3638E+03
     19.204  0.2603E+02  0.3669E+03
     19.326  0.2930E+02  0.3705E+03
     19.447  0.2112E+02  0.3730E+03
     19.568  0.1843E+02  0.3753E+03
     19.689  0.2166E+02  0.3779E+03
     19.811  0.2037E+02  0.3804E+03
     19.932  0.1135E+02  0.3817E+03
     20.053  0.7988E+01  0.3827E+03
     20.174  0.2487E+01  0.3830E+03
     20.296  0.3969E+01  0.3835E+03
     20.417  0.9376E+00  0.3836E+03
     20.538  0.1373E+01  0.3838E+03
     20.660  0.1492E+01  0.3840E+03
     20.781  0.2536E-01  0.3840E+03
     20.902  0.6831E-06  0.3840E+03
     21.023  0.2184E-11  0.3840E+03
     21.145  0.1487E-04  0.3840E+03
     21.266  0.4564E-01  0.3840E+03
     21.387  0.2492E+00  0.3840E+03
     21.509  0.1050E-01  0.3840E+03
     21.630  0.4417E-06  0.3840E+03
     21.751  0.7349E-14  0.3840E+03
     21.872  0.0000E+00  0.3840E+03
     21.994  0.0000E+00  0.3840E+03
     22.115  0.0000E+00  0.3840E+03
     22.236  0.0000E+00  0.3840E+03
     22.357  0.0000E+00  0.3840E+03
     22.479  0.0000E+00  0.3840E+03
     22.600  0.0000E+00  0.3840E+03
     22.721  0.0000E+00  0.3840E+03
     22.843  0.0000E+00  0.3840E+03
     22.964  0.0000E+00  0.3840E+03
