  64   64
1 1
    42.884358580259999    -4.374729536120000    -4.171140804029999
    -4.374729536120000    43.322374407049992    -3.967538859840000
    -4.171140804029999    -3.967538859840000    43.700666377109997
1 2
    -0.164797526050000    -0.005916738710000    -0.005641446590000
    -0.005916738710000    -0.092184184780000     0.001967161580000
    -0.005641446590000     0.001967161580000    -0.092371796600000
1 3
    -0.092956732300000    -0.009513312550000     0.001682620990000
    -0.009513312550000    -0.164024978530000    -0.005732730190000
     0.001682620990000    -0.005732730190000    -0.092371796600000
1 4
    -0.114233858470000     0.030688105000000     0.009585378550000
     0.030688105000000    -0.117306512490000     0.009117670210000
     0.009585378550000     0.009117670210000     0.556206589100000
1 5
    -0.092956732300000     0.001227764420000    -0.009582616020000
     0.001227764420000    -0.093079604830000    -0.009114907680000
    -0.009582616020000    -0.009114907680000    -0.163317170300000
1 6
    -0.114233858470000     0.011035826910000     0.030196855100000
     0.011035826910000     0.555546704760000    -0.022959386830000
     0.030196855100000    -0.022959386830000    -0.116646628150000
1 7
     0.554974500720000    -0.022466335280000    -0.021420777730000
    -0.022466335280000    -0.113661654430000     0.031307031830000
    -0.021420777730000     0.031307031830000    -0.116646628150000
1 8
    -0.054415955610000    -0.007626384450000    -0.007271459400000
    -0.007626384450000    -0.053652416340000    -0.006916654460000
    -0.007271459400000    -0.006916654460000    -0.052992892330000
1 9
     0.124966047300000     0.055811753920000    -0.002953504900000
     0.055811753920000     0.031844403970000    -0.074212485810000
    -0.002953504900000    -0.074212485810000     0.191674540750000
1 10
    -0.098606946920000     0.154459658350000     0.222719973000000
     0.154459658350000    -0.137247174690000    -0.245147632860000
     0.222719973000000    -0.245147632860000    -0.367412886700000
1 11
    -9.342787218269999     2.866496615450000     2.733097284720000
     2.866496615450000   -10.070056751459999    -3.074565090210000
     2.733097284720000    -3.074565090210000    -9.776908478310000
1 12
     0.122177213210000     0.114684751410000     0.109347543450000
     0.114684751410000     0.142586544630000     0.047038919520000
     0.109347543450000     0.047038919520000     0.138101637230000
1 13
    -0.261642098940000     0.214813131700000     0.204816256290000
     0.214813131700000    -0.018173603880000    -0.054800427720000
     0.204816256290000    -0.054800427720000    -0.012948578660000
1 14
     0.032850685550000     0.034633598390000     0.033021842300000
     0.034633598390000     0.036107828530000    -0.024467367880000
     0.033021842300000    -0.024467367880000     0.038440725060000
1 15
     0.124966047300000    -0.000292467850000     0.055889104760000
    -0.000292467850000     0.184252223190000    -0.081478300040000
     0.055889104760000    -0.081478300040000     0.039266721530000
1 16
    -0.098606946920000     0.229822557740000     0.143678704860000
     0.229822557740000    -0.390211926680000    -0.233088108420000
     0.143678704860000    -0.233088108420000    -0.114448134710000
1 17
     1.446162114540000    -0.783106390100000     0.760081903650000
     0.721928842040000    -1.594998342800000     1.732875734660000
    -0.818412364270000     1.823865545600000    -1.764559671670000
1 18
     0.058345834700000    -0.042170741110000     0.023805802000000
     0.021770658160000    -0.084309653070000    -0.083701656250000
    -0.043256535510000    -0.081377647860000    -0.076439805650000
1 19
     1.269830184970000    -0.784982988740000    -0.748451892570000
     0.462508057440000    -1.390593223040000    -1.350928336860000
     0.440984105220000    -1.350928336860000    -1.261787138930000
1 20
     0.041346666400000    -0.056161153910000    -0.053547560310000
     0.028005448150000    -0.080473579890000     0.065480128480000
     0.026702254650000     0.065480128480000    -0.086716897690000
1 21
     1.269830184970000     0.462508057440000     0.440984105220000
    -0.784982988740000    -1.390593223040000    -1.350928336860000
    -0.748451892570000    -1.350928336860000    -1.261787138930000
1 22
     0.041346666400000     0.028005448150000     0.026702254650000
    -0.056161153910000    -0.080473579890000     0.065480128480000
    -0.053547560310000     0.065480128480000    -0.086716897690000
1 23
     1.446162114540000     0.721928842040000    -0.818412364270000
    -0.783106390100000    -1.594998342800000     1.823865545600000
     0.760081903650000     1.732875734660000    -1.764559671670000
1 24
     0.058345834700000     0.021770658160000    -0.043256535510000
    -0.042170741110000    -0.084309653070000    -0.081377647860000
     0.023805802000000    -0.083701656250000    -0.076439805650000
1 25
    -6.556067304490000     0.509417858710000     0.485710787130000
     0.509417858710000    -6.607072136099999     0.462002034010000
     0.485710787130000     0.462002034010000    -6.651122598709999
1 26
     0.059705119570000    -0.118461970690000    -0.112949041800000
    -0.118461970690000     0.154026181360000     0.040287055980000
    -0.112949041800000     0.040287055980000     0.150184943450000
1 27
     0.141959089990000    -0.122579821930000     0.034589157690000
    -0.122579821930000     0.071772210940000    -0.114822157250000
     0.034589157690000    -0.114822157250000     0.150184943450000
1 28
    -0.081678643520000    -0.062452996150000    -0.177956297210000
    -0.062452996150000    -0.075425596810000    -0.169270302340000
    -0.177956297210000    -0.169270302340000    -0.320637728740000
1 29
     0.141959089990000     0.028712775940000    -0.124087802980000
     0.028712775940000     0.139084137030000    -0.118031136120000
    -0.124087802980000    -0.118031136120000     0.082873017360000
1 30
    -0.081678643520000    -0.180728436010000    -0.053908010420000
    -0.180728436010000    -0.336184406810000    -0.156839037450000
    -0.053908010420000    -0.156839037450000    -0.059878918740000
1 31
    -0.353598314940000    -0.167115408830000    -0.159338286330000
    -0.167115408830000    -0.064264735390000    -0.045998646810000
    -0.159338286330000    -0.045998646810000    -0.059878918740000
1 32
     0.021656673770000    -0.031732941890000    -0.030256189440000
    -0.031732941890000     0.024833943600000    -0.028779436990000
    -0.030256189440000    -0.028779436990000     0.027577976660000
1 33
    -1.400045279490000     0.596168267090000    -1.386660941750000
    -0.651322538870000     1.279282601750000    -0.679969734750000
    -1.327189316020000     0.507978460470000    -1.261787138930000
1 34
    -1.590451338530000     0.873949666840000     1.768712715140000
    -0.631085805520000     1.441614149390000     0.672487362190000
     1.780664260690000    -0.908582064130000    -1.764559671670000
1 35
    -0.081575108700000     0.034159284000000     0.062720841450000
    -0.050007318060000     0.042448075100000    -0.056754617420000
     0.066733356220000     0.023394785580000    -0.086716897690000
1 36
    -0.084971699390000     0.028945549120000    -0.082406630230000
    -0.034995850150000     0.059007881020000     0.027961127560000
    -0.083438735460000    -0.039133519540000    -0.076439805650000
1 37
    -1.590451338530000    -0.631085805520000     1.780664260690000
     0.873949666840000     1.441614149390000    -0.908582064130000
     1.768712715140000     0.672487362190000    -1.764559671670000
1 38
    -1.400045279490000    -0.651322538870000    -1.327189316020000
     0.596168267090000     1.279282601750000     0.507978460470000
    -1.386660941750000    -0.679969734750000    -1.261787138930000
1 39
    -0.084971699390000    -0.034995850150000    -0.083438735460000
     0.028945549120000     0.059007881020000    -0.039133519540000
    -0.082406630230000     0.027961127560000    -0.076439805650000
1 40
    -0.081575108700000    -0.050007318060000     0.066733356220000
     0.034159284000000     0.042448075100000     0.023394785580000
     0.062720841450000    -0.056754617420000    -0.086716897690000
1 41
     0.184074820720000    -0.078647547560000     0.000494132540000
    -0.078647547560000     0.045159077910000     0.063706223890000
     0.000494132540000     0.063706223890000     0.119251093390000
1 42
     0.002672087170000    -0.034841508800000     0.203470784070000
    -0.034841508800000     0.006160682120000     0.193539248500000
     0.203470784070000     0.193539248500000    -0.301597050770000
1 43
    -9.781947693359999    -2.793187957390000     3.024921825559999
    -2.793187957390000    -9.502278284519999     2.877273124870000
     3.024921825559999     2.877273124870000    -9.905524308180000
1 44
     0.037651362140000    -0.071317234260000     0.063651213510000
    -0.071317234260000     0.191582416380000    -0.002691785210000
     0.063651213510000    -0.002691785210000     0.119251093390000
1 45
    -0.366529357540000    -0.213773939980000     0.253702827940000
    -0.213773939980000    -0.099706193640000     0.154076747670000
     0.253702827940000     0.154076747670000    -0.137031337020000
1 46
     0.039558708940000    -0.021126628340000     0.035343928930000
    -0.021126628340000     0.041674086260000     0.033618789000000
     0.035343928930000     0.033618789000000     0.026166564050000
1 47
     0.153989667920000     0.057773270330000     0.110466247990000
     0.057773270330000     0.148205170320000     0.105074389980000
     0.110466247990000     0.105074389980000     0.100670676940000
1 48
    -0.121723918070000    -0.226029604050000     0.166569148550000
    -0.226029604050000    -0.344511633110000     0.245681641920000
     0.166569148550000     0.245681641920000    -0.137031337020000
1 49
    -1.590451338530000     1.748592368380000    -0.715163526180000
     1.808322831160000    -1.768519217930000     0.825524557810000
     0.788733783820000    -0.755544748400000     1.445573815760000
1 50
    -1.400045279490000    -1.356699021810000    -0.587384142350000
    -1.356698781590000    -1.264205794000000    -0.558713525020000
     0.661523481170000     0.629234670200000     1.281701376930000
1 51
    -1.400045279490000    -1.356698781590000     0.661523481170000
    -1.356699021810000    -1.264205794000000     0.629234670200000
    -0.587384142350000    -0.558713525020000     1.281701376930000
1 52
    -1.590451338530000     1.808322831160000     0.788733783820000
     1.748592368380000    -1.768519217930000    -0.755544748400000
    -0.715163526180000     0.825524557810000     1.445573815760000
1 53
    -0.084971699390000    -0.085010494920000    -0.030982975050000
    -0.080934802290000    -0.076664051020000     0.034429051060000
     0.032836872900000    -0.032665596040000     0.059232246500000
1 54
    -0.081575108700000     0.064276265950000    -0.053128376410000
     0.064276265950000    -0.088010722610000    -0.050535201510000
     0.031133833210000     0.029614201490000     0.043742020130000
1 55
    -0.081575108700000     0.064276265950000     0.031133833210000
     0.064276265950000    -0.088010722610000     0.029614201490000
    -0.053128376410000    -0.050535201510000     0.043742020130000
1 56
    -0.084971699390000    -0.080934802290000     0.032836872900000
    -0.085010494920000    -0.076664051020000    -0.032665596040000
    -0.030982975050000     0.034429051060000     0.059232246500000
1 57
    -9.781947693359999     2.888481069410000    -2.934063294850000
     2.888481069410000    -9.630894114389999     2.883404620260000
    -2.934063294850000     2.883404620260000    -9.776908478310000
1 58
     0.037651362140000     0.060182917150000    -0.074267376080000
     0.060182917150000     0.119159089130000     0.000760896850000
    -0.074267376080000     0.000760896850000     0.191674540750000
1 59
     0.153989667920000     0.113092092810000     0.052447352710000
     0.113092092810000     0.110774210030000     0.106858864250000
     0.052447352710000     0.106858864250000     0.138101637230000
1 60
    -0.121723918070000     0.155616798090000    -0.233704993380000
     0.155616798090000    -0.114129963320000     0.234698663410000
    -0.233704993380000     0.234698663410000    -0.367412886700000
1 61
     0.184074820720000    -0.003251617920000    -0.078581847390000
    -0.003251617920000     0.125143449770000     0.059893091720000
    -0.078581847390000     0.059893091720000     0.039266721530000
1 62
     0.002672087170000     0.201580853220000    -0.044491146200000
     0.201580853220000    -0.282487789990000     0.207300131090000
    -0.044491146200000     0.207300131090000    -0.012948578660000
1 63
    -0.366529357540000     0.243235361550000    -0.225612582130000
     0.243235361550000    -0.122289275840000     0.155153293600000
    -0.225612582130000     0.155153293600000    -0.114448134710000
1 64
     0.039558708940000     0.034297770830000    -0.022785707770000
     0.034297770830000     0.029399805140000     0.034203964920000
    -0.022785707770000     0.034203964920000     0.038440725060000
2 1
    -0.164797526050000    -0.005916738710000    -0.005641446590000
    -0.005916738710000    -0.092184184780000     0.001967161580000
    -0.005641446590000     0.001967161580000    -0.092371796600000
2 2
    42.884358580259999    -4.374729536120000    -4.171140804029999
    -4.374729536120000    43.322374407049992    -3.967538859840000
    -4.171140804029999    -3.967538859840000    43.700666377109997
2 3
    -0.114233858470000     0.030688105000000     0.009585378550000
     0.030688105000000    -0.117306512490000     0.009117670210000
     0.009585378550000     0.009117670210000     0.556206589100000
2 4
    -0.092956732300000    -0.009513312550000     0.001682620990000
    -0.009513312550000    -0.164024978530000    -0.005732730190000
     0.001682620990000    -0.005732730190000    -0.092371796600000
2 5
    -0.114233858470000     0.011035826910000     0.030196855100000
     0.011035826910000     0.555546704760000    -0.022959386830000
     0.030196855100000    -0.022959386830000    -0.116646628150000
2 6
    -0.092956732300000     0.001227764420000    -0.009582616020000
     0.001227764420000    -0.093079604830000    -0.009114907680000
    -0.009582616020000    -0.009114907680000    -0.163317170300000
2 7
    -0.054415955610000    -0.007626384450000    -0.007271459400000
    -0.007626384450000    -0.053652416340000    -0.006916654460000
    -0.007271459400000    -0.006916654460000    -0.052992892330000
2 8
     0.554974500720000    -0.022466335280000    -0.021420777730000
    -0.022466335280000    -0.113661654430000     0.031307031830000
    -0.021420777730000     0.031307031830000    -0.116646628150000
2 9
    -0.098606946920000     0.154459658350000     0.222719973000000
     0.154459658350000    -0.137247174690000    -0.245147632860000
     0.222719973000000    -0.245147632860000    -0.367412886700000
2 10
     0.124966047300000     0.055811753920000    -0.002953504900000
     0.055811753920000     0.031844403970000    -0.074212485810000
    -0.002953504900000    -0.074212485810000     0.191674540750000
2 11
     0.122177213210000     0.114684751410000     0.109347543450000
     0.114684751410000     0.142586544630000     0.047038919520000
     0.109347543450000     0.047038919520000     0.138101637230000
2 12
    -9.342787218269999     2.866496615450000     2.733097284720000
     2.866496615450000   -10.070056751459999    -3.074565090210000
     2.733097284720000    -3.074565090210000    -9.776908478310000
2 13
     0.032850685550000     0.034633598390000     0.033021842300000
     0.034633598390000     0.036107828530000    -0.024467367880000
     0.033021842300000    -0.024467367880000     0.038440725060000
2 14
    -0.261642098940000     0.214813131700000     0.204816256290000
     0.214813131700000    -0.018173603880000    -0.054800427720000
     0.204816256290000    -0.054800427720000    -0.012948578660000
2 15
    -0.098606946920000     0.229822557740000     0.143678704860000
     0.229822557740000    -0.390211926680000    -0.233088108420000
     0.143678704860000    -0.233088108420000    -0.114448134710000
2 16
     0.124966047300000    -0.000292467850000     0.055889104760000
    -0.000292467850000     0.184252223190000    -0.081478300040000
     0.055889104760000    -0.081478300040000     0.039266721530000
2 17
     0.058345834700000    -0.042170741110000     0.023805802000000
     0.021770658160000    -0.084309653070000    -0.083701656250000
    -0.043256535510000    -0.081377647860000    -0.076439805650000
2 18
     1.446162114540000    -0.783106390100000     0.760081903650000
     0.721928842040000    -1.594998342800000     1.732875734660000
    -0.818412364270000     1.823865545600000    -1.764559671670000
2 19
     0.041346666400000    -0.056161153910000    -0.053547560310000
     0.028005448150000    -0.080473579890000     0.065480128480000
     0.026702254650000     0.065480128480000    -0.086716897690000
2 20
     1.269830184970000    -0.784982988740000    -0.748451892570000
     0.462508057440000    -1.390593223040000    -1.350928336860000
     0.440984105220000    -1.350928336860000    -1.261787138930000
2 21
     0.041346666400000     0.028005448150000     0.026702254650000
    -0.056161153910000    -0.080473579890000     0.065480128480000
    -0.053547560310000     0.065480128480000    -0.086716897690000
2 22
     1.269830184970000     0.462508057440000     0.440984105220000
    -0.784982988740000    -1.390593223040000    -1.350928336860000
    -0.748451892570000    -1.350928336860000    -1.261787138930000
2 23
     0.058345834700000     0.021770658160000    -0.043256535510000
    -0.042170741110000    -0.084309653070000    -0.081377647860000
     0.023805802000000    -0.083701656250000    -0.076439805650000
2 24
     1.446162114540000     0.721928842040000    -0.818412364270000
    -0.783106390100000    -1.594998342800000     1.823865545600000
     0.760081903650000     1.732875734660000    -1.764559671670000
2 25
     0.059705119570000    -0.118461970690000    -0.112949041800000
    -0.118461970690000     0.154026181360000     0.040287055980000
    -0.112949041800000     0.040287055980000     0.150184943450000
2 26
    -6.556067304490000     0.509417858710000     0.485710787130000
     0.509417858710000    -6.607072136099999     0.462002034010000
     0.485710787130000     0.462002034010000    -6.651122598709999
2 27
    -0.081678643520000    -0.062452996150000    -0.177956297210000
    -0.062452996150000    -0.075425596810000    -0.169270302340000
    -0.177956297210000    -0.169270302340000    -0.320637728740000
2 28
     0.141959089990000    -0.122579821930000     0.034589157690000
    -0.122579821930000     0.071772210940000    -0.114822157250000
     0.034589157690000    -0.114822157250000     0.150184943450000
2 29
    -0.081678643520000    -0.180728436010000    -0.053908010420000
    -0.180728436010000    -0.336184406810000    -0.156839037450000
    -0.053908010420000    -0.156839037450000    -0.059878918740000
2 30
     0.141959089990000     0.028712775940000    -0.124087802980000
     0.028712775940000     0.139084137030000    -0.118031136120000
    -0.124087802980000    -0.118031136120000     0.082873017360000
2 31
     0.021656673770000    -0.031732941890000    -0.030256189440000
    -0.031732941890000     0.024833943600000    -0.028779436990000
    -0.030256189440000    -0.028779436990000     0.027577976660000
2 32
    -0.353598314940000    -0.167115408830000    -0.159338286330000
    -0.167115408830000    -0.064264735390000    -0.045998646810000
    -0.159338286330000    -0.045998646810000    -0.059878918740000
2 33
    -1.590451338530000     0.873949666840000     1.768712715140000
    -0.631085805520000     1.441614149390000     0.672487362190000
     1.780664260690000    -0.908582064130000    -1.764559671670000
2 34
    -1.400045279490000     0.596168267090000    -1.386660941750000
    -0.651322538870000     1.279282601750000    -0.679969734750000
    -1.327189316020000     0.507978460470000    -1.261787138930000
2 35
    -0.084971699390000     0.028945549120000    -0.082406630230000
    -0.034995850150000     0.059007881020000     0.027961127560000
    -0.083438735460000    -0.039133519540000    -0.076439805650000
2 36
    -0.081575108700000     0.034159284000000     0.062720841450000
    -0.050007318060000     0.042448075100000    -0.056754617420000
     0.066733356220000     0.023394785580000    -0.086716897690000
2 37
    -1.400045279490000    -0.651322538870000    -1.327189316020000
     0.596168267090000     1.279282601750000     0.507978460470000
    -1.386660941750000    -0.679969734750000    -1.261787138930000
2 38
    -1.590451338530000    -0.631085805520000     1.780664260690000
     0.873949666840000     1.441614149390000    -0.908582064130000
     1.768712715140000     0.672487362190000    -1.764559671670000
2 39
    -0.081575108700000    -0.050007318060000     0.066733356220000
     0.034159284000000     0.042448075100000     0.023394785580000
     0.062720841450000    -0.056754617420000    -0.086716897690000
2 40
    -0.084971699390000    -0.034995850150000    -0.083438735460000
     0.028945549120000     0.059007881020000    -0.039133519540000
    -0.082406630230000     0.027961127560000    -0.076439805650000
2 41
     0.002672087170000    -0.034841508800000     0.203470784070000
    -0.034841508800000     0.006160682120000     0.193539248500000
     0.203470784070000     0.193539248500000    -0.301597050770000
2 42
     0.184074820720000    -0.078647547560000     0.000494132540000
    -0.078647547560000     0.045159077910000     0.063706223890000
     0.000494132540000     0.063706223890000     0.119251093390000
2 43
     0.037651362140000    -0.071317234260000     0.063651213510000
    -0.071317234260000     0.191582416380000    -0.002691785210000
     0.063651213510000    -0.002691785210000     0.119251093390000
2 44
    -9.781947693359999    -2.793187957390000     3.024921825559999
    -2.793187957390000    -9.502278284519999     2.877273124870000
     3.024921825559999     2.877273124870000    -9.905524308180000
2 45
     0.039558708940000    -0.021126628340000     0.035343928930000
    -0.021126628340000     0.041674086260000     0.033618789000000
     0.035343928930000     0.033618789000000     0.026166564050000
2 46
    -0.366529357540000    -0.213773939980000     0.253702827940000
    -0.213773939980000    -0.099706193640000     0.154076747670000
     0.253702827940000     0.154076747670000    -0.137031337020000
2 47
    -0.121723918070000    -0.226029604050000     0.166569148550000
    -0.226029604050000    -0.344511633110000     0.245681641920000
     0.166569148550000     0.245681641920000    -0.137031337020000
2 48
     0.153989667920000     0.057773270330000     0.110466247990000
     0.057773270330000     0.148205170320000     0.105074389980000
     0.110466247990000     0.105074389980000     0.100670676940000
2 49
    -1.400045279490000    -1.356699021810000    -0.587384142350000
    -1.356698781590000    -1.264205794000000    -0.558713525020000
     0.661523481170000     0.629234670200000     1.281701376930000
2 50
    -1.590451338530000     1.748592368380000    -0.715163526180000
     1.808322831160000    -1.768519217930000     0.825524557810000
     0.788733783820000    -0.755544748400000     1.445573815760000
2 51
    -1.590451338530000     1.808322831160000     0.788733783820000
     1.748592368380000    -1.768519217930000    -0.755544748400000
    -0.715163526180000     0.825524557810000     1.445573815760000
2 52
    -1.400045279490000    -1.356698781590000     0.661523481170000
    -1.356699021810000    -1.264205794000000     0.629234670200000
    -0.587384142350000    -0.558713525020000     1.281701376930000
2 53
    -0.081575108700000     0.064276265950000    -0.053128376410000
     0.064276265950000    -0.088010722610000    -0.050535201510000
     0.031133833210000     0.029614201490000     0.043742020130000
2 54
    -0.084971699390000    -0.085010494920000    -0.030982975050000
    -0.080934802290000    -0.076664051020000     0.034429051060000
     0.032836872900000    -0.032665596040000     0.059232246500000
2 55
    -0.084971699390000    -0.080934802290000     0.032836872900000
    -0.085010494920000    -0.076664051020000    -0.032665596040000
    -0.030982975050000     0.034429051060000     0.059232246500000
2 56
    -0.081575108700000     0.064276265950000     0.031133833210000
     0.064276265950000    -0.088010722610000     0.029614201490000
    -0.053128376410000    -0.050535201510000     0.043742020130000
2 57
     0.037651362140000     0.060182917150000    -0.074267376080000
     0.060182917150000     0.119159089130000     0.000760896850000
    -0.074267376080000     0.000760896850000     0.191674540750000
2 58
    -9.781947693359999     2.888481069410000    -2.934063294850000
     2.888481069410000    -9.630894114389999     2.883404620260000
    -2.934063294850000     2.883404620260000    -9.776908478310000
2 59
    -0.121723918070000     0.155616798090000    -0.233704993380000
     0.155616798090000    -0.114129963320000     0.234698663410000
    -0.233704993380000     0.234698663410000    -0.367412886700000
2 60
     0.153989667920000     0.113092092810000     0.052447352710000
     0.113092092810000     0.110774210030000     0.106858864250000
     0.052447352710000     0.106858864250000     0.138101637230000
2 61
     0.002672087170000     0.201580853220000    -0.044491146200000
     0.201580853220000    -0.282487789990000     0.207300131090000
    -0.044491146200000     0.207300131090000    -0.012948578660000
2 62
     0.184074820720000    -0.003251617920000    -0.078581847390000
    -0.003251617920000     0.125143449770000     0.059893091720000
    -0.078581847390000     0.059893091720000     0.039266721530000
2 63
     0.039558708940000     0.034297770830000    -0.022785707770000
     0.034297770830000     0.029399805140000     0.034203964920000
    -0.022785707770000     0.034203964920000     0.038440725060000
2 64
    -0.366529357540000     0.243235361550000    -0.225612582130000
     0.243235361550000    -0.122289275840000     0.155153293600000
    -0.225612582130000     0.155153293600000    -0.114448134710000
3 1
    -0.092956732300000    -0.009513312550000     0.001682620990000
    -0.009513312550000    -0.164024978530000    -0.005732730190000
     0.001682620990000    -0.005732730190000    -0.092371796600000
3 2
    -0.114233858470000     0.030688105000000     0.009585378550000
     0.030688105000000    -0.117306512490000     0.009117670210000
     0.009585378550000     0.009117670210000     0.556206589100000
3 3
    42.884358580259999    -4.374729536120000    -4.171140804029999
    -4.374729536120000    43.322374407049992    -3.967538859840000
    -4.171140804029999    -3.967538859840000    43.700666377109997
3 4
    -0.164797526050000    -0.005916738710000    -0.005641446590000
    -0.005916738710000    -0.092184184780000     0.001967161580000
    -0.005641446590000     0.001967161580000    -0.092371796600000
3 5
     0.554974500720000    -0.022466335280000    -0.021420777730000
    -0.022466335280000    -0.113661654430000     0.031307031830000
    -0.021420777730000     0.031307031830000    -0.116646628150000
3 6
    -0.054415955610000    -0.007626384450000    -0.007271459400000
    -0.007626384450000    -0.053652416340000    -0.006916654460000
    -0.007271459400000    -0.006916654460000    -0.052992892330000
3 7
    -0.092956732300000     0.001227764420000    -0.009582616020000
     0.001227764420000    -0.093079604830000    -0.009114907680000
    -0.009582616020000    -0.009114907680000    -0.163317170300000
3 8
    -0.114233858470000     0.011035826910000     0.030196855100000
     0.011035826910000     0.555546704760000    -0.022959386830000
     0.030196855100000    -0.022959386830000    -0.116646628150000
3 9
    -9.342787218269999     2.866496615450000     2.733097284720000
     2.866496615450000   -10.070056751459999    -3.074565090210000
     2.733097284720000    -3.074565090210000    -9.776908478310000
3 10
     0.122177213210000     0.114684751410000     0.109347543450000
     0.114684751410000     0.142586544630000     0.047038919520000
     0.109347543450000     0.047038919520000     0.138101637230000
3 11
     0.124966047300000     0.055811753920000    -0.002953504900000
     0.055811753920000     0.031844403970000    -0.074212485810000
    -0.002953504900000    -0.074212485810000     0.191674540750000
3 12
    -0.098606946920000     0.154459658350000     0.222719973000000
     0.154459658350000    -0.137247174690000    -0.245147632860000
     0.222719973000000    -0.245147632860000    -0.367412886700000
3 13
     0.124966047300000    -0.000292467850000     0.055889104760000
    -0.000292467850000     0.184252223190000    -0.081478300040000
     0.055889104760000    -0.081478300040000     0.039266721530000
3 14
    -0.098606946920000     0.229822557740000     0.143678704860000
     0.229822557740000    -0.390211926680000    -0.233088108420000
     0.143678704860000    -0.233088108420000    -0.114448134710000
3 15
    -0.261642098940000     0.214813131700000     0.204816256290000
     0.214813131700000    -0.018173603880000    -0.054800427720000
     0.204816256290000    -0.054800427720000    -0.012948578660000
3 16
     0.032850685550000     0.034633598390000     0.033021842300000
     0.034633598390000     0.036107828530000    -0.024467367880000
     0.033021842300000    -0.024467367880000     0.038440725060000
3 17
     1.269830184970000    -0.784982988740000    -0.748451892570000
     0.462508057440000    -1.390593223040000    -1.350928336860000
     0.440984105220000    -1.350928336860000    -1.261787138930000
3 18
     0.041346666400000    -0.056161153910000    -0.053547560310000
     0.028005448150000    -0.080473579890000     0.065480128480000