       N       E                     dE             d eps       ncg     rms          rms(c)
DAV:   1     0.509210391513E+03    0.50921E+03   -0.11360E+05 12288   0.106E+03
DAV:   2    -0.555256333159E+03   -0.10645E+04   -0.10120E+04 16224   0.231E+02
DAV:   3    -0.597122536193E+03   -0.41866E+02   -0.41607E+02 16320   0.429E+01
DAV:   4    -0.597584126352E+03   -0.46159E+00   -0.46071E+00 16256   0.496E+00
DAV:   5    -0.597593226566E+03   -0.91002E-02   -0.90966E-02 15232   0.645E-01    0.267E+01
DAV:   6    -0.582555703861E+03    0.15038E+02   -0.10135E+01 14624   0.648E+00    0.146E+01
DAV:   7    -0.577512427754E+03    0.50433E+01   -0.11849E+01 14976   0.720E+00    0.199E+00
DAV:   8    -0.577579302097E+03   -0.66874E-01   -0.36422E-01 15488   0.123E+00    0.223E-01
DAV:   9    -0.577581666201E+03   -0.23641E-02   -0.44942E-03 15712   0.161E-01    0.101E-01
DAV:  10    -0.577582188334E+03   -0.52213E-03   -0.36824E-04 15232   0.496E-02    0.122E-02
DAV:  11    -0.577582206945E+03   -0.18611E-04   -0.16658E-05 15968   0.105E-02    0.399E-03
DAV:  12    -0.577582207227E+03   -0.28288E-06   -0.63470E-07 15680   0.195E-03    0.414E-04
DAV:  13    -0.577582207224E+03    0.37471E-08   -0.15957E-08 13536   0.276E-04
   1 F= -.57758221E+03 E0= -.57758221E+03  d E =-.286870E-12
 Linear response reoptimize wavefunctions
DAV:   1    -0.577582207278E+03   -0.54562E-07   -0.44717E-09 10080   0.188E-04
DAV:   2    -0.577582207278E+03   -0.53660E-10   -0.38327E-10  9600   0.505E-05
 Linear response DOF=           1
 Linear response progress:
  Degree of freedom:   1/  1
       N       E                     dE             d eps       ncg     rms          rms(c)
RMM:   1    -0.145274286355E+00   -0.14527E+00    0.38154E-03 73367   0.736E-01
RMM:   2    -0.123674434647E+00    0.21600E-01   -0.71942E-03 44189   0.191E-01    0.180E-01
RMM:   3    -0.123514319289E+00    0.16012E-03   -0.91225E-04 46660   0.507E-02    0.915E-02
RMM:   4    -0.123771650488E+00   -0.25733E-03   -0.24973E-04 46782   0.276E-02    0.279E-02
RMM:   5    -0.123854668075E+00   -0.83018E-04   -0.16319E-05 47213   0.774E-03    0.667E-03
RMM:   6    -0.123837552782E+00    0.17115E-04   -0.97220E-08 47825   0.201E-03    0.140E-03
RMM:   7    -0.123829134968E+00    0.84178E-05    0.24183E-07 48797   0.653E-04    0.390E-04
RMM:   8    -0.123828619808E+00    0.51516E-06    0.22399E-07 50811   0.311E-04    0.903E-05
RMM:   9    -0.123828403088E+00    0.21672E-06   -0.22408E-07 53255   0.224E-04    0.380E-05
RMM:  10    -0.123828525367E+00   -0.12228E-06   -0.67429E-07 54795   0.215E-04    0.119E-05
RMM:  11    -0.123828521185E+00    0.41815E-08   -0.57492E-07 55141   0.212E-04    0.408E-06
 Linear response finished
