 vasp.5.4.4.18Apr17-6-g9f103f2a35 (build Mar 12 2022 03:36:41) complex          
  
 executed on IFC19.0.3.199_CrayMP date 2022.12.02  04:06:05
 running on   32 total cores
 distrk:  each k-point on   32 cores,    1 groups
 distr:  one band on NCORES_PER_BAND=   1 cores,   32 groups


--------------------------------------------------------------------------------------------------------


 INCAR:
 POTCAR:   PAW_PBE C 08Apr2002                    

 ----------------------------------------------------------------------------- 
|                                                                             |
|           W    W    AA    RRRRR   N    N  II  N    N   GGGG   !!!           |
|           W    W   A  A   R    R  NN   N  II  NN   N  G    G  !!!           |
|           W    W  A    A  R    R  N N  N  II  N N  N  G       !!!           |
|           W WW W  AAAAAA  RRRRR   N  N N  II  N  N N  G  GGG   !            |
|           WW  WW  A    A  R   R   N   NN  II  N   NN  G    G                |
|           W    W  A    A  R    R  N    N  II  N    N   GGGG   !!!           |
|                                                                             |
|      For optimal performance we recommend to set                            |
|        NCORE= 4 - approx SQRT( number of cores)                             |
|      NCORE specifies how many cores store one orbital (NPAR=cpu/NCORE).     |
|      This setting can  greatly improve the performance of VASP for DFT.     |
|      The default,   NCORE=1            might be grossly inefficient         |
|      on modern multi-core architectures or massively parallel machines.     |
|      Do your own testing !!!!                                               |
|      Unfortunately you need to use the default for GW and RPA calculations. |
|      (for HF NCORE is supported but not extensively tested yet)             |
|                                                                             |
 ----------------------------------------------------------------------------- 

 POTCAR:   PAW_PBE C 08Apr2002                    
   VRHFIN =C: s2p2                                                              
   LEXCH  = PE                                                                  
   EATOM  =   147.1560 eV,   10.8157 Ry                                         
                                                                                
   TITEL  = PAW_PBE C 08Apr2002                                                 
   LULTRA =        F    use ultrasoft PP ?                                      
   IUNSCR =        0    unscreen: 0-lin 1-nonlin 2-no                           
   RPACOR =     .000    partial core radius                                     
   POMASS =   12.011; ZVAL   =    4.000    mass and valenz                      
   RCORE  =    1.500    outmost cutoff radius                                   
   RWIGS  =    1.630; RWIGS  =     .863    wigner-seitz radius (au A)           
   ENMAX  =  400.000; ENMIN  =  300.000 eV                                      
   ICORE  =        2    local potential                                         
   LCOR   =        T    correct aug charges                                     
   LPAW   =        T    paw PP                                                  
   EAUG   =  644.873                                                            
   DEXC   =     .000                                                            
   RMAX   =    2.266    core radius for proj-oper                               
   RAUG   =    1.300    factor for augmentation sphere                          
   RDEP   =    1.501    radius for radial grids                                 
   RDEPT  =    1.300    core radius for aug-charge                              
   QCUT   =   -5.516; QGAM   =   11.032    optimization parameters              
                                                                                
   Description                                                                  
     l     E      TYP  RCUT    TYP  RCUT                                        
     0   .000     23  1.200                                                     
     0   .000     23  1.200                                                     
     1   .000     23  1.500                                                     
     1  2.500     23  1.500                                                     
     2   .000      7  1.500                                                     
  local pseudopotential read in
  atomic valenz-charges read in
  non local Contribution for L=           0  read in
    real space projection operators read in
  non local Contribution for L=           0  read in
    real space projection operators read in
  non local Contribution for L=           1  read in
    real space projection operators read in
  non local Contribution for L=           1  read in
    real space projection operators read in
    PAW grid and wavefunctions read in
 
   number of l-projection  operators is LMAX  =           4
   number of lm-projection operators is LMMAX =           8
 

 ----------------------------------------------------------------------------- 
|                                                                             |
|  ADVICE TO THIS USER RUNNING 'VASP/VAMP'   (HEAR YOUR MASTER'S VOICE ...):  |
|                                                                             |
|      You have a (more or less) 'large supercell' and for larger cells       |
|      it might be more efficient to use real space projection operators      |
|      So try LREAL= Auto  in the INCAR   file.                               |
|      Mind: If you want to do a very accurate calculations keep the          |
|      reciprocal projection scheme          (i.e. LREAL=.FALSE.)             |
|                                                                             |
 ----------------------------------------------------------------------------- 

 PAW_PBE C 08Apr2002                    :
 energy of atom  1       EATOM= -147.1560
 kinetic energy error for atom=    0.0288 (will be added to EATOM!!)
 
 
 POSCAR: generated by phonopy                    
  positions in direct lattice
  No initial velocities read in
 exchange correlation table for  LEXCH =        8
   RHO(1)=    0.500       N(1)  =     2000
   RHO(2)=  100.500       N(2)  =     4000
 


--------------------------------------------------------------------------------------------------------


 ion  position               nearest neighbor table
   1  0.125  0.375  0.125-  43 1.53  57 1.53  11 1.53  25 1.63
   2  0.625  0.375  0.125-  44 1.53  58 1.53  12 1.53  26 1.63
   3  0.125  0.875  0.125-  41 1.53  59 1.53   9 1.53  27 1.63
   4  0.625  0.875  0.125-  42 1.53  60 1.53  10 1.53  28 1.63
   5  0.125  0.375  0.625-  47 1.53  61 1.53  15 1.53  29 1.63
   6  0.625  0.375  0.625-  48 1.53  62 1.53  16 1.53  30 1.63
   7  0.125  0.875  0.625-  45 1.53  63 1.53  13 1.53  31 1.63
   8  0.625  0.875  0.625-  46 1.53  64 1.53  14 1.53  32 1.63
   9  0.000  0.000  0.250-  36 1.53  50 1.53   3 1.53  17 1.63
  10  0.500  0.000  0.250-  35 1.53  49 1.53   4 1.53  18 1.63
  11  0.000  0.500  0.250-  34 1.53  52 1.53   1 1.53  19 1.63
  12  0.500  0.500  0.250-  33 1.53  51 1.53   2 1.53  20 1.63
  13  0.000  0.000  0.750-  40 1.53  54 1.53   7 1.53  21 1.63
  14  0.500  0.000  0.750-  39 1.53  53 1.53   8 1.53  22 1.63
  15  0.000  0.500  0.750-  38 1.53  56 1.53   5 1.53  23 1.63
  16  0.500  0.500  0.750-  37 1.53  55 1.53   6 1.53  24 1.63
  17  0.125  0.125  0.375-  45 1.53  57 1.53  29 1.53   9 1.63
  18  0.625  0.125  0.375-  46 1.53  58 1.53  30 1.53  10 1.63
  19  0.125  0.625  0.375-  47 1.53  59 1.53  31 1.53  11 1.63
  20  0.625  0.625  0.375-  48 1.53  60 1.53  32 1.53  12 1.63
  21  0.125  0.125  0.875-  41 1.53  61 1.53  25 1.53  13 1.63
  22  0.625  0.125  0.875-  42 1.53  62 1.53  26 1.53  14 1.63
  23  0.125  0.625  0.875-  43 1.53  63 1.53  27 1.53  15 1.63
  24  0.625  0.625  0.875-  44 1.53  64 1.53  28 1.53  16 1.63
  25  0.000  0.250  0.000-  38 1.53  50 1.53  21 1.53   1 1.63
  26  0.500  0.250  0.000-  37 1.53  49 1.53  22 1.53   2 1.63
  27  0.000  0.750  0.000-  40 1.53  52 1.53  23 1.53   3 1.63
  28  0.500  0.750  0.000-  39 1.53  51 1.53  24 1.53   4 1.63
  29  0.000  0.250  0.500-  34 1.53  54 1.53  17 1.53   5 1.63
  30  0.500  0.250  0.500-  33 1.53  53 1.53  18 1.53   6 1.63
  31  0.000  0.750  0.500-  36 1.53  56 1.53  19 1.53   7 1.63
  32  0.500  0.750  0.500-  35 1.53  55 1.53  20 1.53   8 1.63
  33  0.375  0.375  0.375-  12 1.53  30 1.53  47 1.53  57 1.63
  34  0.875  0.375  0.375-  11 1.53  29 1.53  48 1.53  58 1.63
  35  0.375  0.875  0.375-  10 1.53  32 1.53  45 1.53  59 1.63
  36  0.875  0.875  0.375-   9 1.53  31 1.53  46 1.53  60 1.63
  37  0.375  0.375  0.875-  16 1.53  26 1.53  43 1.53  61 1.63
  38  0.875  0.375  0.875-  15 1.53  25 1.53  44 1.53  62 1.63
  39  0.375  0.875  0.875-  14 1.53  28 1.53  41 1.53  63 1.63
  40  0.875  0.875  0.875-  13 1.53  27 1.53  42 1.53  64 1.63
  41  0.250  0.000  0.000-   3 1.53  21 1.53  39 1.53  49 1.63
  42  0.750  0.000  0.000-   4 1.53  22 1.53  40 1.53  50 1.63
  43  0.250  0.500  0.000-   1 1.53  23 1.53  37 1.53  51 1.63
  44  0.750  0.500  0.000-   2 1.53  24 1.53  38 1.53  52 1.63
  45  0.250  0.000  0.500-   7 1.53  17 1.53  35 1.53  53 1.63
  46  0.750  0.000  0.500-   8 1.53  18 1.53  36 1.53  54 1.63
  47  0.250  0.500  0.500-   5 1.53  19 1.53  33 1.53  55 1.63
  48  0.750  0.500  0.500-   6 1.53  20 1.53  34 1.53  56 1.63
  49  0.375  0.125  0.125-  10 1.53  26 1.53  57 1.53  41 1.63
  50  0.875  0.125  0.125-   9 1.53  25 1.53  58 1.53  42 1.63
  51  0.375  0.625  0.125-  12 1.53  28 1.53  59 1.53  43 1.63
  52  0.875  0.625  0.125-  11 1.53  27 1.53  60 1.53  44 1.63
  53  0.375  0.125  0.625-  14 1.53  30 1.53  61 1.53  45 1.63
  54  0.875  0.125  0.625-  13 1.53  29 1.53  62 1.53  46 1.63
  55  0.375  0.625  0.625-  16 1.53  32 1.53  63 1.53  47 1.63
  56  0.875  0.625  0.625-  15 1.53  31 1.53  64 1.53  48 1.63
  57  0.250  0.250  0.250-   1 1.53  17 1.53  49 1.53  33 1.63
  58  0.750  0.250  0.250-   2 1.53  18 1.53  50 1.53  34 1.63
  59  0.250  0.750  0.250-   3 1.53  19 1.53  51 1.53  35 1.63
  60  0.750  0.750  0.250-   4 1.53  20 1.53  52 1.53  36 1.63
  61  0.250  0.250  0.750-   5 1.53  21 1.53  53 1.53  37 1.63
  62  0.750  0.250  0.750-   6 1.53  22 1.53  54 1.53  38 1.63
  63  0.250  0.750  0.750-   7 1.53  23 1.53  55 1.53  39 1.63
  64  0.750  0.750  0.750-   8 1.53  24 1.53  56 1.53  40 1.63
 
  LATTYP: Found a trigonal (rhomboedric) cell.
 ALAT       =     7.1799985332
 COS(alpha) =     0.0499998614
  
  Lattice vectors:
  
 A1 = (   7.1799987179,   0.0000000000,   0.0000000000)
 A2 = (   0.3589989313,   7.1710179684,   0.0000000000)
 A3 = (   0.3589989313,   0.3414774288,   7.1628830569)


Analysis of symmetry for initial positions (statically):
=====================================================================
 Subroutine PRICEL returns following result:
 
  LATTYP: Found a trigonal (rhomboedric) cell.
 ALAT       =     2.6012016659
 COS(alpha) =     0.5476189500
  
  Lattice vectors:
  
 A1 = (  -0.1794994657,  -1.8781238493,  -1.7907207642)
 A2 = (  -1.8847494123,  -1.7927544921,  -0.0000000000)
 A3 = (  -1.8847494123,  -0.0853693572,  -1.7907207642)
 
  32 primitive cells build up your supercell.
 

 Routine SETGRP: Setting up the symmetry group for a 
 trigonal (rhombohedral) supercell.


 Subroutine GETGRP returns: Found 12 space group operations
 (whereof  6 operations were pure point group operations)
 out of a pool of 12 trial point group operations.


The static configuration has the point symmetry C_3v.
 The point group associated with its full space group is D_3d.


Analysis of symmetry for dynamics (positions and initial velocities):
=====================================================================
 Subroutine PRICEL returns following result:
 
  LATTYP: Found a trigonal (rhomboedric) cell.
 ALAT       =     2.6012016659
 COS(alpha) =     0.5476189500
  
  Lattice vectors:
  
 A1 = (  -0.1794994657,  -1.8781238493,  -1.7907207642)
 A2 = (  -1.8847494123,  -1.7927544921,  -0.0000000000)
 A3 = (  -1.8847494123,  -0.0853693572,  -1.7907207642)
 
  32 primitive cells build up your supercell.
 

 Routine SETGRP: Setting up the symmetry group for a 
 trigonal (rhombohedral) supercell.


 Subroutine GETGRP returns: Found 12 space group operations
 (whereof  6 operations were pure point group operations)
 out of a pool of 12 trial point group operations.


The dynamic configuration has the point symmetry C_3v.
 The point group associated with its full space group is D_3d.


 Subroutine INISYM returns: Found 12 space group operations
 (whereof  6 operations are pure point group operations),
 and found    32 'primitive' translations

 
 
 KPOINTS: kpt_density=3000                        

Automatic generation of k-mesh.
Space group operators:
 irot       det(A)        alpha          n_x          n_y          n_z        tau_x        tau_y        tau_z
    1     1.000000     0.000000     1.000000     0.000000     0.000000     0.000000     0.000000     0.000000
    2    -1.000000   180.000000     0.000000    -0.690066     0.723747     0.000000     0.000000     0.000000
    3     1.000000   120.000000    -0.605530    -0.575974    -0.549170     0.000000     0.000000     0.000000
    4    -1.000000   180.000000    -0.689202     0.724569    -0.000000     0.000000     0.000000     0.000000
    5     1.000000   120.000000     0.605530     0.575974     0.549170     0.000000     0.000000     0.000000
    6    -1.000000   179.999999    -0.689202     0.034503     0.723747     0.000000     0.000000     0.000000
    7    -1.000000     0.000000     1.000000     0.000000     0.000000    -0.375000    -0.375000    -0.375000
    8     1.000000   180.000000     0.000000    -0.690066     0.723747    -0.375000    -0.375000    -0.375000
    9    -1.000000   120.000000    -0.605530    -0.575974    -0.549170    -0.375000    -0.375000    -0.375000
   10     1.000000   180.000000    -0.689202     0.724569    -0.000000    -0.375000    -0.375000    -0.375000
   11    -1.000000   120.000000     0.605530     0.575974     0.549170    -0.375000    -0.375000    -0.375000
   12     1.000000   179.999999    -0.689202     0.034503     0.723747    -0.375000    -0.375000    -0.375000
 
 Subroutine IBZKPT returns following result:
 ===========================================
 
 Found     32 irreducible k-points:
 
 Following reciprocal coordinates:
            Coordinates               Weight
  0.000000  0.000000  0.000000      1.000000
  0.166667  0.000000 -0.000000      6.000000
  0.333333  0.000000  0.000000      6.000000
  0.500000  0.000000  0.000000      3.000000
  0.166667  0.166667 -0.000000      6.000000
  0.333333  0.166667  0.000000     12.000000
  0.500000  0.166667  0.000000     12.000000
 -0.333333  0.166667 -0.000000     12.000000
 -0.166667  0.166667 -0.000000      6.000000
  0.333333  0.333333  0.000000      6.000000
  0.500000  0.333333 -0.000000     12.000000
 -0.333333  0.333333  0.000000      6.000000
  0.500000  0.500000 -0.000000      3.000000
  0.166667  0.166667  0.166667      2.000000
  0.333333  0.166667  0.166667      6.000000
  0.500000  0.166667  0.166667      6.000000
 -0.333333  0.166667  0.166667      6.000000
 -0.166667  0.166667  0.166667      6.000000
  0.333333  0.333333  0.166667      6.000000
  0.500000  0.333333  0.166667     12.000000
 -0.333333  0.333333  0.166667     12.000000
 -0.166667  0.333333  0.166667     12.000000
  0.500000  0.500000  0.166667      6.000000
 -0.333333  0.500000  0.166667     12.000000
 -0.166667  0.500000  0.166667      6.000000
 -0.333333 -0.333333  0.166667      6.000000
  0.333333  0.333333  0.333333      2.000000
  0.500000  0.333333  0.333333      6.000000
 -0.333333  0.333333  0.333333      6.000000
  0.500000  0.500000  0.333333      6.000000
 -0.333333  0.500000  0.333333      6.000000
  0.500000  0.500000  0.500000      1.000000
 
 Following cartesian coordinates:
            Coordinates               Weight
  0.000000  0.000000  0.000000      1.000000
  0.023213 -0.001162 -0.001108      6.000000
  0.046425 -0.002324 -0.002216      6.000000
  0.069638 -0.003486 -0.003324      3.000000
  0.023213  0.022080 -0.002216      6.000000
  0.046425  0.020918 -0.003324     12.000000
  0.069638  0.019755 -0.004432     12.000000
 -0.046425  0.025566  0.001108     12.000000
 -0.023213  0.024404 -0.000000      6.000000
  0.046425  0.044159 -0.004432      6.000000
  0.069638  0.042997 -0.005540     12.000000
 -0.046425  0.048808 -0.000000      6.000000
  0.069638  0.066239 -0.006648      3.000000
  0.023213  0.022080  0.021052      2.000000
  0.046425  0.020918  0.019944      6.000000
  0.069638  0.019755  0.018836      6.000000
 -0.046425  0.025566  0.024376      6.000000
 -0.023213  0.024404  0.023268      6.000000
  0.046425  0.044159  0.018836      6.000000
  0.069638  0.042997  0.017728     12.000000
 -0.046425  0.048808  0.023268     12.000000
 -0.023213  0.047645  0.022160     12.000000
  0.069638  0.066239  0.016620      6.000000
 -0.046425  0.072049  0.022160     12.000000
 -0.023213  0.070887  0.021052      6.000000
 -0.046425 -0.044159  0.027700      6.000000
  0.046425  0.044159  0.042104      2.000000
  0.069638  0.042997  0.040996      6.000000
 -0.046425  0.048808  0.046536      6.000000
  0.069638  0.066239  0.039888      6.000000
 -0.046425  0.072049  0.045428      6.000000
  0.069638  0.066239  0.063156      1.000000
 
 
 Subroutine IBZKPT_HF returns following result:
 ==============================================
 
 Found    216 k-points in 1st BZ
 the following    216 k-points will be used (e.g. in the exchange kernel)
 Following reciprocal coordinates:   # in IRBZ
  0.000000  0.000000  0.000000    0.00462963   1 t-inv F
  0.166667  0.000000 -0.000000    0.00462963   2 t-inv F
  0.333333  0.000000  0.000000    0.00462963   3 t-inv F
  0.500000  0.000000  0.000000    0.00462963   4 t-inv F
  0.166667  0.166667 -0.000000    0.00462963   5 t-inv F
  0.333333  0.166667  0.000000    0.00462963   6 t-inv F
  0.500000  0.166667  0.000000    0.00462963   7 t-inv F
 -0.333333  0.166667 -0.000000    0.00462963   8 t-inv F
 -0.166667  0.166667 -0.000000    0.00462963   9 t-inv F
  0.333333  0.333333  0.000000    0.00462963  10 t-inv F
  0.500000  0.333333 -0.000000    0.00462963  11 t-inv F
 -0.333333  0.333333  0.000000    0.00462963  12 t-inv F
  0.500000  0.500000 -0.000000    0.00462963  13 t-inv F
  0.166667  0.166667  0.166667    0.00462963  14 t-inv F
  0.333333  0.166667  0.166667    0.00462963  15 t-inv F
  0.500000  0.166667  0.166667    0.00462963  16 t-inv F
 -0.333333  0.166667  0.166667    0.00462963  17 t-inv F
 -0.166667  0.166667  0.166667    0.00462963  18 t-inv F
  0.333333  0.333333  0.166667    0.00462963  19 t-inv F
  0.500000  0.333333  0.166667    0.00462963  20 t-inv F
 -0.333333  0.333333  0.166667    0.00462963  21 t-inv F
 -0.166667  0.333333  0.166667    0.00462963  22 t-inv F
  0.500000  0.500000  0.166667    0.00462963  23 t-inv F
 -0.333333  0.500000  0.166667    0.00462963  24 t-inv F
 -0.166667  0.500000  0.166667    0.00462963  25 t-inv F
 -0.333333 -0.333333  0.166667    0.00462963  26 t-inv F
  0.333333  0.333333  0.333333    0.00462963  27 t-inv F
  0.500000  0.333333  0.333333    0.00462963  28 t-inv F
 -0.333333  0.333333  0.333333    0.00462963  29 t-inv F
  0.500000  0.500000  0.333333    0.00462963  30 t-inv F
 -0.333333  0.500000  0.333333    0.00462963  31 t-inv F
  0.500000  0.500000  0.500000    0.00462963  32 t-inv F
 -0.000000  0.166667  0.000000    0.00462963   2 t-inv F
  0.000000 -0.000000  0.166667    0.00462963   2 t-inv F
 -0.166667 -0.000000  0.000000    0.00462963   2 t-inv F
  0.000000 -0.166667 -0.000000    0.00462963   2 t-inv F
 -0.000000  0.000000 -0.166667    0.00462963   2 t-inv F
  0.000000  0.333333  0.000000    0.00462963   3 t-inv F
  0.000000  0.000000  0.333333    0.00462963   3 t-inv F
 -0.333333 -0.000000 -0.000000    0.00462963   3 t-inv F
 -0.000000 -0.333333 -0.000000    0.00462963   3 t-inv F
 -0.000000 -0.000000 -0.333333    0.00462963   3 t-inv F
  0.000000  0.500000  0.000000    0.00462963   4 t-inv F
  0.000000  0.000000  0.500000    0.00462963   4 t-inv F
  0.166667 -0.000000  0.166667    0.00462963   5 t-inv F
 -0.000000  0.166667  0.166667    0.00462963   5 t-inv F
 -0.166667 -0.166667  0.000000    0.00462963   5 t-inv F
 -0.166667  0.000000 -0.166667    0.00462963   5 t-inv F
  0.000000 -0.166667 -0.166667    0.00462963   5 t-inv F
  0.333333  0.000000  0.166667    0.00462963   6 t-inv F
  0.000000  0.333333  0.166667    0.00462963   6 t-inv F
  0.166667  0.333333  0.000000    0.00462963   6 t-inv F
  0.166667  0.000000  0.333333    0.00462963   6 t-inv F
  0.000000  0.166667  0.333333    0.00462963   6 t-inv F
 -0.333333 -0.166667 -0.000000    0.00462963   6 t-inv F
 -0.333333 -0.000000 -0.166667    0.00462963   6 t-inv F
 -0.000000 -0.333333 -0.166667    0.00462963   6 t-inv F
 -0.166667 -0.333333 -0.000000    0.00462963   6 t-inv F
 -0.166667 -0.000000 -0.333333    0.00462963   6 t-inv F
 -0.000000 -0.166667 -0.333333    0.00462963   6 t-inv F
  0.500000  0.000000  0.166667    0.00462963   7 t-inv F
  0.000000  0.500000  0.166667    0.00462963   7 t-inv F
  0.166667  0.500000  0.000000    0.00462963   7 t-inv F
  0.166667  0.000000  0.500000    0.00462963   7 t-inv F
  0.000000  0.166667  0.500000    0.00462963   7 t-inv F
 -0.500000 -0.166667 -0.000000    0.00462963   7 t-inv F
 -0.500000 -0.000000 -0.166667    0.00462963   7 t-inv F
 -0.000000 -0.500000 -0.166667    0.00462963   7 t-inv F
 -0.166667 -0.500000 -0.000000    0.00462963   7 t-inv F
 -0.166667 -0.000000 -0.500000    0.00462963   7 t-inv F
 -0.000000 -0.166667 -0.500000    0.00462963   7 t-inv F
 -0.333333 -0.000000  0.166667    0.00462963   8 t-inv F
 -0.000000 -0.333333  0.166667    0.00462963   8 t-inv F
  0.166667 -0.333333 -0.000000    0.00462963   8 t-inv F
  0.166667 -0.000000 -0.333333    0.00462963   8 t-inv F
 -0.000000  0.166667 -0.333333    0.00462963   8 t-inv F
  0.333333 -0.166667  0.000000    0.00462963   8 t-inv F
  0.333333  0.000000 -0.166667    0.00462963   8 t-inv F
  0.000000  0.333333 -0.166667    0.00462963   8 t-inv F
 -0.166667  0.333333  0.000000    0.00462963   8 t-inv F
 -0.166667  0.000000  0.333333    0.00462963   8 t-inv F
  0.000000 -0.166667  0.333333    0.00462963   8 t-inv F
 -0.166667 -0.000000  0.166667    0.00462963   9 t-inv F
 -0.000000 -0.166667  0.166667    0.00462963   9 t-inv F
  0.166667 -0.166667 -0.000000    0.00462963   9 t-inv F
  0.166667 -0.000000 -0.166667    0.00462963   9 t-inv F
 -0.000000  0.166667 -0.166667    0.00462963   9 t-inv F
  0.333333  0.000000  0.333333    0.00462963  10 t-inv F
  0.000000  0.333333  0.333333    0.00462963  10 t-inv F
 -0.333333 -0.333333 -0.000000    0.00462963  10 t-inv F
 -0.333333 -0.000000 -0.333333    0.00462963  10 t-inv F
 -0.000000 -0.333333 -0.333333    0.00462963  10 t-inv F
  0.500000 -0.000000  0.333333    0.00462963  11 t-inv F
 -0.000000  0.500000  0.333333    0.00462963  11 t-inv F
  0.333333  0.500000 -0.000000    0.00462963  11 t-inv F
  0.333333 -0.000000  0.500000    0.00462963  11 t-inv F
 -0.000000  0.333333  0.500000    0.00462963  11 t-inv F
 -0.500000 -0.333333  0.000000    0.00462963  11 t-inv F
 -0.500000  0.000000 -0.333333    0.00462963  11 t-inv F
  0.000000 -0.500000 -0.333333    0.00462963  11 t-inv F
 -0.333333 -0.500000  0.000000    0.00462963  11 t-inv F
 -0.333333  0.000000 -0.500000    0.00462963  11 t-inv F
  0.000000 -0.333333 -0.500000    0.00462963  11 t-inv F
 -0.333333  0.000000  0.333333    0.00462963  12 t-inv F
  0.000000 -0.333333  0.333333    0.00462963  12 t-inv F
  0.333333 -0.333333  0.000000    0.00462963  12 t-inv F
  0.333333  0.000000 -0.333333    0.00462963  12 t-inv F
  0.000000  0.333333 -0.333333    0.00462963  12 t-inv F
  0.500000 -0.000000  0.500000    0.00462963  13 t-inv F
 -0.000000  0.500000  0.500000    0.00462963  13 t-inv F
 -0.166667 -0.166667 -0.166667    0.00462963  14 t-inv F
  0.166667  0.333333  0.166667    0.00462963  15 t-inv F
  0.166667  0.166667  0.333333    0.00462963  15 t-inv F
 -0.333333 -0.166667 -0.166667    0.00462963  15 t-inv F
 -0.166667 -0.333333 -0.166667    0.00462963  15 t-inv F
 -0.166667 -0.166667 -0.333333    0.00462963  15 t-inv F
  0.166667  0.500000  0.166667    0.00462963  16 t-inv F
  0.166667  0.166667  0.500000    0.00462963  16 t-inv F
 -0.500000 -0.166667 -0.166667    0.00462963  16 t-inv F
 -0.166667 -0.500000 -0.166667    0.00462963  16 t-inv F
 -0.166667 -0.166667 -0.500000    0.00462963  16 t-inv F
  0.166667 -0.333333  0.166667    0.00462963  17 t-inv F
  0.166667  0.166667 -0.333333    0.00462963  17 t-inv F
  0.333333 -0.166667 -0.166667    0.00462963  17 t-inv F
 -0.166667  0.333333 -0.166667    0.00462963  17 t-inv F
 -0.166667 -0.166667  0.333333    0.00462963  17 t-inv F
  0.166667 -0.166667  0.166667    0.00462963  18 t-inv F
  0.166667  0.166667 -0.166667    0.00462963  18 t-inv F
  0.166667 -0.166667 -0.166667    0.00462963  18 t-inv F
 -0.166667  0.166667 -0.166667    0.00462963  18 t-inv F
 -0.166667 -0.166667  0.166667    0.00462963  18 t-inv F
  0.333333  0.166667  0.333333    0.00462963  19 t-inv F
  0.166667  0.333333  0.333333    0.00462963  19 t-inv F
 -0.333333 -0.333333 -0.166667    0.00462963  19 t-inv F
 -0.333333 -0.166667 -0.333333    0.00462963  19 t-inv F
 -0.166667 -0.333333 -0.333333    0.00462963  19 t-inv F
  0.500000  0.166667  0.333333    0.00462963  20 t-inv F
  0.166667  0.500000  0.333333    0.00462963  20 t-inv F
  0.333333  0.500000  0.166667    0.00462963  20 t-inv F
  0.333333  0.166667  0.500000    0.00462963  20 t-inv F
  0.166667  0.333333  0.500000    0.00462963  20 t-inv F
 -0.500000 -0.333333 -0.166667    0.00462963  20 t-inv F
 -0.500000 -0.166667 -0.333333    0.00462963  20 t-inv F
 -0.166667 -0.500000 -0.333333    0.00462963  20 t-inv F
 -0.333333 -0.500000 -0.166667    0.00462963  20 t-inv F
 -0.333333 -0.166667 -0.500000    0.00462963  20 t-inv F
 -0.166667 -0.333333 -0.500000    0.00462963  20 t-inv F
 -0.333333  0.166667  0.333333    0.00462963  21 t-inv F
  0.166667 -0.333333  0.333333    0.00462963  21 t-inv F
  0.333333 -0.333333  0.166667    0.00462963  21 t-inv F
  0.333333  0.166667 -0.333333    0.00462963  21 t-inv F
  0.166667  0.333333 -0.333333    0.00462963  21 t-inv F
  0.333333 -0.333333 -0.166667    0.00462963  21 t-inv F
  0.333333 -0.166667 -0.333333    0.00462963  21 t-inv F
 -0.166667  0.333333 -0.333333    0.00462963  21 t-inv F
 -0.333333  0.333333 -0.166667    0.00462963  21 t-inv F
 -0.333333 -0.166667  0.333333    0.00462963  21 t-inv F
 -0.166667 -0.333333  0.333333    0.00462963  21 t-inv F
 -0.166667  0.166667  0.333333    0.00462963  22 t-inv F
  0.166667 -0.166667  0.333333    0.00462963  22 t-inv F
  0.333333 -0.166667  0.166667    0.00462963  22 t-inv F
  0.333333  0.166667 -0.166667    0.00462963  22 t-inv F
  0.166667  0.333333 -0.166667    0.00462963  22 t-inv F
  0.166667 -0.333333 -0.166667    0.00462963  22 t-inv F
  0.166667 -0.166667 -0.333333    0.00462963  22 t-inv F
 -0.166667  0.166667 -0.333333    0.00462963  22 t-inv F
 -0.333333  0.166667 -0.166667    0.00462963  22 t-inv F
 -0.333333 -0.166667  0.166667    0.00462963  22 t-inv F
 -0.166667 -0.333333  0.166667    0.00462963  22 t-inv F
  0.500000  0.166667  0.500000    0.00462963  23 t-inv F
  0.166667  0.500000  0.500000    0.00462963  23 t-inv F
 -0.500000 -0.500000 -0.166667    0.00462963  23 t-inv F
 -0.500000 -0.166667 -0.500000    0.00462963  23 t-inv F
 -0.166667 -0.500000 -0.500000    0.00462963  23 t-inv F
 -0.333333  0.166667  0.500000    0.00462963  24 t-inv F
  0.166667 -0.333333  0.500000    0.00462963  24 t-inv F
  0.500000 -0.333333  0.166667    0.00462963  24 t-inv F
  0.500000  0.166667 -0.333333    0.00462963  24 t-inv F
  0.166667  0.500000 -0.333333    0.00462963  24 t-inv F
  0.333333 -0.500000 -0.166667    0.00462963  24 t-inv F
  0.333333 -0.166667 -0.500000    0.00462963  24 t-inv F
 -0.166667  0.333333 -0.500000    0.00462963  24 t-inv F
 -0.500000  0.333333 -0.166667    0.00462963  24 t-inv F
 -0.500000 -0.166667  0.333333    0.00462963  24 t-inv F
 -0.166667 -0.500000  0.333333    0.00462963  24 t-inv F
 -0.166667  0.166667  0.500000    0.00462963  25 t-inv F
  0.166667 -0.166667  0.500000    0.00462963  25 t-inv F
  0.500000 -0.166667  0.166667    0.00462963  25 t-inv F
  0.500000  0.166667 -0.166667    0.00462963  25 t-inv F
  0.166667  0.500000 -0.166667    0.00462963  25 t-inv F
 -0.333333  0.166667 -0.333333    0.00462963  26 t-inv F
  0.166667 -0.333333 -0.333333    0.00462963  26 t-inv F
  0.333333  0.333333 -0.166667    0.00462963  26 t-inv F
  0.333333 -0.166667  0.333333    0.00462963  26 t-inv F
 -0.166667  0.333333  0.333333    0.00462963  26 t-inv F
 -0.333333 -0.333333 -0.333333    0.00462963  27 t-inv F
  0.333333  0.500000  0.333333    0.00462963  28 t-inv F
  0.333333  0.333333  0.500000    0.00462963  28 t-inv F
 -0.500000 -0.333333 -0.333333    0.00462963  28 t-inv F
 -0.333333 -0.500000 -0.333333    0.00462963  28 t-inv F
 -0.333333 -0.333333 -0.500000    0.00462963  28 t-inv F
  0.333333 -0.333333  0.333333    0.00462963  29 t-inv F
  0.333333  0.333333 -0.333333    0.00462963  29 t-inv F
  0.333333 -0.333333 -0.333333    0.00462963  29 t-inv F
 -0.333333  0.333333 -0.333333    0.00462963  29 t-inv F
 -0.333333 -0.333333  0.333333    0.00462963  29 t-inv F
  0.500000  0.333333  0.500000    0.00462963  30 t-inv F
  0.333333  0.500000  0.500000    0.00462963  30 t-inv F
 -0.500000 -0.500000 -0.333333    0.00462963  30 t-inv F
 -0.500000 -0.333333 -0.500000    0.00462963  30 t-inv F
 -0.333333 -0.500000 -0.500000    0.00462963  30 t-inv F
 -0.333333  0.333333  0.500000    0.00462963  31 t-inv F
  0.333333 -0.333333  0.500000    0.00462963  31 t-inv F
  0.500000 -0.333333  0.333333    0.00462963  31 t-inv F
  0.500000  0.333333 -0.333333    0.00462963  31 t-inv F
  0.333333  0.500000 -0.333333    0.00462963  31 t-inv F


--------------------------------------------------------------------------------------------------------




 Dimension of arrays:
   k-points           NKPTS =     32   k-points in BZ     NKDIM =     32   number of bands    NBANDS=    192
   number of dos      NEDOS =    301   number of ions     NIONS =     64
   non local maximal  LDIM  =      4   non local SUM 2l+1 LMDIM =      8
   total plane-waves  NPLWV = 110592
   max r-space proj   IRMAX =      1   max aug-charges    IRDMAX=  28506
   dimension x,y,z NGX =    48 NGY =   48 NGZ =   48
   dimension x,y,z NGXF=    96 NGYF=   96 NGZF=   96
   support grid    NGXF=   192 NGYF=  192 NGZF=  192
   ions per type =              64
   NGX,Y,Z   is equivalent  to a cutoff of  11.11, 11.11, 11.11 a.u.
   NGXF,Y,Z  is equivalent  to a cutoff of  22.23, 22.23, 22.23 a.u.

 SYSTEM =  unknown system                          
 POSCAR =  generated by phonopy                    

 Startparameter for this run:
   NWRITE =      2    write-flag & timer
   PREC   = accura    normal or accurate (medium, high low for compatibility)
   ISTART =      0    job   : 0-new  1-cont  2-samecut
   ICHARG =      2    charge: 1-file 2-atom 10-const
   ISPIN  =      1    spin polarized calculation?
   LNONCOLLINEAR =      F non collinear calculations
   LSORBIT =      F    spin-orbit coupling
   INIWAV =      1    electr: 0-lowe 1-rand  2-diag
   LASPH  =      F    aspherical Exc in radial PAW
   METAGGA=      F    non-selfconsistent MetaGGA calc.

 Electronic Relaxation 1
   ENCUT  =  400.0 eV  29.40 Ry    5.42 a.u.  11.71 11.71 11.71*2*pi/ulx,y,z
   ENINI  =  400.0     initial cutoff
   ENAUG  =  644.9 eV  augmentation charge cutoff
   NELM   =     60;   NELMIN=  2; NELMDL= -5     # of ELM steps 
   EDIFF  = 0.1E-07   stopping-criterion for ELM
   LREAL  =      F    real-space projection
   NLSPLINE    = F    spline interpolate recip. space projectors
   LCOMPAT=      F    compatible to vasp.4.4
   GGA_COMPAT  = T    GGA compatible to vasp.4.4-vasp.4.6
   LMAXPAW     = -100 max onsite density
   LMAXMIX     =    2 max onsite mixed and CHGCAR
   VOSKOWN=      0    Vosko Wilk Nusair interpolation
   ROPT   =    0.00000
 Ionic relaxation
   EDIFFG = 0.1E-06   stopping-criterion for IOM
   NSW    =      1    number of steps for IOM
   NBLOCK =      1;   KBLOCK =      1    inner block; outer block 
   IBRION =      8    ionic relax: 0-MD 1-quasi-New 2-CG
   NFREE  =      0    steps in history (QN), initial steepest desc. (CG)
   ISIF   =      2    stress and relaxation
   IWAVPR =     11    prediction:  0-non 1-charg 2-wave 3-comb
   ISYM   =      2    0-nonsym 1-usesym 2-fastsym
   LCORR  =      T    Harris-Foulkes like correction to forces

   POTIM  = 0.5000    time-step for ionic-motion
   TEIN   =    0.0    initial temperature
   TEBEG  =    0.0;   TEEND  =   0.0 temperature during run
   SMASS  =  -3.00    Nose mass-parameter (am)
   estimated Nose-frequenzy (Omega)   =  0.10E-29 period in steps =****** mass=  -0.118E-26a.u.
   SCALEE = 1.0000    scale energy and forces
   NPACO  =    256;   APACO  = 16.0  distance and # of slots for P.C.
   PSTRESS=    0.0 pullay stress

  Mass of Ions in am
   POMASS =  12.01
  Ionic Valenz
   ZVAL   =   4.00
  Atomic Wigner-Seitz radii
   RWIGS  =  -1.00
  virtual crystal weights 
   VCA    =   1.00
   NELECT =     256.0000    total number of electrons
   NUPDOWN=      -1.0000    fix difference up-down

 DOS related values:
   EMIN   =  10.00;   EMAX   =-10.00  energy-range for DOS
   EFERMI =   0.00
   ISMEAR =     0;   SIGMA  =   0.06  broadening in eV -4-tet -1-fermi 0-gaus

 Electronic relaxation 2 (details)
   IALGO  =     38    algorithm
   LDIAG  =      T    sub-space diagonalisation (order eigenvalues)
   LSUBROT=      F    optimize rotation matrix (better conditioning)
   TURBO    =      0    0=normal 1=particle mesh
   IRESTART =      0    0=no restart 2=restart with 2 vectors
   NREBOOT  =      0    no. of reboots
   NMIN     =      0    reboot dimension
   EREF     =   0.00    reference energy to select bands
   IMIX   =      4    mixing-type and parameters
     AMIX     =   0.40;   BMIX     =  1.00
     AMIX_MAG =   1.60;   BMIX_MAG =  1.00
     AMIN     =   0.10
     WC   =   100.;   INIMIX=   1;  MIXPRE=   1;  MAXMIX= -45

 Intra band minimization:
   WEIMIN = 0.0010     energy-eigenvalue tresh-hold
   EBREAK =  0.13E-10  absolut break condition
   DEPER  =   0.30     relativ break condition  

   TIME   =   0.40     timestep for ELM

  volume/ion in A,a.u.               =       5.76        38.89
  Fermi-wavevector in a.u.,A,eV,Ry     =   1.449519  2.739193 28.587260  2.101104
  Thomas-Fermi vector in A             =   2.567236
 
 Write flags
   LWAVE        =      F    write WAVECAR
   LDOWNSAMPLE  =      F    k-point downsampling of WAVECAR
   LCHARG       =      F    write CHGCAR
   LVTOT        =      F    write LOCPOT, total local potential
   LVHAR        =      F    write LOCPOT, Hartree potential only
   LELF         =      F    write electronic localiz. function (ELF)
   LORBIT       =      0    0 simple, 1 ext, 2 COOP (PROOUT), +10 PAW based schemes


 Dipole corrections
   LMONO  =      F    monopole corrections only (constant potential shift)
   LDIPOL =      F    correct potential (dipole corrections)
   IDIPOL =      0    1-x, 2-y, 3-z, 4-all directions 
   EPSILON=  1.0000000 bulk dielectric constant

 Exchange correlation treatment:
   GGA     =    --    GGA type
   LEXCH   =     8    internal setting for exchange type
   VOSKOWN=      0    Vosko Wilk Nusair interpolation
   LHFCALC =     F    Hartree Fock is set to
   LHFONE  =     F    Hartree Fock one center treatment
   AEXX    =    0.0000 exact exchange contribution

 Linear response parameters
   LEPSILON=     F    determine dielectric tensor
   LRPA    =     F    only Hartree local field effects (RPA)
   LNABLA  =     F    use nabla operator in PAW spheres
   LVEL    =     F    velocity operator in full k-point grid
   LINTERFAST=   F  fast interpolation
   KINTER  =     0    interpolate to denser k-point grid
   CSHIFT  =0.1000    complex shift for real part using Kramers Kronig
   OMEGAMAX=  -1.0    maximum frequency
   DEG_THRESHOLD= 0.2000000E-02 threshold for treating states as degnerate
   RTIME   =   -0.100 relaxation time in fs
  (WPLASMAI=    0.000 imaginary part of plasma frequency in eV, 0.658/RTIME)
   DFIELD  = 0.0000000 0.0000000 0.0000000 field for delta impulse in time
 
 Orbital magnetization related:
   ORBITALMAG=     F  switch on orbital magnetization
   LCHIMAG   =     F  perturbation theory with respect to B field
   DQ        =  0.001000  dq finite difference perturbation B field
   LLRAUG    =     F  two centre corrections for induced B field



--------------------------------------------------------------------------------------------------------


 linear response using symmetry
 charge density and potential will be updated during run
 non-spin polarized calculation
 Variant of blocked Davidson
 Davidson routine will perform the subspace rotation
 perform sub-space diagonalisation
    after iterative eigenvector-optimisation
 modified Broyden-mixing scheme, WC =      100.0
 initial mixing is a Kerker type mixing with AMIX =  0.4000 and BMIX =      1.0000
 Hartree-type preconditioning will be used
 using additional bands           64
 reciprocal scheme for non local part
 calculate Harris-corrections to forces 
   (improved forces if not selfconsistent)
 use gradient corrections 
 use of overlap-Matrix (Vanderbilt PP)
 Gauss-broadening in eV      SIGMA  =   0.06


--------------------------------------------------------------------------------------------------------


  energy-cutoff  :      400.00
  volume of cell :      368.80
      direct lattice vectors                 reciprocal lattice vectors
     7.179998718  0.000000000  0.000000000     0.139275791 -0.006972491 -0.006648009
     0.358998931  7.171017968  0.000000000     0.000000000  0.139450215 -0.006648036
     0.358998931  0.341477429  7.162883057     0.000000000  0.000000000  0.139608589

  length of vectors
     7.179998718  7.179998533  7.179998660     0.139608587  0.139608592  0.139608589


 
 k-points in units of 2pi/SCALE and weight: kpt_density=3000                        
   0.00000000  0.00000000  0.00000000       0.005
   0.02321263 -0.00116208 -0.00110800       0.028
   0.04642526 -0.00232416 -0.00221600       0.028
   0.06963790 -0.00348625 -0.00332400       0.014
   0.02321263  0.02207962 -0.00221601       0.028
   0.04642526  0.02091754 -0.00332401       0.056
   0.06963790  0.01975546 -0.00443201       0.056
  -0.04642526  0.02556587  0.00110800       0.056
  -0.02321263  0.02440378 -0.00000000       0.028
   0.04642526  0.04415924 -0.00443201       0.028
   0.06963790  0.04299716 -0.00554002       0.056
  -0.04642526  0.04880757 -0.00000001       0.028
   0.06963790  0.06623886 -0.00664802       0.014
   0.02321263  0.02207962  0.02105209       0.009
   0.04642526  0.02091754  0.01994409       0.028
   0.06963790  0.01975546  0.01883609       0.028
  -0.04642526  0.02556587  0.02437610       0.028
  -0.02321263  0.02440378  0.02326809       0.028
   0.04642526  0.04415924  0.01883608       0.028
   0.06963790  0.04299716  0.01772808       0.056
  -0.04642526  0.04880757  0.02326809       0.056
  -0.02321263  0.04764549  0.02216009       0.056
   0.06963790  0.06623886  0.01662008       0.028
  -0.04642526  0.07204927  0.02216008       0.056
  -0.02321263  0.07088719  0.02105208       0.028
  -0.04642526 -0.04415924  0.02770011       0.028
   0.04642526  0.04415924  0.04210418       0.009
   0.06963790  0.04299716  0.04099618       0.028
  -0.04642526  0.04880757  0.04653619       0.028
   0.06963790  0.06623886  0.03988817       0.028
  -0.04642526  0.07204927  0.04542818       0.028
   0.06963790  0.06623886  0.06315627       0.005
 
 k-points in reciprocal lattice and weights: kpt_density=3000                        
   0.00000000  0.00000000  0.00000000       0.005
   0.16666667  0.00000000 -0.00000000       0.028
   0.33333333  0.00000000  0.00000000       0.028
   0.50000000  0.00000000  0.00000000       0.014
   0.16666667  0.16666667 -0.00000000       0.028
   0.33333333  0.16666667  0.00000000       0.056
   0.50000000  0.16666667  0.00000000       0.056
  -0.33333333  0.16666667 -0.00000000       0.056
  -0.16666667  0.16666667 -0.00000000       0.028
   0.33333333  0.33333333  0.00000000       0.028
   0.50000000  0.33333333 -0.00000000       0.056
  -0.33333333  0.33333333  0.00000000       0.028
   0.50000000  0.50000000 -0.00000000       0.014
   0.16666667  0.16666667  0.16666667       0.009
   0.33333333  0.16666667  0.16666667       0.028
   0.50000000  0.16666667  0.16666667       0.028
  -0.33333333  0.16666667  0.16666667       0.028
  -0.16666667  0.16666667  0.16666667       0.028
   0.33333333  0.33333333  0.16666667       0.028
   0.50000000  0.33333333  0.16666667       0.056
  -0.33333333  0.33333333  0.16666667       0.056
  -0.16666667  0.33333333  0.16666667       0.056
   0.50000000  0.50000000  0.16666667       0.028
  -0.33333333  0.50000000  0.16666667       0.056
  -0.16666667  0.50000000  0.16666667       0.028
  -0.33333333 -0.33333333  0.16666667       0.028
   0.33333333  0.33333333  0.33333333       0.009
   0.50000000  0.33333333  0.33333333       0.028
  -0.33333333  0.33333333  0.33333333       0.028
   0.50000000  0.50000000  0.33333333       0.028
  -0.33333333  0.50000000  0.33333333       0.028
   0.50000000  0.50000000  0.50000000       0.005
 
 position of ions in fractional coordinates (direct lattice) 
   0.12500000  0.37500000  0.12500000
   0.62500000  0.37500000  0.12500000
   0.12500000  0.87500000  0.12500000
   0.62500000  0.87500000  0.12500000
   0.12500000  0.37500000  0.62500000
   0.62500000  0.37500000  0.62500000
   0.12500000  0.87500000  0.62500000
   0.62500000  0.87500000  0.62500000
   0.00000000  0.00000000  0.25000000
   0.50000000  0.00000000  0.25000000
   0.00000000  0.50000000  0.25000000
   0.50000000  0.50000000  0.25000000
   0.00000000  0.00000000  0.75000000
   0.50000000  0.00000000  0.75000000
   0.00000000  0.50000000  0.75000000
   0.50000000  0.50000000  0.75000000
   0.12500000  0.12500000  0.37500000
   0.62500000  0.12500000  0.37500000
   0.12500000  0.62500000  0.37500000
   0.62500000  0.62500000  0.37500000
   0.12500000  0.12500000  0.87500000
   0.62500000  0.12500000  0.87500000
   0.12500000  0.62500000  0.87500000
   0.62500000  0.62500000  0.87500000
   0.00000000  0.25000000  0.00000000
   0.50000000  0.25000000  0.00000000
   0.00000000  0.75000000  0.00000000
   0.50000000  0.75000000  0.00000000
   0.00000000  0.25000000  0.50000000
   0.50000000  0.25000000  0.50000000
   0.00000000  0.75000000  0.50000000
   0.50000000  0.75000000  0.50000000
   0.37500000  0.37500000  0.37500000
   0.87500000  0.37500000  0.37500000
   0.37500000  0.87500000  0.37500000
   0.87500000  0.87500000  0.37500000
   0.37500000  0.37500000  0.87500000
   0.87500000  0.37500000  0.87500000
   0.37500000  0.87500000  0.87500000
   0.87500000  0.87500000  0.87500000
   0.25000000  0.00000000  0.00000000
   0.75000000  0.00000000  0.00000000
   0.25000000  0.50000000  0.00000000
   0.75000000  0.50000000  0.00000000
   0.25000000  0.00000000  0.50000000
   0.75000000  0.00000000  0.50000000
   0.25000000  0.50000000  0.50000000
   0.75000000  0.50000000  0.50000000
   0.37500000  0.12500000  0.12500000
   0.87500000  0.12500000  0.12500000
   0.37500000  0.62500000  0.12500000
   0.87500000  0.62500000  0.12500000
   0.37500000  0.12500000  0.62500000
   0.87500000  0.12500000  0.62500000
   0.37500000  0.62500000  0.62500000
   0.87500000  0.62500000  0.62500000
   0.25000000  0.25000000  0.25000000
   0.75000000  0.25000000  0.25000000
   0.25000000  0.75000000  0.25000000
   0.75000000  0.75000000  0.25000000
   0.25000000  0.25000000  0.75000000
   0.75000000  0.25000000  0.75000000
   0.25000000  0.75000000  0.75000000
   0.75000000  0.75000000  0.75000000
 
 position of ions in cartesian coordinates  (Angst):
   1.07699931  2.73181642  0.89536038
   4.66699866  2.73181642  0.89536038
   1.25649877  6.31732540  0.89536038
   4.84649813  6.31732540  0.89536038
   1.25649877  2.90255513  4.47680191
   4.84649813  2.90255513  4.47680191
   1.43599824  6.48806412  4.47680191
   5.02599760  6.48806412  4.47680191
   0.08974973  0.08536936  1.79072076
   3.67974909  0.08536936  1.79072076
   0.26924920  3.67087834  1.79072076
   3.85924856  3.67087834  1.79072076
   0.26924920  0.25610807  5.37216229
   3.85924856  0.25610807  5.37216229
   0.44874866  3.84161706  5.37216229
   4.03874802  3.84161706  5.37216229
   1.07699931  1.02443128  2.68608115
   4.66699866  1.02443128  2.68608115
   1.25649877  4.60994027  2.68608115
   4.84649813  4.60994027  2.68608115
   1.25649877  1.19517000  6.26752267
   4.84649813  1.19517000  6.26752267
   1.43599824  4.78067898  6.26752267
   5.02599760  4.78067898  6.26752267
   0.08974973  1.79275449  0.00000000
   3.67974909  1.79275449  0.00000000
   0.26924920  5.37826348  0.00000000
   3.85924856  5.37826348  0.00000000
   0.26924920  1.96349321  3.58144153
   3.85924856  1.96349321  3.58144153
   0.44874866  5.54900219  3.58144153
   4.03874802  5.54900219  3.58144153
   2.96174872  2.81718577  2.68608115
   6.55174808  2.81718577  2.68608115
   3.14124818  6.40269476  2.68608115
   6.73124754  6.40269476  2.68608115
   3.14124818  2.98792449  6.26752267
   6.73124754  2.98792449  6.26752267
   3.32074765  6.57343347  6.26752267
   6.91074701  6.57343347  6.26752267
   1.79499968  0.00000000  0.00000000
   5.38499904  0.00000000  0.00000000
   1.97449915  3.58550898  0.00000000
   5.56449850  3.58550898  0.00000000
   1.97449915  0.17073871  3.58144153
   5.56449850  0.17073871  3.58144153
   2.15399861  3.75624770  3.58144153
   5.74399797  3.75624770  3.58144153
   2.78224925  0.93906192  0.89536038
   6.37224861  0.93906192  0.89536038
   2.96174872  4.52457091  0.89536038
   6.55174808  4.52457091  0.89536038
   2.96174872  1.10980064  4.47680191
   6.55174808  1.10980064  4.47680191
   3.14124818  4.69530962  4.47680191
   6.73124754  4.69530962  4.47680191
   1.97449915  1.87812385  1.79072076
   5.56449850  1.87812385  1.79072076
   2.15399861  5.46363283  1.79072076
   5.74399797  5.46363283  1.79072076
   2.15399861  2.04886256  5.37216229
   5.74399797  2.04886256  5.37216229
   2.33349808  5.63437155  5.37216229
   5.92349744  5.63437155  5.37216229
 


--------------------------------------------------------------------------------------------------------


 k-point  1 :   0.0000 0.0000 0.0000  plane waves:    6681
 k-point  2 :   0.1667 0.0000-0.0000  plane waves:    6693
 k-point  3 :   0.3333 0.0000 0.0000  plane waves:    6702
 k-point  4 :   0.5000 0.0000 0.0000  plane waves:    6726
 k-point  5 :   0.1667 0.1667-0.0000  plane waves:    6704
 k-point  6 :   0.3333 0.1667 0.0000  plane waves:    6708
 k-point  7 :   0.5000 0.1667 0.0000  plane waves:    6712
 k-point  8 :  -0.3333 0.1667-0.0000  plane waves:    6704
 k-point  9 :  -0.1667 0.1667-0.0000  plane waves:    6694
 k-point 10 :   0.3333 0.3333 0.0000  plane waves:    6710
 k-point 11 :   0.5000 0.3333-0.0000  plane waves:    6700
 k-point 12 :  -0.3333 0.3333 0.0000  plane waves:    6696
 k-point 13 :   0.5000 0.5000-0.0000  plane waves:    6686
 k-point 14 :   0.1667 0.1667 0.1667  plane waves:    6695
 k-point 15 :   0.3333 0.1667 0.1667  plane waves:    6689
 k-point 16 :   0.5000 0.1667 0.1667  plane waves:    6711
 k-point 17 :  -0.3333 0.1667 0.1667  plane waves:    6713
 k-point 18 :  -0.1667 0.1667 0.1667  plane waves:    6680
 k-point 19 :   0.3333 0.3333 0.1667  plane waves:    6698
 k-point 20 :   0.5000 0.3333 0.1667  plane waves:    6692
 k-point 21 :  -0.3333 0.3333 0.1667  plane waves:    6710
 k-point 22 :  -0.1667 0.3333 0.1667  plane waves:    6705
 k-point 23 :   0.5000 0.5000 0.1667  plane waves:    6714
 k-point 24 :  -0.3333 0.5000 0.1667  plane waves:    6690
 k-point 25 :  -0.1667 0.5000 0.1667  plane waves:    6710
 k-point 26 :  -0.3333-0.3333 0.1667  plane waves:    6701
 k-point 27 :   0.3333 0.3333 0.3333  plane waves:    6698
 k-point 28 :   0.5000 0.3333 0.3333  plane waves:    6685
 k-point 29 :  -0.3333 0.3333 0.3333  plane waves:    6682
 k-point 30 :   0.5000 0.5000 0.3333  plane waves:    6683
 k-point 31 :  -0.3333 0.5000 0.3333  plane waves:    6682
 k-point 32 :   0.5000 0.5000 0.5000  plane waves:    6704

 maximum and minimum number of plane-waves per node :      6726     6680

 maximum number of plane-waves:      6726
 maximum index in each direction: 
   IXMAX=   12   IYMAX=   12   IZMAX=   11
   IXMIN=  -12   IYMIN=  -12   IZMIN=  -12


 serial   3D FFT for wavefunctions
 parallel 3D FFT for charge:
    minimum data exchange during FFTs selected (reduces bandwidth)


 total amount of memory used by VASP MPI-rank0    83596. kBytes
=======================================================================

   base      :      30000. kBytes
   nonl-proj :      20742. kBytes
   fftplans  :       4537. kBytes
   grid      :       5806. kBytes
   one-center:        196. kBytes
   wavefun   :      22315. kBytes
 
     INWAV:  cpu time    0.0004: real time    0.0006
 Broyden mixing: mesh for mixing (old mesh)
   NGX = 23   NGY = 23   NGZ = 23
  (NGX  = 96   NGY  = 96   NGZ  = 96)
  gives a total of  12167 points

 initial charge density was supplied:
 charge density of overlapping atoms calculated
 number of electron     256.0000000 magnetization 
 keeping initial charge density in first step


--------------------------------------------------------------------------------------------------------


 Maximum index for augmentation-charges         1095 (set IRDMAX)


--------------------------------------------------------------------------------------------------------


 First call to EWALD:  gamma=   0.247
 Maximum number of real-space cells 3x 3x 3
 Maximum number of reciprocal cells 3x 3x 3

    FEWALD:  cpu time    0.0086: real time    0.0086


--------------------------------------- Iteration      1(   1)  ---------------------------------------


    POTLOK:  cpu time    0.0659: real time    0.1186
    SETDIJ:  cpu time    0.0425: real time    0.0426
     EDDAV:  cpu time   21.9979: real time   22.0088
       DOS:  cpu time    0.0075: real time    0.0075
    --------------------------------------------
      LOOP:  cpu time   22.1139: real time   22.1777

 eigenvalue-minimisations  : 12288
 total energy-change (2. order) : 0.5092104E+03  (-0.1136035E+05)
 number of electron     256.0000000 magnetization 
 augmentation part      256.0000000 magnetization 

 Free energy of the ion-electron system (eV)
  ---------------------------------------------------
  alpha Z        PSCENC =       904.93795581
  Ewald energy   TEWEN  =    -11061.11709803
  -Hartree energ DENC   =      -582.12263807
  -exchange      EXHF   =         0.00000000
  -V(xc)+E(xc)   XCENC  =       912.14760070
  PAW double counting   =      2421.21235816    -2494.84305711
  entropy T*S    EENTRO =        -0.00827981
  eigenvalues    EBANDS =       992.86122210
  atomic energy  EATOM  =      9416.14232778
  Solvation  Ediel_sol  =         0.00000000
  ---------------------------------------------------
  free energy    TOTEN  =       509.21039151 eV

  energy without entropy =      509.21867132  energy(sigma->0) =      509.21453142


--------------------------------------------------------------------------------------------------------




--------------------------------------- Iteration      1(   2)  ---------------------------------------


     EDDAV:  cpu time   27.3133: real time   27.3151
       DOS:  cpu time    0.0037: real time    0.0038
    --------------------------------------------
      LOOP:  cpu time   27.3170: real time   27.3188

 eigenvalue-minimisations  : 16224
 total energy-change (2. order) :-0.1064467E+04  (-0.1012026E+04)
 number of electron     256.0000000 magnetization 
 augmentation part      256.0000000 magnetization 

 Free energy of the ion-electron system (eV)
  ---------------------------------------------------
  alpha Z        PSCENC =       904.93795581
  Ewald energy   TEWEN  =    -11061.11709803
  -Hartree energ DENC   =      -582.12263807
  -exchange      EXHF   =         0.00000000
  -V(xc)+E(xc)   XCENC  =       912.14760070
  PAW double counting   =      2421.21235816    -2494.84305711
  entropy T*S    EENTRO =        -0.00000000
  eigenvalues    EBANDS =       -71.61378238
  atomic energy  EATOM  =      9416.14232778
  Solvation  Ediel_sol  =         0.00000000
  ---------------------------------------------------
  free energy    TOTEN  =      -555.25633316 eV

  energy without entropy =     -555.25633316  energy(sigma->0) =     -555.25633316


--------------------------------------------------------------------------------------------------------




--------------------------------------- Iteration      1(   3)  ---------------------------------------


     EDDAV:  cpu time   27.4063: real time   27.4080
       DOS:  cpu time    0.0042: real time    0.0042
    --------------------------------------------
      LOOP:  cpu time   27.4105: real time   27.4122

 eigenvalue-minimisations  : 16320
 total energy-change (2. order) :-0.4186620E+02  (-0.4160715E+02)
 number of electron     256.0000000 magnetization 
 augmentation part      256.0000000 magnetization 

 Free energy of the ion-electron system (eV)
  ---------------------------------------------------
  alpha Z        PSCENC =       904.93795581
  Ewald energy   TEWEN  =    -11061.11709803
  -Hartree energ DENC   =      -582.12263807
  -exchange      EXHF   =         0.00000000
  -V(xc)+E(xc)   XCENC  =       912.14760070
  PAW double counting   =      2421.21235816    -2494.84305711
  entropy T*S    EENTRO =        -0.00000000
  eigenvalues    EBANDS =      -113.47998541
  atomic energy  EATOM  =      9416.14232778
  Solvation  Ediel_sol  =         0.00000000
  ---------------------------------------------------
  free energy    TOTEN  =      -597.12253619 eV

  energy without entropy =     -597.12253619  energy(sigma->0) =     -597.12253619


--------------------------------------------------------------------------------------------------------




--------------------------------------- Iteration      1(   4)  ---------------------------------------


     EDDAV:  cpu time   27.3965: real time   27.3983
       DOS:  cpu time    0.0037: real time    0.0037
    --------------------------------------------
      LOOP:  cpu time   27.4002: real time   27.4020

 eigenvalue-minimisations  : 16256
 total energy-change (2. order) :-0.4615902E+00  (-0.4607071E+00)
 number of electron     256.0000000 magnetization 
 augmentation part      256.0000000 magnetization 

 Free energy of the ion-electron system (eV)
  ---------------------------------------------------
  alpha Z        PSCENC =       904.93795581
  Ewald energy   TEWEN  =    -11061.11709803
  -Hartree energ DENC   =      -582.12263807
  -exchange      EXHF   =         0.00000000
  -V(xc)+E(xc)   XCENC  =       912.14760070
  PAW double counting   =      2421.21235816    -2494.84305711
  entropy T*S    EENTRO =        -0.00000000
  eigenvalues    EBANDS =      -113.94157557
  atomic energy  EATOM  =      9416.14232778
  Solvation  Ediel_sol  =         0.00000000
  ---------------------------------------------------
  free energy    TOTEN  =      -597.58412635 eV

  energy without entropy =     -597.58412635  energy(sigma->0) =     -597.58412635


--------------------------------------------------------------------------------------------------------




--------------------------------------- Iteration      1(   5)  ---------------------------------------


     EDDAV:  cpu time   25.7639: real time   25.7655
       DOS:  cpu time    0.0041: real time    0.0041
    CHARGE:  cpu time    0.6483: real time    0.6486
    MIXING:  cpu time    0.0041: real time    0.0041
    --------------------------------------------
      LOOP:  cpu time   26.4205: real time   26.4223

 eigenvalue-minimisations  : 15232
 total energy-change (2. order) :-0.9100214E-02  (-0.9096570E-02)
 number of electron     255.9999994 magnetization 
 augmentation part        6.2226819 magnetization 

 Broyden mixing:
  rms(total) = 0.26666E+01    rms(broyden)= 0.26660E+01
  rms(prec ) = 0.39049E+01
  weight for this iteration     100.00

 Free energy of the ion-electron system (eV)
  ---------------------------------------------------
  alpha Z        PSCENC =       904.93795581
  Ewald energy   TEWEN  =    -11061.11709803
  -Hartree energ DENC   =      -582.12263807
  -exchange      EXHF   =         0.00000000
  -V(xc)+E(xc)   XCENC  =       912.14760070
  PAW double counting   =      2421.21235816    -2494.84305711
  entropy T*S    EENTRO =        -0.00000000
  eigenvalues    EBANDS =      -113.95067579
  atomic energy  EATOM  =      9416.14232778
  Solvation  Ediel_sol  =         0.00000000
  ---------------------------------------------------
  free energy    TOTEN  =      -597.59322657 eV

  energy without entropy =     -597.59322657  energy(sigma->0) =     -597.59322657


--------------------------------------------------------------------------------------------------------




--------------------------------------- Iteration      1(   6)  ---------------------------------------


    POTLOK:  cpu time    0.0598: real time    0.0602
    SETDIJ:  cpu time    0.0411: real time    0.0411
     EDDAV:  cpu time   24.9364: real time   24.9377
       DOS:  cpu time    0.0115: real time    0.0115
    CHARGE:  cpu time    0.6520: real time    0.6520
    MIXING:  cpu time    0.0040: real time    0.0040
    --------------------------------------------
      LOOP:  cpu time   25.7047: real time   25.7065

 eigenvalue-minimisations  : 14624
 total energy-change (2. order) : 0.1503752E+02  (-0.1013513E+01)
 number of electron     255.9999994 magnetization 
 augmentation part        6.0786003 magnetization 

 Broyden mixing:
  rms(total) = 0.14636E+01    rms(broyden)= 0.14635E+01
  rms(prec ) = 0.21222E+01
  weight for this iteration     100.00

 eigenvalues of (default mixing * dielectric matrix)
  average eigenvalue GAMMA=   2.1695
  2.1695

 Free energy of the ion-electron system (eV)
  ---------------------------------------------------
  alpha Z        PSCENC =       904.93795581
  Ewald energy   TEWEN  =    -11061.11709803
  -Hartree energ DENC   =      -703.74827812
  -exchange      EXHF   =         0.00000000
  -V(xc)+E(xc)   XCENC  =       923.41680092
  PAW double counting   =      3134.52513671    -3212.39025479
  entropy T*S    EENTRO =        -0.00000000
  eigenvalues    EBANDS =        15.67770585
  atomic energy  EATOM  =      9416.14232778
  Solvation  Ediel_sol  =         0.00000000
  ---------------------------------------------------
  free energy    TOTEN  =      -582.55570386 eV

  energy without entropy =     -582.55570386  energy(sigma->0) =     -582.55570386


--------------------------------------------------------------------------------------------------------




--------------------------------------- Iteration      1(   7)  ---------------------------------------


    POTLOK:  cpu time    0.0617: real time    0.0621
    SETDIJ:  cpu time    0.0410: real time    0.0409
     EDDAV:  cpu time   25.5677: real time   25.5689
       DOS:  cpu time    0.0039: real time    0.0039
    CHARGE:  cpu time    0.6560: real time    0.6561
    MIXING:  cpu time    0.0044: real time    0.0044
    --------------------------------------------
      LOOP:  cpu time   26.3346: real time   26.3362

 eigenvalue-minimisations  : 14976
 total energy-change (2. order) : 0.5043276E+01  (-0.1184852E+01)
 number of electron     255.9999994 magnetization 
 augmentation part        5.9264355 magnetization 

 Broyden mixing:
  rms(total) = 0.19940E+00    rms(broyden)= 0.19842E+00
  rms(prec ) = 0.24522E+00
  weight for this iteration     100.00

 eigenvalues of (default mixing * dielectric matrix)
  average eigenvalue GAMMA=   2.2773
  2.0517  2.5030

 Free energy of the ion-electron system (eV)
  ---------------------------------------------------
  alpha Z        PSCENC =       904.93795581
  Ewald energy   TEWEN  =    -11061.11709803
  -Hartree energ DENC   =      -859.09573642
  -exchange      EXHF   =         0.00000000
  -V(xc)+E(xc)   XCENC  =       937.99454220
  PAW double counting   =      4103.84433913    -4185.73675469
  entropy T*S    EENTRO =        -0.00000000
  eigenvalues    EBANDS =       165.51799646
  atomic energy  EATOM  =      9416.14232778
  Solvation  Ediel_sol  =         0.00000000
  ---------------------------------------------------
  free energy    TOTEN  =      -577.51242775 eV

  energy without entropy =     -577.51242775  energy(sigma->0) =     -577.51242775


--------------------------------------------------------------------------------------------------------




--------------------------------------- Iteration      1(   8)  ---------------------------------------


    POTLOK:  cpu time    0.0591: real time    0.0594
    SETDIJ:  cpu time    0.0405: real time    0.0405
     EDDAV:  cpu time   26.2173: real time   26.2186
       DOS:  cpu time    0.0039: real time    0.0039
    CHARGE:  cpu time    0.6545: real time    0.6546
    MIXING:  cpu time    0.0048: real time    0.0048
    --------------------------------------------
      LOOP:  cpu time   26.9801: real time   26.9818

 eigenvalue-minimisations  : 15488
 total energy-change (2. order) :-0.6687434E-01  (-0.3642194E-01)
 number of electron     255.9999994 magnetization 
 augmentation part        5.9341194 magnetization 

 Broyden mixing:
  rms(total) = 0.22324E-01    rms(broyden)= 0.22037E-01
  rms(prec ) = 0.27418E-01
  weight for this iteration     100.00

 eigenvalues of (default mixing * dielectric matrix)
  average eigenvalue GAMMA=   2.0649
  1.4555  2.6536  2.0856

 Free energy of the ion-electron system (eV)
  ---------------------------------------------------
  alpha Z        PSCENC =       904.93795581
  Ewald energy   TEWEN  =    -11061.11709803
  -Hartree energ DENC   =      -861.02974046
  -exchange      EXHF   =         0.00000000
  -V(xc)+E(xc)   XCENC  =       938.22224206
  PAW double counting   =      4168.02635953    -4248.84579953
  entropy T*S    EENTRO =        -0.00000000
  eigenvalues    EBANDS =       166.08445074
  atomic energy  EATOM  =      9416.14232778
  Solvation  Ediel_sol  =         0.00000000
  ---------------------------------------------------
  free energy    TOTEN  =      -577.57930210 eV

  energy without entropy =     -577.57930210  energy(sigma->0) =     -577.57930210


--------------------------------------------------------------------------------------------------------




--------------------------------------- Iteration      1(   9)  ---------------------------------------


    POTLOK:  cpu time    0.0574: real time    0.0578
    SETDIJ:  cpu time    0.0409: real time    0.0409
     EDDAV:  cpu time   26.6466: real time   26.6479
       DOS:  cpu time    0.0040: real time    0.0040
    CHARGE:  cpu time    0.6474: real time    0.6474
    MIXING:  cpu time    0.0045: real time    0.0045
    --------------------------------------------
      LOOP:  cpu time   27.4007: real time   27.4024

 eigenvalue-minimisations  : 15712
 total energy-change (2. order) :-0.2364103E-02  (-0.4494231E-03)
 number of electron     255.9999994 magnetization 
 augmentation part        5.9327245 magnetization 

 Broyden mixing:
  rms(total) = 0.10070E-01    rms(broyden)= 0.10047E-01
  rms(prec ) = 0.12432E-01
  weight for this iteration     100.00

 eigenvalues of (default mixing * dielectric matrix)
  average eigenvalue GAMMA=   1.9968
  0.9560  2.6880  2.3551  1.9879

 Free energy of the ion-electron system (eV)
  ---------------------------------------------------
  alpha Z        PSCENC =       904.93795581
  Ewald energy   TEWEN  =    -11061.11709803
  -Hartree energ DENC   =      -861.31585116
  -exchange      EXHF   =         0.00000000
  -V(xc)+E(xc)   XCENC  =       938.24878377
  PAW double counting   =      4167.91641372    -4248.67169524
  entropy T*S    EENTRO =        -0.00000000
  eigenvalues    EBANDS =       166.27749715
  atomic energy  EATOM  =      9416.14232778
  Solvation  Ediel_sol  =         0.00000000
  ---------------------------------------------------
  free energy    TOTEN  =      -577.58166620 eV

  energy without entropy =     -577.58166620  energy(sigma->0) =     -577.58166620


--------------------------------------------------------------------------------------------------------




--------------------------------------- Iteration      1(  10)  ---------------------------------------


    POTLOK:  cpu time    0.0608: real time    0.0611
    SETDIJ:  cpu time    0.0397: real time    0.0397
     EDDAV:  cpu time   26.1285: real time   26.1298
       DOS:  cpu time    0.0038: real time    0.0038
    CHARGE:  cpu time    0.6437: real time    0.6437
    MIXING:  cpu time    0.0050: real time    0.0050
    --------------------------------------------
      LOOP:  cpu time   26.8815: real time   26.8832

 eigenvalue-minimisations  : 15232
 total energy-change (2. order) :-0.5221328E-03  (-0.3682404E-04)
 number of electron     255.9999994 magnetization 
 augmentation part        5.9326046 magnetization 

 Broyden mixing:
  rms(total) = 0.12174E-02    rms(broyden)= 0.12065E-02
  rms(prec ) = 0.16450E-02
  weight for this iteration     100.00

 eigenvalues of (default mixing * dielectric matrix)
  average eigenvalue GAMMA=   1.9363
  2.8761  2.5317  2.0502  0.9937  1.2295

 Free energy of the ion-electron system (eV)
  ---------------------------------------------------
  alpha Z        PSCENC =       904.93795581
  Ewald energy   TEWEN  =    -11061.11709803
  -Hartree energ DENC   =      -861.67198560
  -exchange      EXHF   =         0.00000000
  -V(xc)+E(xc)   XCENC  =       938.27913615
  PAW double counting   =      4164.62440082    -4245.38412704
  entropy T*S    EENTRO =        -0.00000000
  eigenvalues    EBANDS =       166.60720178
  atomic energy  EATOM  =      9416.14232778
  Solvation  Ediel_sol  =         0.00000000
  ---------------------------------------------------
  free energy    TOTEN  =      -577.58218833 eV

  energy without entropy =     -577.58218833  energy(sigma->0) =     -577.58218833


--------------------------------------------------------------------------------------------------------




--------------------------------------- Iteration      1(  11)  ---------------------------------------


    POTLOK:  cpu time    0.0598: real time    0.0602
    SETDIJ:  cpu time    0.0401: real time    0.0401
     EDDAV:  cpu time   27.1923: real time   27.1937
       DOS:  cpu time    0.0039: real time    0.0039
    CHARGE:  cpu time    0.6575: real time    0.6575
    MIXING:  cpu time    0.0049: real time    0.0049
    --------------------------------------------
      LOOP:  cpu time   27.9585: real time   27.9603

 eigenvalue-minimisations  : 15968
 total energy-change (2. order) :-0.1861093E-04  (-0.1665773E-05)
 number of electron     255.9999994 magnetization 
 augmentation part        5.9324658 magnetization 

 Broyden mixing:
  rms(total) = 0.39873E-03    rms(broyden)= 0.39554E-03
  rms(prec ) = 0.47477E-03
  weight for this iteration     100.00

 eigenvalues of (default mixing * dielectric matrix)
  average eigenvalue GAMMA=   1.9979
  2.9070  2.5145  2.5145  2.0444  0.9818  1.0255

 Free energy of the ion-electron system (eV)
  ---------------------------------------------------
  alpha Z        PSCENC =       904.93795581
  Ewald energy   TEWEN  =    -11061.11709803
  -Hartree energ DENC   =      -861.78587149
  -exchange      EXHF   =         0.00000000
  -V(xc)+E(xc)   XCENC  =       938.28929251
  PAW double counting   =      4164.45963461    -4245.22251437
  entropy T*S    EENTRO =        -0.00000000
  eigenvalues    EBANDS =       166.71406624
  atomic energy  EATOM  =      9416.14232778
  Solvation  Ediel_sol  =         0.00000000
  ---------------------------------------------------
  free energy    TOTEN  =      -577.58220694 eV

  energy without entropy =     -577.58220694  energy(sigma->0) =     -577.58220694


--------------------------------------------------------------------------------------------------------




--------------------------------------- Iteration      1(  12)  ---------------------------------------


    POTLOK:  cpu time    0.0589: real time    0.0592
    SETDIJ:  cpu time    0.0404: real time    0.0404
     EDDAV:  cpu time   26.7795: real time   26.7808
       DOS:  cpu time    0.0040: real time    0.0040
    CHARGE:  cpu time    0.6452: real time    0.6453
    MIXING:  cpu time    0.0051: real time    0.0051
    --------------------------------------------
      LOOP:  cpu time   27.5331: real time   27.5349

 eigenvalue-minimisations  : 15680
 total energy-change (2. order) :-0.2828765E-06  (-0.6347030E-07)
 number of electron     255.9999994 magnetization 
 augmentation part        5.9324740 magnetization 

 Broyden mixing:
  rms(total) = 0.41422E-04    rms(broyden)= 0.33990E-04
  rms(prec ) = 0.42352E-04
  weight for this iteration     100.00
  WARNING: grid for Broyden might be to small

 eigenvalues of (default mixing * dielectric matrix)
  average eigenvalue GAMMA=   1.9124
  2.8694  2.4844  2.3994  2.0189  1.0053  1.0053  1.6043

 Free energy of the ion-electron system (eV)
  ---------------------------------------------------
  alpha Z        PSCENC =       904.93795581
  Ewald energy   TEWEN  =    -11061.11709803
  -Hartree energ DENC   =      -861.77449385
  -exchange      EXHF   =         0.00000000
  -V(xc)+E(xc)   XCENC  =       938.28821097
  PAW double counting   =      4164.47017534    -4245.23159974
  entropy T*S    EENTRO =        -0.00000000
  eigenvalues    EBANDS =       166.70231449
  atomic energy  EATOM  =      9416.14232778
  Solvation  Ediel_sol  =         0.00000000
  ---------------------------------------------------
  free energy    TOTEN  =      -577.58220723 eV

  energy without entropy =     -577.58220723  energy(sigma->0) =     -577.58220723


--------------------------------------------------------------------------------------------------------




--------------------------------------- Iteration      1(  13)  ---------------------------------------


    POTLOK:  cpu time    0.0591: real time    0.0594
    SETDIJ:  cpu time    0.0397: real time    0.0397
     EDDAV:  cpu time   24.3307: real time   24.3320
       DOS:  cpu time    0.0039: real time    0.0039
    --------------------------------------------
      LOOP:  cpu time   24.4335: real time   24.4350

 eigenvalue-minimisations  : 13536
 total energy-change (2. order) : 0.3747118E-08  (-0.1595672E-08)
 number of electron     255.9999994 magnetization 
 augmentation part        5.9324740 magnetization 

 Free energy of the ion-electron system (eV)
  ---------------------------------------------------
  alpha Z        PSCENC =       904.93795581
  Ewald energy   TEWEN  =    -11061.11709803
  -Hartree energ DENC   =      -861.77564768
  -exchange      EXHF   =         0.00000000
  -V(xc)+E(xc)   XCENC  =       938.28832598
  PAW double counting   =      4164.48251595    -4245.24405456
  entropy T*S    EENTRO =        -0.00000000
  eigenvalues    EBANDS =       166.70346753
  atomic energy  EATOM  =      9416.14232778
  Solvation  Ediel_sol  =         0.00000000
  ---------------------------------------------------
  free energy    TOTEN  =      -577.58220722 eV

  energy without entropy =     -577.58220722  energy(sigma->0) =     -577.58220722


--------------------------------------------------------------------------------------------------------




 average (electrostatic) potential at core
  the test charge radii are     0.6991
  (the norm of the test charge is              1.0000)
       1 -45.6099       2 -45.6099       3 -45.6099       4 -45.6099       5 -45.6099
       6 -45.6099       7 -45.6099       8 -45.6099       9 -45.6099      10 -45.6099
      11 -45.6099      12 -45.6099      13 -45.6099      14 -45.6099      15 -45.6099
      16 -45.6099      17 -45.6099      18 -45.6099      19 -45.6099      20 -45.6099
      21 -45.6099      22 -45.6099      23 -45.6099      24 -45.6099      25 -45.6099
      26 -45.6099      27 -45.6099      28 -45.6099      29 -45.6099      30 -45.6099
      31 -45.6099      32 -45.6099      33 -45.6099      34 -45.6099      35 -45.6099
      36 -45.6099      37 -45.6099      38 -45.6099      39 -45.6099      40 -45.6099
      41 -45.6099      42 -45.6099      43 -45.6099      44 -45.6099      45 -45.6099
      46 -45.6099      47 -45.6099      48 -45.6099      49 -45.6099      50 -45.6099
      51 -45.6099      52 -45.6099      53 -45.6099      54 -45.6099      55 -45.6099
      56 -45.6099      57 -45.6099      58 -45.6099      59 -45.6099      60 -45.6099
      61 -45.6099      62 -45.6099      63 -45.6099      64 -45.6099
 
 
 
 E-fermi :   9.8740     XC(G=0): -13.1432     alpha+bet :-17.4211


 k-point     1 :       0.0000    0.0000    0.0000
  band No.  band energies     occupation 
      1     -11.7644      2.00000
      2      -9.5059      2.00000
      3      -9.5059      2.00000
      4      -9.5059      2.00000
      5      -9.5059      2.00000
      6      -9.5059      2.00000
      7      -9.5059      2.00000
      8      -7.6143      2.00000
      9      -7.6143      2.00000
     10      -7.6143      2.00000
     11      -7.6143      2.00000
     12      -7.6143      2.00000
     13      -7.6143      2.00000
     14      -7.0968      2.00000
     15      -7.0968      2.00000
     16      -7.0968      2.00000
     17      -7.0968      2.00000
     18      -7.0968      2.00000
     19      -7.0968      2.00000
     20      -7.0604      2.00000
     21      -5.7337      2.00000
     22      -5.7337      2.00000
     23      -5.7337      2.00000
     24      -3.7127      2.00000
     25      -3.7127      2.00000
     26      -3.7127      2.00000
     27      -3.5974      2.00000
     28      -3.4004      2.00000
     29      -3.4004      2.00000
     30      -3.4004      2.00000
     31      -2.9952      2.00000
     32      -2.9952      2.00000
     33      -2.9952      2.00000
     34      -2.9952      2.00000
     35      -2.9952      2.00000
     36      -2.9952      2.00000
     37      -2.9113      2.00000
     38      -2.9113      2.00000
     39      -2.9113      2.00000
     40      -1.7480      2.00000
     41      -1.7480      2.00000
     42      -1.7480      2.00000
     43      -1.7480      2.00000
     44      -1.7480      2.00000
     45      -1.7480      2.00000
     46       0.7616      2.00000
     47       0.7616      2.00000
     48       0.7616      2.00000
     49       0.7616      2.00000
     50       0.7616      2.00000
     51       0.7616      2.00000
     52       0.8809      2.00000
     53       0.8809      2.00000
     54       0.8809      2.00000
     55       0.8809      2.00000
     56       0.8809      2.00000
     57       0.8809      2.00000
     58       1.3521      2.00000
     59       1.3521      2.00000
     60       1.3521      2.00000
     61       1.3521      2.00000
     62       1.3521      2.00000
     63       1.3521      2.00000
     64       1.3792      2.00000
     65       1.3792      2.00000
     66       1.3792      2.00000
     67       1.3792      2.00000
     68       1.3792      2.00000
     69       1.3792      2.00000
     70       2.0861      2.00000
     71       2.0861      2.00000
     72       2.0861      2.00000
     73       2.0861      2.00000
     74       2.0861      2.00000
     75       2.0861      2.00000
     76       2.1582      2.00000
     77       2.1582      2.00000
     78       2.1582      2.00000
     79       2.1582      2.00000
     80       2.1582      2.00000
     81       2.1582      2.00000
     82       2.9372      2.00000
     83       2.9372      2.00000
     84       2.9372      2.00000
     85       3.8068      2.00000
     86       3.8068      2.00000
     87       3.8068      2.00000
     88       4.9063      2.00000
     89       4.9063      2.00000
     90       4.9063      2.00000
     91       4.9063      2.00000
     92       4.9063      2.00000
     93       4.9063      2.00000
     94       5.1538      2.00000
     95       5.1538      2.00000
     96       5.1538      2.00000
     97       5.1538      2.00000
     98       5.1538      2.00000
     99       5.1538      2.00000
    100       5.8737      2.00000
    101       5.8737      2.00000
    102       5.8737      2.00000
    103       5.8737      2.00000
    104       5.8737      2.00000
    105       5.8737      2.00000
    106       6.4458      2.00000
    107       6.4458      2.00000
    108       6.4458      2.00000
    109       6.4458      2.00000
    110       6.4458      2.00000
    111       6.4458      2.00000
    112       6.5036      2.00000
    113       6.5036      2.00000
    114       6.5036      2.00000
    115       6.6638      2.00000
    116       6.6638      2.00000
    117       6.6638      2.00000
    118       6.7583      2.00000
    119       6.7583      2.00000
    120       6.7583      2.00000
    121       6.7583      2.00000
    122       6.7583      2.00000
    123       6.7583      2.00000
    124       7.4256      2.00000
    125       7.4256      2.00000
    126       9.3737      2.00000
    127       9.6003      2.00000
    128       9.6003      2.00000
    129      13.3584      0.00000
    130      13.3713      0.00000
    131      13.3713      0.00000
    132      13.3713      0.00000
    133      13.8990      0.00000
    134      13.8990      0.00000
    135      13.8990      0.00000
    136      13.8990      0.00000
    137      13.8990      0.00000
    138      13.8990      0.00000
    139      15.2194      0.00000
    140      15.2194      0.00000
    141      15.2194      0.00000
    142      15.8281      0.00000
    143      15.8281      0.00000
    144      16.3331      0.00000
    145      16.3331      0.00000
    146      16.3331      0.00000
    147      16.6468      0.00000
    148      16.6468      0.00000
    149      16.6468      0.00000
    150      16.6468      0.00000
    151      16.6468      0.00000
    152      16.6468      0.00000
    153      17.9275      0.00000
    154      17.9275      0.00000
    155      17.9275      0.00000
    156      17.9275      0.00000
    157      17.9275      0.00000
    158      17.9275      0.00000
    159      18.3542      0.00000
    160      18.3542      0.00000
    161      18.3892      0.00000
    162      18.3892      0.00000
    163      18.3892      0.00000
    164      18.5891      0.00000
    165      18.5891      0.00000
    166      18.5891      0.00000
    167      18.7264      0.00000
    168      18.7264      0.00000
    169      18.7264      0.00000
    170      18.7264      0.00000
    171      18.7264      0.00000
    172      18.7264      0.00000
    173      19.3997      0.00000
    174      19.3997      0.00000
    175      19.3997      0.00000
    176      19.3999      0.00000
    177      19.4001      0.00000
    178      19.4004      0.00000
    179      19.5031      0.00000
    180      19.5032      0.00000
    181      19.5032      0.00000
    182      19.5039      0.00000
    183      19.5047      0.00000
    184      19.5060      0.00000
    185      19.7657      0.00000
    186      19.7667      0.00000
    187      19.7688      0.00000
    188      19.7798      0.00000
    189      19.8046      0.00000
[...]
      4.846498  1.195170  6.267523     0.029764    0.028312   -0.004039  
      1.435998  4.780679  6.267523     0.029764    0.028312   -0.004039  
      5.025998  4.780679  6.267523     0.029764    0.028312   -0.004039  
      0.089750  1.792754  0.000000    -0.073625   -0.070031   -0.008699  
      3.679749  1.792754  0.000000    -0.073625   -0.070031   -0.008699  
      0.269249  5.378263  0.000000    -0.073625   -0.070031   -0.008699  
      3.859249  5.378263  0.000000    -0.073625   -0.070031   -0.008699  
      0.269249  1.963493  3.581442     0.073625    0.070031    0.008699  
      3.859249  1.963493  3.581442     0.073625    0.070031    0.008699  
      0.448749  5.549002  3.581442     0.073625    0.070031    0.008699  
      4.038748  5.549002  3.581442     0.073625    0.070031    0.008699  
      2.961749  2.817186  2.686081    -0.029764   -0.028312    0.004039  
      6.551748  2.817186  2.686081    -0.029764   -0.028312    0.004039  
      3.141248  6.402695  2.686081    -0.029764   -0.028312    0.004039  
      6.731248  6.402695  2.686081    -0.029764   -0.028312    0.004039  
      3.141248  2.987924  6.267523     0.029764    0.028312   -0.004039  
      6.731248  2.987924  6.267523     0.029764    0.028312   -0.004039  
      3.320748  6.573433  6.267523     0.029764    0.028312   -0.004039  
      6.910747  6.573433  6.267523     0.029764    0.028312   -0.004039  
      1.795000  0.000000  0.000000    -0.073625   -0.070031   -0.008699  
      5.384999  0.000000  0.000000    -0.073625   -0.070031   -0.008699  
      1.974499  3.585509  0.000000    -0.073625   -0.070031   -0.008699  
      5.564499  3.585509  0.000000    -0.073625   -0.070031   -0.008699  
      1.974499  0.170739  3.581442     0.073625    0.070031    0.008699  
      5.564499  0.170739  3.581442     0.073625    0.070031    0.008699  
      2.153999  3.756248  3.581442     0.073625    0.070031    0.008699  
      5.743998  3.756248  3.581442     0.073625    0.070031    0.008699  
      2.782249  0.939062  0.895360    -0.122227   -0.116261   -0.033017  
      6.372249  0.939062  0.895360    -0.122227   -0.116261   -0.033017  
      2.961749  4.524571  0.895360    -0.122227   -0.116261   -0.033017  
      6.551748  4.524571  0.895360    -0.122227   -0.116261   -0.033017  
      2.961749  1.109801  4.476802     0.122227    0.116261    0.033017  
      6.551748  1.109801  4.476802     0.122227    0.116261    0.033017  
      3.141248  4.695310  4.476802     0.122227    0.116261    0.033017  
      6.731248  4.695310  4.476802     0.122227    0.116261    0.033017  
      1.974499  1.878124  1.790721    -0.102004   -0.097025   -0.032105  
      5.564499  1.878124  1.790721    -0.102004   -0.097025   -0.032105  
      2.153999  5.463633  1.790721    -0.102004   -0.097025   -0.032105  
      5.743998  5.463633  1.790721    -0.102004   -0.097025   -0.032105  
      2.153999  2.048863  5.372162     0.102004    0.097025    0.032105  
      5.743998  2.048863  5.372162     0.102004    0.097025    0.032105  
      2.333498  5.634372  5.372162     0.102004    0.097025    0.032105  
      5.923497  5.634372  5.372162     0.102004    0.097025    0.032105  
 
 190 f  =    0.000004 THz     0.000024 2PiTHz    0.000125 cm-1     0.000016 meV
             X         Y         Z           dx          dy          dz
      1.076999  2.731816  0.895360    -0.097452   -0.053388   -0.057252  
      4.666999  2.731816  0.895360    -0.097452   -0.053388   -0.057252  
      1.256499  6.317325  0.895360    -0.097452   -0.053388   -0.057252  
      4.846498  6.317325  0.895360    -0.097452   -0.053388   -0.057252  
      1.256499  2.902555  4.476802    -0.097452   -0.053388   -0.057252  
      4.846498  2.902555  4.476802    -0.097452   -0.053388   -0.057252  
      1.435998  6.488064  4.476802    -0.097452   -0.053388   -0.057252  
      5.025998  6.488064  4.476802    -0.097452   -0.053388   -0.057252  
      0.089750  0.085369  1.790721    -0.097452   -0.053388   -0.057252  
      3.679749  0.085369  1.790721    -0.097452   -0.053388   -0.057252  
      0.269249  3.670878  1.790721    -0.097452   -0.053388   -0.057252  
      3.859249  3.670878  1.790721    -0.097452   -0.053388   -0.057252  
      0.269249  0.256108  5.372162    -0.097452   -0.053388   -0.057252  
      3.859249  0.256108  5.372162    -0.097452   -0.053388   -0.057252  
      0.448749  3.841617  5.372162    -0.097452   -0.053388   -0.057252  
      4.038748  3.841617  5.372162    -0.097452   -0.053388   -0.057252  
      1.076999  1.024431  2.686081    -0.097452   -0.053388   -0.057252  
      4.666999  1.024431  2.686081    -0.097452   -0.053388   -0.057252  
      1.256499  4.609940  2.686081    -0.097452   -0.053388   -0.057252  
      4.846498  4.609940  2.686081    -0.097452   -0.053388   -0.057252  
      1.256499  1.195170  6.267523    -0.097452   -0.053388   -0.057252  
      4.846498  1.195170  6.267523    -0.097452   -0.053388   -0.057252  
      1.435998  4.780679  6.267523    -0.097452   -0.053388   -0.057252  
      5.025998  4.780679  6.267523    -0.097452   -0.053388   -0.057252  
      0.089750  1.792754  0.000000    -0.097452   -0.053388   -0.057252  
      3.679749  1.792754  0.000000    -0.097452   -0.053388   -0.057252  
      0.269249  5.378263  0.000000    -0.097452   -0.053388   -0.057252  
      3.859249  5.378263  0.000000    -0.097452   -0.053388   -0.057252  
      0.269249  1.963493  3.581442    -0.097452   -0.053388   -0.057252  
      3.859249  1.963493  3.581442    -0.097452   -0.053388   -0.057252  
      0.448749  5.549002  3.581442    -0.097452   -0.053388   -0.057252  
      4.038748  5.549002  3.581442    -0.097452   -0.053388   -0.057252  
      2.961749  2.817186  2.686081    -0.097452   -0.053388   -0.057252  
      6.551748  2.817186  2.686081    -0.097452   -0.053388   -0.057252  
      3.141248  6.402695  2.686081    -0.097452   -0.053388   -0.057252  
      6.731248  6.402695  2.686081    -0.097452   -0.053388   -0.057252  
      3.141248  2.987924  6.267523    -0.097452   -0.053388   -0.057252  
      6.731248  2.987924  6.267523    -0.097452   -0.053388   -0.057252  
      3.320748  6.573433  6.267523    -0.097452   -0.053388   -0.057252  
      6.910747  6.573433  6.267523    -0.097452   -0.053388   -0.057252  
      1.795000  0.000000  0.000000    -0.097452   -0.053388   -0.057252  
      5.384999  0.000000  0.000000    -0.097452   -0.053388   -0.057252  
      1.974499  3.585509  0.000000    -0.097452   -0.053388   -0.057252  
      5.564499  3.585509  0.000000    -0.097452   -0.053388   -0.057252  
      1.974499  0.170739  3.581442    -0.097452   -0.053388   -0.057252  
      5.564499  0.170739  3.581442    -0.097452   -0.053388   -0.057252  
      2.153999  3.756248  3.581442    -0.097452   -0.053388   -0.057252  
      5.743998  3.756248  3.581442    -0.097452   -0.053388   -0.057252  
      2.782249  0.939062  0.895360    -0.097452   -0.053388   -0.057252  
      6.372249  0.939062  0.895360    -0.097452   -0.053388   -0.057252  
      2.961749  4.524571  0.895360    -0.097452   -0.053388   -0.057252  
      6.551748  4.524571  0.895360    -0.097452   -0.053388   -0.057252  
      2.961749  1.109801  4.476802    -0.097452   -0.053388   -0.057252  
      6.551748  1.109801  4.476802    -0.097452   -0.053388   -0.057252  
      3.141248  4.695310  4.476802    -0.097452   -0.053388   -0.057252  
      6.731248  4.695310  4.476802    -0.097452   -0.053388   -0.057252  
      1.974499  1.878124  1.790721    -0.097452   -0.053388   -0.057252  
      5.564499  1.878124  1.790721    -0.097452   -0.053388   -0.057252  
      2.153999  5.463633  1.790721    -0.097452   -0.053388   -0.057252  
      5.743998  5.463633  1.790721    -0.097452   -0.053388   -0.057252  
      2.153999  2.048863  5.372162    -0.097452   -0.053388   -0.057252  
      5.743998  2.048863  5.372162    -0.097452   -0.053388   -0.057252  
      2.333498  5.634372  5.372162    -0.097452   -0.053388   -0.057252  
      5.923497  5.634372  5.372162    -0.097452   -0.053388   -0.057252  
 
 191 f  =    0.000002 THz     0.000011 2PiTHz    0.000057 cm-1     0.000007 meV
             X         Y         Z           dx          dy          dz
      1.076999  2.731816  0.895360    -0.078230    0.063092    0.074327  
      4.666999  2.731816  0.895360    -0.078230    0.063092    0.074327  
      1.256499  6.317325  0.895360    -0.078230    0.063092    0.074327  
      4.846498  6.317325  0.895360    -0.078230    0.063092    0.074327  
      1.256499  2.902555  4.476802    -0.078230    0.063092    0.074327  
      4.846498  2.902555  4.476802    -0.078230    0.063092    0.074327  
      1.435998  6.488064  4.476802    -0.078230    0.063092    0.074327  
      5.025998  6.488064  4.476802    -0.078230    0.063092    0.074327  
      0.089750  0.085369  1.790721    -0.078230    0.063092    0.074327  
      3.679749  0.085369  1.790721    -0.078230    0.063092    0.074327  
      0.269249  3.670878  1.790721    -0.078230    0.063092    0.074327  
      3.859249  3.670878  1.790721    -0.078230    0.063092    0.074327  
      0.269249  0.256108  5.372162    -0.078230    0.063092    0.074327  
      3.859249  0.256108  5.372162    -0.078230    0.063092    0.074327  
      0.448749  3.841617  5.372162    -0.078230    0.063092    0.074327  
      4.038748  3.841617  5.372162    -0.078230    0.063092    0.074327  
      1.076999  1.024431  2.686081    -0.078230    0.063092    0.074327  
      4.666999  1.024431  2.686081    -0.078230    0.063092    0.074327  
      1.256499  4.609940  2.686081    -0.078230    0.063092    0.074327  
      4.846498  4.609940  2.686081    -0.078230    0.063092    0.074327  
      1.256499  1.195170  6.267523    -0.078230    0.063092    0.074327  
      4.846498  1.195170  6.267523    -0.078230    0.063092    0.074327  
      1.435998  4.780679  6.267523    -0.078230    0.063092    0.074327  
      5.025998  4.780679  6.267523    -0.078230    0.063092    0.074327  
      0.089750  1.792754  0.000000    -0.078230    0.063092    0.074327  
      3.679749  1.792754  0.000000    -0.078230    0.063092    0.074327  
      0.269249  5.378263  0.000000    -0.078230    0.063092    0.074327  
      3.859249  5.378263  0.000000    -0.078230    0.063092    0.074327  
      0.269249  1.963493  3.581442    -0.078230    0.063092    0.074327  
      3.859249  1.963493  3.581442    -0.078230    0.063092    0.074327  
      0.448749  5.549002  3.581442    -0.078230    0.063092    0.074327  
      4.038748  5.549002  3.581442    -0.078230    0.063092    0.074327  
      2.961749  2.817186  2.686081    -0.078230    0.063092    0.074327  
      6.551748  2.817186  2.686081    -0.078230    0.063092    0.074327  
      3.141248  6.402695  2.686081    -0.078230    0.063092    0.074327  
      6.731248  6.402695  2.686081    -0.078230    0.063092    0.074327  
      3.141248  2.987924  6.267523    -0.078230    0.063092    0.074327  
      6.731248  2.987924  6.267523    -0.078230    0.063092    0.074327  
      3.320748  6.573433  6.267523    -0.078230    0.063092    0.074327  
      6.910747  6.573433  6.267523    -0.078230    0.063092    0.074327  
      1.795000  0.000000  0.000000    -0.078230    0.063092    0.074327  
      5.384999  0.000000  0.000000    -0.078230    0.063092    0.074327  
      1.974499  3.585509  0.000000    -0.078230    0.063092    0.074327  
      5.564499  3.585509  0.000000    -0.078230    0.063092    0.074327  
      1.974499  0.170739  3.581442    -0.078230    0.063092    0.074327  
      5.564499  0.170739  3.581442    -0.078230    0.063092    0.074327  
      2.153999  3.756248  3.581442    -0.078230    0.063092    0.074327  
      5.743998  3.756248  3.581442    -0.078230    0.063092    0.074327  
      2.782249  0.939062  0.895360    -0.078230    0.063092    0.074327  
      6.372249  0.939062  0.895360    -0.078230    0.063092    0.074327  
      2.961749  4.524571  0.895360    -0.078230    0.063092    0.074327  
      6.551748  4.524571  0.895360    -0.078230    0.063092    0.074327  
      2.961749  1.109801  4.476802    -0.078230    0.063092    0.074327  
      6.551748  1.109801  4.476802    -0.078230    0.063092    0.074327  
      3.141248  4.695310  4.476802    -0.078230    0.063092    0.074327  
      6.731248  4.695310  4.476802    -0.078230    0.063092    0.074327  
      1.974499  1.878124  1.790721    -0.078230    0.063092    0.074327  
      5.564499  1.878124  1.790721    -0.078230    0.063092    0.074327  
      2.153999  5.463633  1.790721    -0.078230    0.063092    0.074327  
      5.743998  5.463633  1.790721    -0.078230    0.063092    0.074327  
      2.153999  2.048863  5.372162    -0.078230    0.063092    0.074327  
      5.743998  2.048863  5.372162    -0.078230    0.063092    0.074327  
      2.333498  5.634372  5.372162    -0.078230    0.063092    0.074327  
      5.923497  5.634372  5.372162    -0.078230    0.063092    0.074327  
 
 192 f/i=    0.000001 THz     0.000006 2PiTHz    0.000033 cm-1     0.000004 meV
             X         Y         Z           dx          dy          dz
      1.076999  2.731816  0.895360    -0.002848    0.093777   -0.082600  
      4.666999  2.731816  0.895360    -0.002848    0.093777   -0.082600  
      1.256499  6.317325  0.895360    -0.002848    0.093777   -0.082600  
      4.846498  6.317325  0.895360    -0.002848    0.093777   -0.082600  
      1.256499  2.902555  4.476802    -0.002848    0.093777   -0.082600  
      4.846498  2.902555  4.476802    -0.002848    0.093777   -0.082600  
      1.435998  6.488064  4.476802    -0.002848    0.093777   -0.082600  
      5.025998  6.488064  4.476802    -0.002848    0.093777   -0.082600  
      0.089750  0.085369  1.790721    -0.002848    0.093777   -0.082600  
      3.679749  0.085369  1.790721    -0.002848    0.093777   -0.082600  
      0.269249  3.670878  1.790721    -0.002848    0.093777   -0.082600  
      3.859249  3.670878  1.790721    -0.002848    0.093777   -0.082600  
      0.269249  0.256108  5.372162    -0.002848    0.093777   -0.082600  
      3.859249  0.256108  5.372162    -0.002848    0.093777   -0.082600  
      0.448749  3.841617  5.372162    -0.002848    0.093777   -0.082600  
      4.038748  3.841617  5.372162    -0.002848    0.093777   -0.082600  
      1.076999  1.024431  2.686081    -0.002848    0.093777   -0.082600  
      4.666999  1.024431  2.686081    -0.002848    0.093777   -0.082600  
      1.256499  4.609940  2.686081    -0.002848    0.093777   -0.082600  
      4.846498  4.609940  2.686081    -0.002848    0.093777   -0.082600  
      1.256499  1.195170  6.267523    -0.002848    0.093777   -0.082600  
      4.846498  1.195170  6.267523    -0.002848    0.093777   -0.082600  
      1.435998  4.780679  6.267523    -0.002848    0.093777   -0.082600  
      5.025998  4.780679  6.267523    -0.002848    0.093777   -0.082600  
      0.089750  1.792754  0.000000    -0.002848    0.093777   -0.082600  
      3.679749  1.792754  0.000000    -0.002848    0.093777   -0.082600  
      0.269249  5.378263  0.000000    -0.002848    0.093777   -0.082600  
      3.859249  5.378263  0.000000    -0.002848    0.093777   -0.082600  
      0.269249  1.963493  3.581442    -0.002848    0.093777   -0.082600  
      3.859249  1.963493  3.581442    -0.002848    0.093777   -0.082600  
      0.448749  5.549002  3.581442    -0.002848    0.093777   -0.082600  
      4.038748  5.549002  3.581442    -0.002848    0.093777   -0.082600  
      2.961749  2.817186  2.686081    -0.002848    0.093777   -0.082600  
      6.551748  2.817186  2.686081    -0.002848    0.093777   -0.082600  
      3.141248  6.402695  2.686081    -0.002848    0.093777   -0.082600  
      6.731248  6.402695  2.686081    -0.002848    0.093777   -0.082600  
      3.141248  2.987924  6.267523    -0.002848    0.093777   -0.082600  
      6.731248  2.987924  6.267523    -0.002848    0.093777   -0.082600  
      3.320748  6.573433  6.267523    -0.002848    0.093777   -0.082600  
      6.910747  6.573433  6.267523    -0.002848    0.093777   -0.082600  
      1.795000  0.000000  0.000000    -0.002848    0.093777   -0.082600  
      5.384999  0.000000  0.000000    -0.002848    0.093777   -0.082600  
      1.974499  3.585509  0.000000    -0.002848    0.093777   -0.082600  
      5.564499  3.585509  0.000000    -0.002848    0.093777   -0.082600  
      1.974499  0.170739  3.581442    -0.002848    0.093777   -0.082600  
      5.564499  0.170739  3.581442    -0.002848    0.093777   -0.082600  
      2.153999  3.756248  3.581442    -0.002848    0.093777   -0.082600  
      5.743998  3.756248  3.581442    -0.002848    0.093777   -0.082600  
      2.782249  0.939062  0.895360    -0.002848    0.093777   -0.082600  
      6.372249  0.939062  0.895360    -0.002848    0.093777   -0.082600  
      2.961749  4.524571  0.895360    -0.002848    0.093777   -0.082600  
      6.551748  4.524571  0.895360    -0.002848    0.093777   -0.082600  
      2.961749  1.109801  4.476802    -0.002848    0.093777   -0.082600  
      6.551748  1.109801  4.476802    -0.002848    0.093777   -0.082600  
      3.141248  4.695310  4.476802    -0.002848    0.093777   -0.082600  
      6.731248  4.695310  4.476802    -0.002848    0.093777   -0.082600  
      1.974499  1.878124  1.790721    -0.002848    0.093777   -0.082600  
      5.564499  1.878124  1.790721    -0.002848    0.093777   -0.082600  
      2.153999  5.463633  1.790721    -0.002848    0.093777   -0.082600  
      5.743998  5.463633  1.790721    -0.002848    0.093777   -0.082600  
      2.153999  2.048863  5.372162    -0.002848    0.093777   -0.082600  
      5.743998  2.048863  5.372162    -0.002848    0.093777   -0.082600  
      2.333498  5.634372  5.372162    -0.002848    0.093777   -0.082600  
      5.923497  5.634372  5.372162    -0.002848    0.093777   -0.082600  
 


--------------------------------------------------------------------------------------------------------



 ELASTIC MODULI CONTR FROM IONIC RELAXATION (kBar)
 Direction    XX          YY          ZZ          XY          YZ          ZX
 --------------------------------------------------------------------------------
 XX        -104.5949    -88.7531    -86.2845    -67.5167    -25.8914    -64.3623
 YY         -88.7531    -92.2761    -82.7177    -55.5182    -65.0310    -31.2178
 ZZ         -86.2845    -82.7177    -81.0253    -35.6231    -52.9684    -55.6944
 XY         -67.5167    -55.5182    -35.6231   -124.2460     19.3861     22.2383
 YZ         -25.8914    -65.0310    -52.9684     19.3861   -128.1134     17.4461
 ZX         -64.3623    -31.2178    -55.6944     22.2383     17.4461   -126.3724
 --------------------------------------------------------------------------------



--------------------------------------------------------------------------------------------------------


     LOOP+:  cpu time 1147.7945: real time 1148.2677
    4ORBIT:  cpu time    0.0000: real time    0.0000

 total amount of memory used by VASP MPI-rank0    83596. kBytes
=======================================================================

   base      :      30000. kBytes
   nonl-proj :      20742. kBytes
   fftplans  :       4537. kBytes
   grid      :       5806. kBytes
   one-center:        196. kBytes
   wavefun   :      22315. kBytes
 
  
  
 General timing and accounting informations for this job:
 ========================================================
  
                  Total CPU time used (sec):     1160.189
                            User time (sec):     1153.621
                          System time (sec):        6.568
                         Elapsed time (sec):     1160.909
  
                   Maximum memory used (kb):      432240.
                   Average memory used (kb):           0.
  
                          Minor page faults:        39315
                          Major page faults:           37
                 Voluntary context switches:          845
