# Thermal properties / unit cell (natom)

unit:
  temperature:   K
  free_energy:   kJ/mol
  entropy:       J/K/mol
  heat_capacity: J/K/mol

natom: 8    
cutoff_frequency:    0.000
num_modes: 2654208
num_integrated_modes: 2654208

zero_point_energy:     136.6276290
high_T_entropy:        436.7199841

thermal_properties:
- temperature:         0.0000000
  free_energy:       136.6276290
  entropy:             0.0000000
  heat_capacity:       0.0000000
  energy:            136.6276290

- temperature:         2.0000000
  free_energy:       136.6276290
  entropy:             0.0000000
  heat_capacity:       0.0000000
  energy:            136.6276290

- temperature:         4.0000000
  free_energy:       136.6276290
  entropy:             0.0000095
  heat_capacity:       0.0000588
  energy:            136.6276291

- temperature:         6.0000000
  free_energy:       136.6276289
  entropy:             0.0000758
  heat_capacity:       0.0003227
  energy:            136.6276294

- temperature:         8.0000000
  free_energy:       136.6276287
  entropy:             0.0002310
  heat_capacity:       0.0008246
  energy:            136.6276305

- temperature:        10.0000000
  free_energy:       136.6276279
  entropy:             0.0004952
  heat_capacity:       0.0016310
  energy:            136.6276329

- temperature:        12.0000000
  free_energy:       136.6276266
  entropy:             0.0008917
  heat_capacity:       0.0028268
  energy:            136.6276373

- temperature:        14.0000000
  free_energy:       136.6276243
  entropy:             0.0014462
  heat_capacity:       0.0044954
  energy:            136.6276445

- temperature:        16.0000000
  free_energy:       136.6276207
  entropy:             0.0021850
  heat_capacity:       0.0067193
  energy:            136.6276556

- temperature:        18.0000000
  free_energy:       136.6276154
  entropy:             0.0031350
  heat_capacity:       0.0095810
  energy:            136.6276718

- temperature:        20.0000000
  free_energy:       136.6276080
  entropy:             0.0043232
  heat_capacity:       0.0131641
  energy:            136.6276944

- temperature:        22.0000000
  free_energy:       136.6275979
  entropy:             0.0057770
  heat_capacity:       0.0175532
  energy:            136.6277250

- temperature:        24.0000000
  free_energy:       136.6275847
  entropy:             0.0075240
  heat_capacity:       0.0228347
  energy:            136.6277652

- temperature:        26.0000000
  free_energy:       136.6275676
  entropy:             0.0095921
  heat_capacity:       0.0290966
  energy:            136.6278170

- temperature:        28.0000000
  free_energy:       136.6275461
  entropy:             0.0120099
  heat_capacity:       0.0364290
  energy:            136.6278823

- temperature:        30.0000000
  free_energy:       136.6275193
  entropy:             0.0148060
  heat_capacity:       0.0449247
  energy:            136.6279635

- temperature:        32.0000000
  free_energy:       136.6274866
  entropy:             0.0180097
  heat_capacity:       0.0546787
  energy:            136.6280629

- temperature:        34.0000000
  free_energy:       136.6274470
  entropy:             0.0216508
  heat_capacity:       0.0657895
  energy:            136.6281831

- temperature:        36.0000000
  free_energy:       136.6273997
  entropy:             0.0257599
  heat_capacity:       0.0783591
  energy:            136.6283270

- temperature:        38.0000000
  free_energy:       136.6273436
  entropy:             0.0303679
  heat_capacity:       0.0924937
  energy:            136.6284976

- temperature:        40.0000000
  free_energy:       136.6272778
  entropy:             0.0355068
  heat_capacity:       0.1083043
  energy:            136.6286981

- temperature:        42.0000000
  free_energy:       136.6272012
  entropy:             0.0412094
  heat_capacity:       0.1259076
  energy:            136.6289320

- temperature:        44.0000000
  free_energy:       136.6271126
  entropy:             0.0475095
  heat_capacity:       0.1454267
  energy:            136.6292030

- temperature:        46.0000000
  free_energy:       136.6270108
  entropy:             0.0544419
  heat_capacity:       0.1669921
  energy:            136.6295151

- temperature:        48.0000000
  free_energy:       136.6268944
  entropy:             0.0620428
  heat_capacity:       0.1907425
  energy:            136.6298724

- temperature:        50.0000000
  free_energy:       136.6267621
  entropy:             0.0703499
  heat_capacity:       0.2168258
  energy:            136.6302796

- temperature:        52.0000000
  free_energy:       136.6266125
  entropy:             0.0794022
  heat_capacity:       0.2453999
  energy:            136.6307414

- temperature:        54.0000000
  free_energy:       136.6264440
  entropy:             0.0892407
  heat_capacity:       0.2766330
  energy:            136.6312630

- temperature:        56.0000000
  free_energy:       136.6262550
  entropy:             0.0999081
  heat_capacity:       0.3107046
  energy:            136.6318498

- temperature:        58.0000000
  free_energy:       136.6260438
  entropy:             0.1114491
  heat_capacity:       0.3478052
  energy:            136.6325078

- temperature:        60.0000000
  free_energy:       136.6258086
  entropy:             0.1239106
  heat_capacity:       0.3881362
  energy:            136.6332432

- temperature:        62.0000000
  free_energy:       136.6255475
  entropy:             0.1373416
  heat_capacity:       0.4319102
  energy:            136.6340627

- temperature:        64.0000000
  free_energy:       136.6252585
  entropy:             0.1517933
  heat_capacity:       0.4793498
  energy:            136.6349733

- temperature:        66.0000000
  free_energy:       136.6249396
  entropy:             0.1673192
  heat_capacity:       0.5306868
  energy:            136.6359827

- temperature:        68.0000000
  free_energy:       136.6245885
  entropy:             0.1839751
  heat_capacity:       0.5861615
  energy:            136.6370988

- temperature:        70.0000000
  free_energy:       136.6242029
  entropy:             0.2018189
  heat_capacity:       0.6460211
  energy:            136.6383302

- temperature:        72.0000000
  free_energy:       136.6237804
  entropy:             0.2209109
  heat_capacity:       0.7105186
  energy:            136.6396860

- temperature:        74.0000000
  free_energy:       136.6233184
  entropy:             0.2413133
  heat_capacity:       0.7799109
  energy:            136.6411756

- temperature:        76.0000000
  free_energy:       136.6228142
  entropy:             0.2630900
  heat_capacity:       0.8544573
  energy:            136.6428090

- temperature:        78.0000000
  free_energy:       136.6222651
  entropy:             0.2863069
  heat_capacity:       0.9344181
  energy:            136.6445970

- temperature:        80.0000000
  free_energy:       136.6216680
  entropy:             0.3110316
  heat_capacity:       1.0200529
  energy:            136.6465505

- temperature:        82.0000000
  free_energy:       136.6210199
  entropy:             0.3373327
  heat_capacity:       1.1116185
  energy:            136.6486812

- temperature:        84.0000000
  free_energy:       136.6203175
  entropy:             0.3652804
  heat_capacity:       1.2093682
  energy:            136.6510011

- temperature:        86.0000000
  free_energy:       136.6195576
  entropy:             0.3949455
  heat_capacity:       1.3135494
  energy:            136.6535229

- temperature:        88.0000000
  free_energy:       136.6187366
  entropy:             0.4263997
  heat_capacity:       1.4244032
  energy:            136.6562597

- temperature:        90.0000000
  free_energy:       136.6178508
  entropy:             0.4597152
  heat_capacity:       1.5421624
  energy:            136.6592251

- temperature:        92.0000000
  free_energy:       136.6168964
  entropy:             0.4949644
  heat_capacity:       1.6670508
  energy:            136.6624331

- temperature:        94.0000000
  free_energy:       136.6158696
  entropy:             0.5322198
  heat_capacity:       1.7992823
  energy:            136.6658982

- temperature:        96.0000000
  free_energy:       136.6147662
  entropy:             0.5715536
  heat_capacity:       1.9390599
  energy:            136.6696353

- temperature:        98.0000000
  free_energy:       136.6135819
  entropy:             0.6130378
  heat_capacity:       2.0865749
  energy:            136.6736596

- temperature:       100.0000000
  free_energy:       136.6123125
  entropy:             0.6567436
  heat_capacity:       2.2420069
  energy:            136.6779869

- temperature:       102.0000000
  free_energy:       136.6109534
  entropy:             0.7027414
  heat_capacity:       2.4055228
  energy:            136.6826331

- temperature:       104.0000000
  free_energy:       136.6095000
  entropy:             0.7511008
  heat_capacity:       2.5772769
  energy:            136.6876145

- temperature:       106.0000000
  free_energy:       136.6079474
  entropy:             0.8018900
  heat_capacity:       2.7574105
  energy:            136.6929477

- temperature:       108.0000000
  free_energy:       136.6062908
  entropy:             0.8551761
  heat_capacity:       2.9460522
  energy:            136.6986498

- temperature:       110.0000000
  free_energy:       136.6045250
  entropy:             0.9110247
  heat_capacity:       3.1433174
  energy:            136.7047377

- temperature:       112.0000000
  free_energy:       136.6026449
  entropy:             0.9694996
  heat_capacity:       3.3493090
  energy:            136.7112289

- temperature:       114.0000000
  free_energy:       136.6006452
  entropy:             1.0306633
  heat_capacity:       3.5641171
  energy:            136.7181408

- temperature:       116.0000000
  free_energy:       136.5985204
  entropy:             1.0945762
  heat_capacity:       3.7878195
  energy:            136.7254913

- temperature:       118.0000000
  free_energy:       136.5962650
  entropy:             1.1612970
  heat_capacity:       4.0204821
  energy:            136.7332981

- temperature:       120.0000000
  free_energy:       136.5938733
  entropy:             1.2308823
  heat_capacity:       4.2621588
  energy:            136.7415792

- temperature:       122.0000000
  free_energy:       136.5913396
  entropy:             1.3033869
  heat_capacity:       4.5128925
  energy:            136.7503527

- temperature:       124.0000000
  free_energy:       136.5886578
  entropy:             1.3788632
  heat_capacity:       4.7727151
  energy:            136.7596368

- temperature:       126.0000000
  free_energy:       136.5858221
  entropy:             1.4573619
  heat_capacity:       5.0416479
  energy:            136.7694497

- temperature:       128.0000000
  free_energy:       136.5828263
  entropy:             1.5389313
  heat_capacity:       5.3197023
  energy:            136.7798095

- temperature:       130.0000000
  free_energy:       136.5796643
  entropy:             1.6236176
  heat_capacity:       5.6068802
  energy:            136.7907346

- temperature:       132.0000000
  free_energy:       136.5763297
  entropy:             1.7114650
  heat_capacity:       5.9031740
  energy:            136.8022431

- temperature:       134.0000000
  free_energy:       136.5728163
  entropy:             1.8025153
  heat_capacity:       6.2085677
  energy:            136.8143533

- temperature:       136.0000000
  free_energy:       136.5691175
  entropy:             1.8968083
  heat_capacity:       6.5230370
  energy:            136.8270834

- temperature:       138.0000000
  free_energy:       136.5652269
  entropy:             1.9943815
  heat_capacity:       6.8465495
  energy:            136.8404515

- temperature:       140.0000000
  free_energy:       136.5611378
  entropy:             2.0952704
  heat_capacity:       7.1790656
  energy:            136.8544756

- temperature:       142.0000000
  free_energy:       136.5568435
  entropy:             2.1995084
  heat_capacity:       7.5205386
  energy:            136.8691737

- temperature:       144.0000000
  free_energy:       136.5523375
  entropy:             2.3071267
  heat_capacity:       7.8709152
  energy:            136.8845637

- temperature:       146.0000000
  free_energy:       136.5476128
  entropy:             2.4181543
  heat_capacity:       8.2301357
  energy:            136.9006633

- temperature:       148.0000000
  free_energy:       136.5426626
  entropy:             2.5326185
  heat_capacity:       8.5981346
  energy:            136.9174901

- temperature:       150.0000000
  free_energy:       136.5374800
  entropy:             2.6505444
  heat_capacity:       8.9748407
  energy:            136.9350616

- temperature:       152.0000000
  free_energy:       136.5320581
  entropy:             2.7719550
  heat_capacity:       9.3601776
  energy:            136.9533952

- temperature:       154.0000000
  free_energy:       136.5263898
  entropy:             2.8968716
  heat_capacity:       9.7540640
  energy:            136.9725081

- temperature:       156.0000000
  free_energy:       136.5204682
  entropy:             3.0253134
  heat_capacity:      10.1564138
  energy:            136.9924171

- temperature:       158.0000000
  free_energy:       136.5142862
  entropy:             3.1572980
  heat_capacity:      10.5671365
  energy:            137.0131393

- temperature:       160.0000000
  free_energy:       136.5078367
  entropy:             3.2928408
  heat_capacity:      10.9861376
  energy:            137.0346912

- temperature:       162.0000000
  free_energy:       136.5011125
  entropy:             3.4319557
  heat_capacity:      11.4133186
  energy:            137.0570893

- temperature:       164.0000000
  free_energy:       136.4941065
  entropy:             3.5746549
  heat_capacity:      11.8485774
  energy:            137.0803499

- temperature:       166.0000000
  free_energy:       136.4868115
  entropy:             3.7209486
  heat_capacity:      12.2918084
  energy:            137.1044889

- temperature:       168.0000000
  free_energy:       136.4792203
  entropy:             3.8708457
  heat_capacity:      12.7429028
  energy:            137.1295223

- temperature:       170.0000000
  free_energy:       136.4713257
  entropy:             4.0243531
  heat_capacity:      13.2017488
  energy:            137.1554657

- temperature:       172.0000000
  free_energy:       136.4631204
  entropy:             4.1814766
  heat_capacity:      13.6682317
  energy:            137.1823344

- temperature:       174.0000000
  free_energy:       136.4545973
  entropy:             4.3422201
  heat_capacity:      14.1422341
  energy:            137.2101436

- temperature:       176.0000000
  free_energy:       136.4457491
  entropy:             4.5065860
  heat_capacity:      14.6236364
  energy:            137.2389083

- temperature:       178.0000000
  free_energy:       136.4365686
  entropy:             4.6745756
  heat_capacity:      15.1123162
  energy:            137.2686430

- temperature:       180.0000000
  free_energy:       136.4270484
  entropy:             4.8461883
  heat_capacity:      15.6081493
  energy:            137.2993623

- temperature:       182.0000000
  free_energy:       136.4171814
  entropy:             5.0214225
  heat_capacity:      16.1110093
  energy:            137.3310803

- temperature:       184.0000000
  free_energy:       136.4069603
  entropy:             5.2002752
  heat_capacity:      16.6207681
  energy:            137.3638110

- temperature:       186.0000000
  free_energy:       136.3963779
  entropy:             5.3827419
  heat_capacity:      17.1372957
  energy:            137.3975679

- temperature:       188.0000000
  free_energy:       136.3854269
  entropy:             5.5688171
  heat_capacity:      17.6604606
  energy:            137.4323646

- temperature:       190.0000000
  free_energy:       136.3741002
  entropy:             5.7584939
  heat_capacity:      18.1901297
  energy:            137.4682141

- temperature:       192.0000000
  free_energy:       136.3623906
  entropy:             5.9517643
  heat_capacity:      18.7261688
  energy:            137.5051293

- temperature:       194.0000000
  free_energy:       136.3502908
  entropy:             6.1486192
  heat_capacity:      19.2684422
  energy:            137.5431229

- temperature:       196.0000000
  free_energy:       136.3377937
  entropy:             6.3490482
  heat_capacity:      19.8168134
  energy:            137.5822072

- temperature:       198.0000000
  free_energy:       136.3248922
  entropy:             6.5530400
  heat_capacity:      20.3711448
  energy:            137.6223941

- temperature:       200.0000000
  free_energy:       136.3115792
  entropy:             6.7605822
  heat_capacity:      20.9312979
  energy:            137.6636956

- temperature:       202.0000000
  free_energy:       136.2978475
  entropy:             6.9716613
  heat_capacity:      21.4971334
  energy:            137.7061231

- temperature:       204.0000000
  free_energy:       136.2836902
  entropy:             7.1862630
  heat_capacity:      22.0685116
  energy:            137.7496879

- temperature:       206.0000000
  free_energy:       136.2691001
  entropy:             7.4043720
  heat_capacity:      22.6452921
  energy:            137.7944008

- temperature:       208.0000000
  free_energy:       136.2540704
  entropy:             7.6259719
  heat_capacity:      23.2273341
  energy:            137.8402725

- temperature:       210.0000000
  free_energy:       136.2385939
  entropy:             7.8510456
  heat_capacity:      23.8144964
  energy:            137.8873135

- temperature:       212.0000000
  free_energy:       136.2226639
  entropy:             8.0795752
  heat_capacity:      24.4066377
  energy:            137.9355338

- temperature:       214.0000000
  free_energy:       136.2062734
  entropy:             8.3115418
  heat_capacity:      25.0036166
  energy:            137.9849433

- temperature:       216.0000000
  free_energy:       136.1894155
  entropy:             8.5469258
  heat_capacity:      25.6052916
  energy:            138.0355514

- temperature:       218.0000000
  free_energy:       136.1720834
  entropy:             8.7857069
  heat_capacity:      26.2115212
  energy:            138.0873675

- temperature:       220.0000000
  free_energy:       136.1542704
  entropy:             9.0278640
  heat_capacity:      26.8221643
  energy:            138.1404005

- temperature:       222.0000000
  free_energy:       136.1359697
  entropy:             9.2733753
  heat_capacity:      27.4370798
  energy:            138.1946590

- temperature:       224.0000000
  free_energy:       136.1171747
  entropy:             9.5222182
  heat_capacity:      28.0561270
  energy:            138.2501515

- temperature:       226.0000000
  free_energy:       136.0978786
  entropy:             9.7743697
  heat_capacity:      28.6791657
  energy:            138.3068862

- temperature:       228.0000000
  free_energy:       136.0780750
  entropy:            10.0298061
  heat_capacity:      29.3060562
  energy:            138.3648708

- temperature:       230.0000000
  free_energy:       136.0577572
  entropy:            10.2885029
  heat_capacity:      29.9366593
  energy:            138.4241129

- temperature:       232.0000000
  free_energy:       136.0369188
  entropy:            10.5504352
  heat_capacity:      30.5708364
  energy:            138.4846198

- temperature:       234.0000000
  free_energy:       136.0155533
  entropy:            10.8155777
  heat_capacity:      31.2084499
  energy:            138.5463985

- temperature:       236.0000000
  free_energy:       135.9936544
  entropy:            11.0839042
  heat_capacity:      31.8493627
  energy:            138.6094558

- temperature:       238.0000000
  free_energy:       135.9712156
  entropy:            11.3553885
  heat_capacity:      32.4934388
  energy:            138.6737981

- temperature:       240.0000000
  free_energy:       135.9482307
  entropy:            11.6300034
  heat_capacity:      33.1405431
  energy:            138.7394316

- temperature:       242.0000000
  free_energy:       135.9246935
  entropy:            11.9077217
  heat_capacity:      33.7905414
  energy:            138.8063622

- temperature:       244.0000000
  free_energy:       135.9005978
  entropy:            12.1885154
  heat_capacity:      34.4433007
  energy:            138.8745956

- temperature:       246.0000000
  free_energy:       135.8759374
  entropy:            12.4723565
  heat_capacity:      35.0986891
  energy:            138.9441371

- temperature:       248.0000000
  free_energy:       135.8507064
  entropy:            12.7592162
  heat_capacity:      35.7565758
  energy:            139.0149920

- temperature:       250.0000000
  free_energy:       135.8248986
  entropy:            13.0490657
  heat_capacity:      36.4168314
  energy:            139.0871650

- temperature:       252.0000000
  free_energy:       135.7985081
  entropy:            13.3418757
  heat_capacity:      37.0793276
  energy:            139.1606608

- temperature:       254.0000000
  free_energy:       135.7715291
  entropy:            13.6376166
  heat_capacity:      37.7439378
  energy:            139.2354837

- temperature:       256.0000000
  free_energy:       135.7439557
  entropy:            13.9362584
  heat_capacity:      38.4105364
  energy:            139.3116379

- temperature:       258.0000000
  free_energy:       135.7157822
  entropy:            14.2377711
  heat_capacity:      39.0789995
  energy:            139.3891271

- temperature:       260.0000000
  free_energy:       135.6870027
  entropy:            14.5421242
  heat_capacity:      39.7492045
  energy:            139.4679550

- temperature:       262.0000000
  free_energy:       135.6576118
  entropy:            14.8492871
  heat_capacity:      40.4210305
  energy:            139.5481250

- temperature:       264.0000000
  free_energy:       135.6276037
  entropy:            15.1592288
  heat_capacity:      41.0943579
  energy:            139.6296402

- temperature:       266.0000000
  free_energy:       135.5969731
  entropy:            15.4719185
  heat_capacity:      41.7690691
  energy:            139.7125034

- temperature:       268.0000000
  free_energy:       135.5657143
  entropy:            15.7873247
  heat_capacity:      42.4450478
  energy:            139.7967173

- temperature:       270.0000000
  free_energy:       135.5338220
  entropy:            16.1054162
  heat_capacity:      43.1221793
  energy:            139.8822843

- temperature:       272.0000000
  free_energy:       135.5012908
  entropy:            16.4261613
  heat_capacity:      43.8003510
  energy:            139.9692067

- temperature:       274.0000000
  free_energy:       135.4681156
  entropy:            16.7495284
  heat_capacity:      44.4794515
  energy:            140.0574864

- temperature:       276.0000000
  free_energy:       135.4342910
  entropy:            17.0754857
  heat_capacity:      45.1593714
  energy:            140.1471250

- temperature:       278.0000000
  free_energy:       135.3998119
  entropy:            17.4040014
  heat_capacity:      45.8400031
  energy:            140.2381243

- temperature:       280.0000000
  free_energy:       135.3646733
  entropy:            17.7350434
  heat_capacity:      46.5212405
  energy:            140.3304855

- temperature:       282.0000000
  free_energy:       135.3288701
  entropy:            18.0685799
  heat_capacity:      47.2029797
  energy:            140.4242096

- temperature:       284.0000000
  free_energy:       135.2923973
  entropy:            18.4045786
  heat_capacity:      47.8851182
  energy:            140.5192976

- temperature:       286.0000000
  free_energy:       135.2552502
  entropy:            18.7430074
  heat_capacity:      48.5675556
  energy:            140.6157503

- temperature:       288.0000000
  free_energy:       135.2174237
  entropy:            19.0838344
  heat_capacity:      49.2501930
  energy:            140.7135680

- temperature:       290.0000000
  free_energy:       135.1789132
  entropy:            19.4270272
  heat_capacity:      49.9329337
  energy:            140.8127511

- temperature:       292.0000000
  free_energy:       135.1397140
  entropy:            19.7725538
  heat_capacity:      50.6156825
  energy:            140.9132997

- temperature:       294.0000000
  free_energy:       135.0998215
  entropy:            20.1203820
  heat_capacity:      51.2983463
  energy:            141.0152138

- temperature:       296.0000000
  free_energy:       135.0592310
  entropy:            20.4704798
  heat_capacity:      51.9808338
  energy:            141.1184930

- temperature:       298.0000000
  free_energy:       135.0179381
  entropy:            20.8228150
  heat_capacity:      52.6630553
  energy:            141.2231370

- temperature:       300.0000000
  free_energy:       134.9759383
  entropy:            21.1773557
  heat_capacity:      53.3449232
  energy:            141.3291450

- temperature:       302.0000000
  free_energy:       134.9332272
  entropy:            21.5340700
  heat_capacity:      54.0263517
  energy:            141.4365164

- temperature:       304.0000000
  free_energy:       134.8898006
  entropy:            21.8929260
  heat_capacity:      54.7072568
  energy:            141.5452501

- temperature:       306.0000000
  free_energy:       134.8456541
  entropy:            22.2538918
  heat_capacity:      55.3875563
  energy:            141.6553450

- temperature:       308.0000000
  free_energy:       134.8007836
  entropy:            22.6169357
  heat_capacity:      56.0671699
  energy:            141.7667998

- temperature:       310.0000000
  free_energy:       134.7551850
  entropy:            22.9820263
  heat_capacity:      56.7460190
  energy:            141.8796131

- temperature:       312.0000000
  free_energy:       134.7088542
  entropy:            23.3491320
  heat_capacity:      57.4240270
  energy:            141.9937833

- temperature:       314.0000000
  free_energy:       134.6617871
  entropy:            23.7182213
  heat_capacity:      58.1011189
  energy:            142.1093086

- temperature:       316.0000000
  free_energy:       134.6139800
  entropy:            24.0892632
  heat_capacity:      58.7772217
  energy:            142.2261872

- temperature:       318.0000000
  free_energy:       134.5654288
  entropy:            24.4622265
  heat_capacity:      59.4522640
  energy:            142.3444168

- temperature:       320.0000000
  free_energy:       134.5161298
  entropy:            24.8370801
  heat_capacity:      60.1261763
  energy:            142.4639955

- temperature:       322.0000000
  free_energy:       134.4660792
  entropy:            25.2137934
  heat_capacity:      60.7988906
  energy:            142.5849207

- temperature:       324.0000000
  free_energy:       134.4152734
  entropy:            25.5923357
  heat_capacity:      61.4703410
  energy:            142.7071902

- temperature:       326.0000000
  free_energy:       134.3637087
  entropy:            25.9726764
  heat_capacity:      62.1404631
  energy:            142.8308012

- temperature:       328.0000000
  free_energy:       134.3113815
  entropy:            26.3547853
  heat_capacity:      62.8091942
  energy:            142.9557511

- temperature:       330.0000000
  free_energy:       134.2582884
  entropy:            26.7386322
  heat_capacity:      63.4764733
  energy:            143.0820370

- temperature:       332.0000000
  free_energy:       134.2044259
  entropy:            27.1241871
  heat_capacity:      64.1422413
  energy:            143.2096560

- temperature:       334.0000000
  free_energy:       134.1497905
  entropy:            27.5114204
  heat_capacity:      64.8064403
  energy:            143.3386049

- temperature:       336.0000000
  free_energy:       134.0943791
  entropy:            27.9003023
  heat_capacity:      65.4690146
  energy:            143.4688807

- temperature:       338.0000000
  free_energy:       134.0381882
  entropy:            28.2908036
  heat_capacity:      66.1299095
  energy:            143.6004799

- temperature:       340.0000000
  free_energy:       133.9812148
  entropy:            28.6828951
  heat_capacity:      66.7890724
  energy:            143.7333991

- temperature:       342.0000000
  free_energy:       133.9234556
  entropy:            29.0765478
  heat_capacity:      67.4464519
  energy:            143.8676350

- temperature:       344.0000000
  free_energy:       133.8649076
  entropy:            29.4717330
  heat_capacity:      68.1019985
  energy:            144.0031837

- temperature:       346.0000000
  free_energy:       133.8055677
  entropy:            29.8684220
  heat_capacity:      68.7556640
  energy:            144.1400417

- temperature:       348.0000000
  free_energy:       133.7454329
  entropy:            30.2665867
  heat_capacity:      69.4074018
  energy:            144.2782051

- temperature:       350.0000000
  free_energy:       133.6845004
  entropy:            30.6661989
  heat_capacity:      70.0571667
  energy:            144.4176700

- temperature:       352.0000000
  free_energy:       133.6227672
  entropy:            31.0672308
  heat_capacity:      70.7049150
  energy:            144.5584324

- temperature:       354.0000000
  free_energy:       133.5602305
  entropy:            31.4696547
  heat_capacity:      71.3506045
  energy:            144.7004883

- temperature:       356.0000000
  free_energy:       133.4968877
  entropy:            31.8734432