<?xml version="1.0" encoding="ISO-8859-1"?>
<modeling>
 <generator>
  <i name="program" type="string">vasp </i>
  <i name="version" type="string">5.4.4.18Apr17-6-g9f103f2a35  </i>
  <i name="subversion" type="string">(build Mar 12 2022 03:36:41) complex            parallel </i>
  <i name="platform" type="string">IFC19.0.3.199_CrayMPICH7.7.19 </i>
  <i name="date" type="string">2022 12 02 </i>
  <i name="time" type="string">04:06:05 </i>
 </generator>
 <incar>
  <i type="string" name="PREC">accurate</i>
  <i type="int" name="IALGO">    38</i>
  <i type="logical" name="ADDGRID"> T  </i>
  <i type="int" name="IBRION">     8</i>
  <i name="EDIFF">      0.00000001</i>
  <i type="logical" name="LREAL"> F  </i>
  <i type="int" name="ISMEAR">     0</i>
  <i name="SIGMA">      0.06000000</i>
  <i type="logical" name="LWAVE"> F  </i>
  <i type="logical" name="LCHARG"> F  </i>
  <v type="int" name="KPOINT_BSE">    -1     0     0     0</v>
 </incar>
 <structure name="primitive_cell" >
  <crystal>
   <varray name="basis" >
    <v>      -0.17949947      -1.87812385      -1.79072076 </v>
    <v>      -1.88474941      -1.79275449      -0.00000000 </v>
    <v>      -1.88474941      -0.08536936      -1.79072076 </v>
   </varray>
   <i name="volume">     11.52505641 </i>
   <varray name="rec_basis" >
    <v>       0.27855158      -0.29284541      -0.27921713 </v>
    <v>      -0.27855158      -0.26495545       0.30580927 </v>
    <v>      -0.27855158       0.29284541      -0.27921723 </v>
   </varray>
  </crystal>
  <varray name="positions" >
   <v>       0.25000000       0.25000000       0.25000000 </v>
   <v>      -0.50000000      -0.50000000      -0.50000000 </v>
  </varray>
 </structure>
 <varray name="primitive_index" >
  <v type="int" >        1 </v>
  <v type="int" >       43 </v>
 </varray>
 <kpoints>
  <generation param="Gamma">
   <v type="int" name="divisions">       6        6        6 </v>
   <v name="usershift">      0.00000000       0.00000000       0.00000000 </v>
   <v name="genvec1">      0.16666667      -0.00000000      -0.00000000 </v>
   <v name="genvec2">      0.00000000       0.16666667      -0.00000000 </v>
   <v name="genvec3">      0.00000000       0.00000000       0.16666667 </v>
   <v name="shift">      0.00000000       0.00000000       0.00000000 </v>
  </generation>
  <varray name="kpointlist" >
   <v>       0.00000000       0.00000000       0.00000000 </v>
   <v>       0.16666667       0.00000000      -0.00000000 </v>
   <v>       0.33333333       0.00000000       0.00000000 </v>
   <v>       0.50000000       0.00000000       0.00000000 </v>
   <v>       0.16666667       0.16666667      -0.00000000 </v>
   <v>       0.33333333       0.16666667       0.00000000 </v>
   <v>       0.50000000       0.16666667       0.00000000 </v>
   <v>      -0.33333333       0.16666667      -0.00000000 </v>
   <v>      -0.16666667       0.16666667      -0.00000000 </v>
   <v>       0.33333333       0.33333333       0.00000000 </v>
   <v>       0.50000000       0.33333333      -0.00000000 </v>
   <v>      -0.33333333       0.33333333       0.00000000 </v>
   <v>       0.50000000       0.50000000      -0.00000000 </v>
   <v>       0.16666667       0.16666667       0.16666667 </v>
   <v>       0.33333333       0.16666667       0.16666667 </v>
   <v>       0.50000000       0.16666667       0.16666667 </v>
   <v>      -0.33333333       0.16666667       0.16666667 </v>
   <v>      -0.16666667       0.16666667       0.16666667 </v>
   <v>       0.33333333       0.33333333       0.16666667 </v>
   <v>       0.50000000       0.33333333       0.16666667 </v>
   <v>      -0.33333333       0.33333333       0.16666667 </v>
   <v>      -0.16666667       0.33333333       0.16666667 </v>
   <v>       0.50000000       0.50000000       0.16666667 </v>
   <v>      -0.33333333       0.50000000       0.16666667 </v>
   <v>      -0.16666667       0.50000000       0.16666667 </v>
   <v>      -0.33333333      -0.33333333       0.16666667 </v>
   <v>       0.33333333       0.33333333       0.33333333 </v>
   <v>       0.50000000       0.33333333       0.33333333 </v>
   <v>      -0.33333333       0.33333333       0.33333333 </v>
   <v>       0.50000000       0.50000000       0.33333333 </v>
   <v>      -0.33333333       0.50000000       0.33333333 </v>
   <v>       0.50000000       0.50000000       0.50000000 </v>
  </varray>
  <varray name="weights" >
   <v>       0.00462963 </v>
   <v>       0.02777778 </v>
   <v>       0.02777778 </v>
   <v>       0.01388889 </v>
   <v>       0.02777778 </v>
   <v>       0.05555556 </v>
   <v>       0.05555556 </v>
   <v>       0.05555556 </v>
   <v>       0.02777778 </v>
   <v>       0.02777778 </v>
   <v>       0.05555556 </v>
   <v>       0.02777778 </v>
   <v>       0.01388889 </v>
   <v>       0.00925926 </v>
   <v>       0.02777778 </v>
   <v>       0.02777778 </v>
   <v>       0.02777778 </v>
   <v>       0.02777778 </v>
   <v>       0.02777778 </v>
   <v>       0.05555556 </v>
   <v>       0.05555556 </v>
   <v>       0.05555556 </v>
   <v>       0.02777778 </v>
   <v>       0.05555556 </v>
   <v>       0.02777778 </v>
   <v>       0.02777778 </v>
   <v>       0.00925926 </v>
   <v>       0.02777778 </v>
   <v>       0.02777778 </v>
   <v>       0.02777778 </v>
   <v>       0.02777778 </v>
   <v>       0.00462963 </v>
  </varray>
 </kpoints>
 <parameters>
  <separator name="general" >
   <i type="string" name="SYSTEM">unknown system</i>
   <i type="logical" name="LCOMPAT"> F  </i>
  </separator>
  <separator name="electronic" >
   <i type="string" name="PREC">accura</i>
   <i name="ENMAX">    400.00000000</i>
   <i name="ENAUG">    644.87300000</i>
   <i name="EDIFF">      0.00000001</i>
   <i type="int" name="IALGO">    38</i>
   <i type="int" name="IWAVPR">    11</i>
   <i type="int" name="NBANDS">   192</i>
   <i name="NELECT">    256.00000000</i>
   <i type="int" name="TURBO">     0</i>
   <i type="int" name="IRESTART">     0</i>
   <i type="int" name="NREBOOT">     0</i>
   <i type="int" name="NMIN">     0</i>
   <i name="EREF">      0.00000000</i>
   <separator name="electronic smearing" >
    <i type="int" name="ISMEAR">     0</i>
    <i name="SIGMA">      0.06000000</i>
    <i name="KSPACING">      0.50000000</i>
    <i type="logical" name="KGAMMA"> T  </i>
   </separator>
   <separator name="electronic projectors" >
    <i type="logical" name="LREAL"> F  </i>
    <v name="ROPT">      0.00000000</v>
    <i type="int" name="LMAXPAW">  -100</i>
    <i type="int" name="LMAXMIX">     2</i>
    <i type="logical" name="NLSPLINE"> F  </i>
   </separator>
   <separator name="electronic startup" >
    <i type="int" name="ISTART">     0</i>
    <i type="int" name="ICHARG">     2</i>
    <i type="int" name="INIWAV">     1</i>
   </separator>
   <separator name="electronic spin" >
    <i type="int" name="ISPIN">     1</i>
    <i type="logical" name="LNONCOLLINEAR"> F  </i>
    <v name="MAGMOM">      1.00000000      1.00000000      1.00000000      1.00000000      1.00000000      1.00000000      1.00000000      1.00000000      1.00000000      1.00000000      1.00000000      1.00000000      1.00000000      1.00000000      1.00000000      1.00000000      1.00000000      1.00000000      1.00000000      1.00000000
      1.00000000      1.00000000      1.00000000      1.00000000      1.00000000      1.00000000      1.00000000      1.00000000      1.00000000      1.00000000      1.00000000      1.00000000      1.00000000      1.00000000      1.00000000      1.00000000      1.00000000      1.00000000      1.00000000      1.00000000
      1.00000000      1.00000000      1.00000000      1.00000000      1.00000000      1.00000000      1.00000000      1.00000000      1.00000000      1.00000000      1.00000000      1.00000000      1.00000000      1.00000000      1.00000000      1.00000000      1.00000000      1.00000000      1.00000000      1.00000000
      1.00000000      1.00000000      1.00000000      1.00000000</v>
    <i name="NUPDOWN">     -1.00000000</i>
    <i type="logical" name="LSORBIT"> F  </i>
    <v name="SAXIS">      0.00000000      0.00000000      1.00000000</v>
    <i type="logical" name="LSPIRAL"> F  </i>
    <v name="QSPIRAL">      0.00000000      0.00000000      0.00000000</v>
    <i type="logical" name="LZEROZ"> F  </i>
   </separator>
   <separator name="electronic exchange-correlation" >
    <i type="logical" name="LASPH"> F  </i>
    <i type="logical" name="LMETAGGA"> F  </i>
   </separator>
   <separator name="electronic convergence" >
    <i type="int" name="NELM">    60</i>
    <i type="int" name="NELMDL">    -5</i>
    <i type="int" name="NELMIN">     2</i>
    <i name="ENINI">    400.00000000</i>
    <separator name="electronic convergence detail" >
     <i type="logical" name="LDIAG"> T  </i>
     <i type="logical" name="LSUBROT"> F  </i>
     <i name="WEIMIN">      0.00100000</i>
     <i name="EBREAK">      0.00000000</i>
     <i name="DEPER">      0.30000000</i>
     <i type="int" name="NRMM">     4</i>
     <i name="TIME">      0.40000000</i>
    </separator>
   </separator>
   <separator name="electronic mixer" >
    <i name="AMIX">      0.40000000</i>
    <i name="BMIX">      1.00000000</i>
    <i name="AMIN">      0.10000000</i>
    <i name="AMIX_MAG">      1.60000000</i>
    <i name="BMIX_MAG">      1.00000000</i>
    <separator name="electronic mixer details" >
     <i type="int" name="IMIX">     4</i>
     <i type="logical" name="MIXFIRST"> F  </i>
     <i type="int" name="MAXMIX">   -45</i>
     <i name="WC">    100.00000000</i>
     <i type="int" name="INIMIX">     1</i>
     <i type="int" name="MIXPRE">     1</i>
     <i type="int" name="MREMOVE">     5</i>
    </separator>
   </separator>
   <separator name="electronic dipolcorrection" >
    <i type="logical" name="LDIPOL"> F  </i>
    <i type="logical" name="LMONO"> F  </i>
    <i type="int" name="IDIPOL">     0</i>
    <i name="EPSILON">      1.00000000</i>
    <v name="DIPOL">   -100.00000000   -100.00000000   -100.00000000</v>
    <i name="EFIELD">      0.00000000</i>
   </separator>
  </separator>
  <separator name="grids" >
   <i type="int" name="NGX">    48</i>
   <i type="int" name="NGY">    48</i>
   <i type="int" name="NGZ">    48</i>
   <i type="int" name="NGXF">    96</i>
   <i type="int" name="NGYF">    96</i>
   <i type="int" name="NGZF">    96</i>
   <i type="logical" name="ADDGRID"> T  </i>
  </separator>
  <separator name="ionic" >
   <i type="int" name="NSW">     1</i>
   <i type="int" name="IBRION">     8</i>
   <i type="int" name="MDALGO">     0</i>
   <i type="int" name="ISIF">     2</i>
   <i name="PSTRESS">      0.00000000</i>
   <i name="EDIFFG">      0.00000010</i>
   <i type="int" name="NFREE">     0</i>
   <i name="POTIM">      0.50000000</i>
   <i name="SMASS">     -3.00000000</i>
   <i name="SCALEE">      1.00000000</i>
  </separator>
  <separator name="ionic md" >
   <i name="TEBEG">      0.00010000</i>
   <i name="TEEND">      0.00010000</i>
   <i type="int" name="NBLOCK">     1</i>
   <i type="int" name="KBLOCK">     1</i>
   <i type="int" name="NPACO">   256</i>
   <i name="APACO">     16.00000000</i>
  </separator>
  <separator name="symmetry" >
   <i type="int" name="ISYM">     2</i>
   <i name="SYMPREC">      0.00001000</i>
  </separator>
  <separator name="dos" >
   <i type="int" name="LORBIT">     0</i>
   <v name="RWIGS">     -1.00000000</v>
   <i type="int" name="NEDOS">   301</i>
   <i name="EMIN">     10.00000000</i>
   <i name="EMAX">    -10.00000000</i>
   <i name="EFERMI">      0.00000000</i>
  </separator>
  <separator name="writing" >
   <i type="int" name="NWRITE">     2</i>
   <i type="logical" name="LWAVE"> F  </i>
   <i type="logical" name="LDOWNSAMPLE"> F  </i>
   <i type="logical" name="LCHARG"> F  </i>
   <i type="logical" name="LPARD"> F  </i>
   <i type="logical" name="LVTOT"> F  </i>
   <i type="logical" name="LVHAR"> F  </i>
   <i type="logical" name="LELF"> F  </i>
   <i type="logical" name="LOPTICS"> F  </i>
   <v name="STM">      0.00000000      0.00000000      0.00000000      0.00000000      0.00000000      0.00000000      0.00000000</v>
  </separator>
  <separator name="performance" >
   <i type="int" name="NPAR">    32</i>
   <i type="int" name="NSIM">     4</i>
   <i type="int" name="NBLK">    -1</i>
   <i type="logical" name="LPLANE"> T  </i>
   <i type="logical" name="LSCALAPACK"> T  </i>
   <i type="logical" name="LSCAAWARE"> F  </i>
   <i type="logical" name="LSCALU"> F  </i>
   <i type="logical" name="LASYNC"> F  </i>
   <i type="logical" name="LORBITALREAL"> F  </i>
  </separator>
  <separator name="miscellaneous" >
   <i type="int" name="IDIOT">     3</i>
   <i type="int" name="ISPECIAL">     0</i>
   <i type="logical" name="LMUSIC"> F  </i>
   <v name="POMASS">     12.01100000</v>
   <v name="DARWINR">      0.00000000</v>
   <v name="DARWINV">      1.00000000</v>
   <i type="logical" name="LCORR"> T  </i>
  </separator>
  <i type="logical" name="GGA_COMPAT"> T  </i>
  <i type="logical" name="LBERRY"> F  </i>
  <i type="int" name="ICORELEVEL">     0</i>
  <i type="logical" name="LDAU"> F  </i>
  <i type="int" name="I_CONSTRAINED_M">     0</i>
  <separator name="electronic exchange-correlation" >
   <i type="string" name="GGA">--</i>
   <i type="int" name="VOSKOWN">     0</i>
   <i type="logical" name="LHFCALC"> F  </i>
   <i type="string" name="PRECFOCK"></i>
   <i type="logical" name="LSYMGRAD"> F  </i>
   <i type="logical" name="LHFONE"> F  </i>
   <i type="logical" name="LRHFCALC"> F  </i>
   <i type="logical" name="LTHOMAS"> F  </i>
   <i type="logical" name="LMODELHF"> F  </i>
   <i name="ENCUT4O">     -1.00000000</i>
   <i type="int" name="EXXOEP">     0</i>
   <i type="int" name="FOURORBIT">     0</i>
   <i name="AEXX">      0.00000000</i>
   <i name="HFALPHA">      0.00000000</i>
   <i name="MCALPHA">      0.00000000</i>
   <i name="ALDAX">      1.00000000</i>
   <i name="AGGAX">      1.00000000</i>
   <i name="ALDAC">      1.00000000</i>
   <i name="AGGAC">      1.00000000</i>
   <i type="int" name="NKREDX">     1</i>
   <i type="int" name="NKREDY">     1</i>
   <i type="int" name="NKREDZ">     1</i>
   <i type="logical" name="SHIFTRED"> F  </i>
   <i type="logical" name="ODDONLY"> F  </i>
   <i type="logical" name="EVENONLY"> F  </i>
   <i type="int" name="LMAXFOCK">     0</i>
   <i type="int" name="NMAXFOCKAE">     0</i>
   <i type="logical" name="LFOCKAEDFT"> F  </i>
   <i name="HFSCREEN">      0.00000000</i>
   <i name="HFSCREENC">      0.00000000</i>
   <i type="int" name="NBANDSGWLOW">     0</i>
  </separator>
  <separator name="vdW DFT" >
   <i type="logical" name="LUSE_VDW"> F  </i>
   <i name="Zab_VDW">     -0.84910000</i>
   <i name="PARAM1">      0.12340000</i>
   <i name="PARAM2">      1.00000000</i>
   <i name="PARAM3">      0.00000000</i>
  </separator>
  <separator name="model GW" >
   <i type="int" name="MODEL_GW">     0</i>
   <i name="MODEL_EPS0">      3.45751692</i>
   <i name="MODEL_ALPHA">      1.00000000</i>
  </separator>
  <separator name="linear response parameters" >
   <i type="logical" name="LEPSILON"> F  </i>
   <i type="logical" name="LRPA"> F  </i>
   <i type="logical" name="LNABLA"> F  </i>
   <i type="logical" name="LVEL"> F  </i>
   <i type="int" name="KINTER">     0</i>
   <i name="CSHIFT">      0.10000000</i>
   <i name="OMEGAMAX">     -1.00000000</i>
   <i name="DEG_THRESHOLD">      0.00200000</i>
   <i name="RTIME">     -0.10000000</i>
   <i name="WPLASMAI">      0.00000000</i>
   <v name="DFIELD">      0.00000000      0.00000000      0.00000000</v>
   <v name="WPLASMA">      0.00000000      0.00000000      0.00000000      0.00000000      0.00000000      0.00000000      0.00000000      0.00000000      0.00000000</v>
  </separator>
  <separator name="orbital magnetization" >
   <i type="logical" name="NUCIND"> F  </i>
   <v name="MAGPOS">      0.00000000      0.00000000      0.00000000</v>
   <i type="logical" name="LNICSALL"> T  </i>
   <i type="logical" name="ORBITALMAG"> F  </i>
   <i type="logical" name="LMAGBLOCH"> F  </i>
   <i type="logical" name="LCHIMAG"> F  </i>
   <i type="logical" name="LGAUGE"> T  </i>
   <i type="int" name="MAGATOM">     0</i>
   <v name="MAGDIPOL">      0.00000000      0.00000000      0.00000000</v>
   <v name="AVECCONST">      0.00000000      0.00000000      0.00000000</v>
  </separator>
  <separator name="response functions" >
   <i type="logical" name="LADDER"> F  </i>
   <i type="logical" name="LRPAFORCE"> F  </i>
   <i type="logical" name="LFXC"> F  </i>
   <i type="logical" name="LHARTREE"> T  </i>
   <i type="int" name="IBSE">     0</i>
   <v type="int" name="KPOINT">    -1     0     0     0</v>
   <i type="logical" name="LTCTE"> F  </i>
   <i type="logical" name="LTETE"> F  </i>
   <i type="logical" name="LTRIPLET"> F  </i>
   <i type="logical" name="LFXCEPS"> F  </i>
   <i type="logical" name="LFXHEG"> F  </i>
   <i type="int" name="NATURALO">     2</i>
   <i type="logical" name="L2ORDER"> F  </i>
   <i type="logical" name="LMP2LT"> F  </i>
   <i type="logical" name="LUSEW"> F  </i>
   <i name="ENCUTGW">     -2.00000000</i>
   <i name="ENCUTGWSOFT">     -2.00000000</i>
   <i name="ENCUTLF">     -1.00000000</i>
   <i type="int" name="LMAXMP2">    -1</i>
   <i name="SCISSOR">      0.00000000</i>
   <i type="int" name="NOMEGA">     0</i>
   <i type="int" name="NOMEGAR">     0</i>
   <i type="int" name="NBANDSGW">    -1</i>
   <i type="int" name="NBANDSO">    -1</i>
   <i type="int" name="NBANDSV">    -1</i>
   <i type="int" name="NELM">     1</i>
   <i type="int" name="NELMHF">     1</i>
   <i type="int" name="DIM">     3</i>
   <i type="int" name="ANTIRES">     0</i>
   <i name="OMEGAMAX">    -30.00000000</i>
   <i name="OMEGAMIN">    -30.00000000</i>
   <i name="OMEGATL">   -200.00000000</i>
   <i type="int" name="OMEGAGRID">   140</i>
   <i name="CSHIFT">     -0.10000000</i>
   <i type="logical" name="SELFENERGY"> F  </i>
   <i type="logical" name="LSPECTRAL"> F  </i>
   <i type="logical" name="LSPECTRALGW"> F  </i>
   <i type="logical" name="LSINGLES"> F  </i>
   <i type="logical" name="LFERMIGW"> F  </i>
   <i type="logical" name="ODDONLYGW"> F  </i>
   <i type="logical" name="EVENONLYGW"> F  </i>
   <i type="int" name="NKREDLFX">     1</i>
   <i type="int" name="NKREDLFY">     1</i>
   <i type="int" name="NKREDLFZ">     1</i>
   <i type="int" name="MAXMEM">  2800</i>
   <i type="int" name="TELESCOPE">     0</i>
   <i type="int" name="TAUPAR">     1</i>
   <i type="int" name="OMEGAPAR">    -1</i>
   <i name="LAMBDA">      1.00000000</i>
  </separator>
  <separator name="External order field" >
   <i name="OFIELD_KAPPA">      0.00000000</i>
   <v name="OFIELD_K">      0.00000000      0.00000000      0.00000000</v>
   <i name="OFIELD_Q6_NEAR">      0.00000000</i>
   <i name="OFIELD_Q6_FAR">      0.00000000</i>
   <i name="OFIELD_A">      0.00000000</i>
  </separator>
 </parameters>
 <atominfo>
  <atoms>      64 </atoms>
  <types>       1 </types>
  <array name="atoms" >
   <dimension dim="1">ion</dimension>
   <field type="string">element</field>
   <field type="int">atomtype</field>
   <set>
    <rc><c>C </c><c>   1</c></rc>
    <rc><c>C </c><c>   1</c></rc>
    <rc><c>C </c><c>   1</c></rc>
    <rc><c>C </c><c>   1</c></rc>
    <rc><c>C </c><c>   1</c></rc>
    <rc><c>C </c><c>   1</c></rc>
    <rc><c>C </c><c>   1</c></rc>
    <rc><c>C </c><c>   1</c></rc>
    <rc><c>C </c><c>   1</c></rc>
    <rc><c>C </c><c>   1</c></rc>
    <rc><c>C </c><c>   1</c></rc>
    <rc><c>C </c><c>   1</c></rc>
    <rc><c>C </c><c>   1</c></rc>
    <rc><c>C </c><c>   1</c></rc>
    <rc><c>C </c><c>   1</c></rc>
    <rc><c>C </c><c>   1</c></rc>
    <rc><c>C </c><c>   1</c></rc>
    <rc><c>C </c><c>   1</c></rc>
    <rc><c>C </c><c>   1</c></rc>
    <rc><c>C </c><c>   1</c></rc>
    <rc><c>C </c><c>   1</c></rc>
    <rc><c>C </c><c>   1</c></rc>
    <rc><c>C </c><c>   1</c></rc>
    <rc><c>C </c><c>   1</c></rc>
    <rc><c>C </c><c>   1</c></rc>
    <rc><c>C </c><c>   1</c></rc>
    <rc><c>C </c><c>   1</c></rc>
    <rc><c>C </c><c>   1</c></rc>
    <rc><c>C </c><c>   1</c></rc>
    <rc><c>C </c><c>   1</c></rc>
    <rc><c>C </c><c>   1</c></rc>
    <rc><c>C </c><c>   1</c></rc>
    <rc><c>C </c><c>   1</c></rc>
    <rc><c>C </c><c>   1</c></rc>
    <rc><c>C </c><c>   1</c></rc>
    <rc><c>C </c><c>   1</c></rc>
    <rc><c>C </c><c>   1</c></rc>
    <rc><c>C </c><c>   1</c></rc>
    <rc><c>C </c><c>   1</c></rc>
    <rc><c>C </c><c>   1</c></rc>
    <rc><c>C </c><c>   1</c></rc>
    <rc><c>C </c><c>   1</c></rc>
    <rc><c>C </c><c>   1</c></rc>
    <rc><c>C </c><c>   1</c></rc>
    <rc><c>C </c><c>   1</c></rc>
    <rc><c>C </c><c>   1</c></rc>
    <rc><c>C </c><c>   1</c></rc>
    <rc><c>C </c><c>   1</c></rc>
    <rc><c>C </c><c>   1</c></rc>
    <rc><c>C </c><c>   1</c></rc>
    <rc><c>C </c><c>   1</c></rc>
    <rc><c>C </c><c>   1</c></rc>
    <rc><c>C </c><c>   1</c></rc>
    <rc><c>C </c><c>   1</c></rc>
    <rc><c>C </c><c>   1</c></rc>
    <rc><c>C </c><c>   1</c></rc>
    <rc><c>C </c><c>   1</c></rc>
    <rc><c>C </c><c>   1</c></rc>
    <rc><c>C </c><c>   1</c></rc>
    <rc><c>C </c><c>   1</c></rc>
    <rc><c>C </c><c>   1</c></rc>
    <rc><c>C </c><c>   1</c></rc>
    <rc><c>C </c><c>   1</c></rc>
    <rc><c>C </c><c>   1</c></rc>
   </set>
  </array>
  <array name="atomtypes" >
   <dimension dim="1">type</dimension>
   <field type="int">atomspertype</field>
   <field type="string">element</field>
   <field>mass</field>
   <field>valence</field>
   <field type="string">pseudopotential</field>
   <set>
    <rc><c>  64</c><c>C </c><c>     12.01100000</c><c>      4.00000000</c><c> PAW_PBE C 08Apr2002                    </c></rc>
   </set>
  </array>
 </atominfo>
 <structure name="initialpos" >
  <crystal>
   <varray name="basis" >
    <v>       7.17999872       0.00000000       0.00000000 </v>
    <v>       0.35899893       7.17101797       0.00000000 </v>
    <v>       0.35899893       0.34147743       7.16288306 </v>
   </varray>
   <i name="volume">    368.80180525 </i>
   <varray name="rec_basis" >
    <v>       0.13927579      -0.00697249      -0.00664801 </v>
    <v>       0.00000000       0.13945022      -0.00664804 </v>
    <v>       0.00000000       0.00000000       0.13960859 </v>
   </varray>
  </crystal>
  <varray name="positions" >
   <v>       0.12500000       0.37500000       0.12500000 </v>
   <v>       0.62500000       0.37500000       0.12500000 </v>
   <v>       0.12500000       0.87500000       0.12500000 </v>
   <v>       0.62500000       0.87500000       0.12500000 </v>
   <v>       0.12500000       0.37500000       0.62500000 </v>
   <v>       0.62500000       0.37500000       0.62500000 </v>
   <v>       0.12500000       0.87500000       0.62500000 </v>
   <v>       0.62500000       0.87500000       0.62500000 </v>
   <v>       0.00000000       0.00000000       0.25000000 </v>
   <v>       0.50000000       0.00000000       0.25000000 </v>
   <v>       0.00000000       0.50000000       0.25000000 </v>
   <v>       0.50000000       0.50000000       0.25000000 </v>
   <v>       0.00000000       0.00000000       0.75000000 </v>
   <v>       0.50000000       0.00000000       0.75000000 </v>
   <v>       0.00000000       0.50000000       0.75000000 </v>
   <v>       0.50000000       0.50000000       0.75000000 </v>
   <v>       0.12500000       0.12500000       0.37500000 </v>
   <v>       0.62500000       0.12500000       0.37500000 </v>
   <v>       0.12500000       0.62500000       0.37500000 </v>
   <v>       0.62500000       0.62500000       0.37500000 </v>
   <v>       0.12500000       0.12500000       0.87500000 </v>
   <v>       0.62500000       0.12500000       0.87500000 </v>
   <v>       0.12500000       0.62500000       0.87500000 </v>
   <v>       0.62500000       0.62500000       0.87500000 </v>
   <v>       0.00000000       0.25000000       0.00000000 </v>
   <v>       0.50000000       0.25000000       0.00000000 </v>
   <v>       0.00000000       0.75000000       0.00000000 </v>
   <v>       0.50000000       0.75000000       0.00000000 </v>
   <v>       0.00000000       0.25000000       0.50000000 </v>
   <v>       0.50000000       0.25000000       0.50000000 </v>
   <v>       0.00000000       0.75000000       0.50000000 </v>
   <v>       0.50000000       0.75000000       0.50000000 </v>
   <v>       0.37500000       0.37500000       0.37500000 </v>
   <v>       0.87500000       0.37500000       0.37500000 </v>
   <v>       0.37500000       0.87500000       0.37500000 </v>
   <v>       0.87500000       0.87500000       0.37500000 </v>
   <v>       0.37500000       0.37500000       0.87500000 </v>
   <v>       0.87500000       0.37500000       0.87500000 </v>
   <v>       0.37500000       0.87500000       0.87500000 </v>
   <v>       0.87500000       0.87500000       0.87500000 </v>
   <v>       0.25000000       0.00000000       0.00000000 </v>
   <v>       0.75000000       0.00000000       0.00000000 </v>
   <v>       0.25000000       0.50000000       0.00000000 </v>
   <v>       0.75000000       0.50000000       0.00000000 </v>
   <v>       0.25000000       0.00000000       0.50000000 </v>
   <v>       0.75000000       0.00000000       0.50000000 </v>
   <v>       0.25000000       0.50000000       0.50000000 </v>
   <v>       0.75000000       0.50000000       0.50000000 </v>
   <v>       0.37500000       0.12500000       0.12500000 </v>
   <v>       0.87500000       0.12500000       0.12500000 </v>
   <v>       0.37500000       0.62500000       0.12500000 </v>
   <v>       0.87500000       0.62500000       0.12500000 </v>
   <v>       0.37500000       0.12500000       0.62500000 </v>
   <v>       0.87500000       0.12500000       0.62500000 </v>
   <v>       0.37500000       0.62500000       0.62500000 </v>
   <v>       0.87500000       0.62500000       0.62500000 </v>
   <v>       0.25000000       0.25000000       0.25000000 </v>
   <v>       0.75000000       0.25000000       0.25000000 </v>
   <v>       0.25000000       0.75000000       0.25000000 </v>
   <v>       0.75000000       0.75000000       0.25000000 </v>
   <v>       0.25000000       0.25000000       0.75000000 </v>
   <v>       0.75000000       0.25000000       0.75000000 </v>
   <v>       0.25000000       0.75000000       0.75000000 </v>
   <v>       0.75000000       0.75000000       0.75000000 </v>
  </varray>
 </structure>
 <calculation>
  <scstep>
   <time name="dav">   22.00   22.01</time>
   <time name="total">   22.11   22.18</time>
   <energy>
    <i name="alphaZ">    904.93795581 </i>
    <i name="ewald"> -11061.11709803 </i>
    <i name="hartreedc">   -582.12263807 </i>
    <i name="XCdc">    912.14760070 </i>
    <i name="pawpsdc">   2421.21235816 </i>
    <i name="pawaedc">  -2494.84305711 </i>
    <i name="eentropy">     -0.00827981 </i>
    <i name="bandstr">    992.86122210 </i>
    <i name="atom">   9416.14232778 </i>
    <i name="e_fr_energy">    509.21039151 </i>
    <i name="e_wo_entrp">    509.21867132 </i>
    <i name="e_0_energy">    509.21453142 </i>
   </energy>
  </scstep>
  <scstep>
   <time name="dav">   27.31   27.32</time>
   <time name="total">   27.32   27.32</time>
   <energy>
    <i name="e_fr_energy">   -555.25633316 </i>
    <i name="e_wo_entrp">   -555.25633316 </i>
    <i name="e_0_energy">   -555.25633316 </i>
   </energy>
  </scstep>
  <scstep>
   <time name="dav">   27.41   27.41</time>
   <time name="total">   27.41   27.41</time>
   <energy>
    <i name="e_fr_energy">   -597.12253619 </i>
    <i name="e_wo_entrp">   -597.12253619 </i>
    <i name="e_0_energy">   -597.12253619 </i>
   </energy>
  </scstep>
  <scstep>
   <time name="dav">   27.40   27.40</time>
   <time name="total">   27.40   27.40</time>
   <energy>
    <i name="e_fr_energy">   -597.58412635 </i>
    <i name="e_wo_entrp">   -597.58412635 </i>
    <i name="e_0_energy">   -597.58412635 </i>
   </energy>
  </scstep>
  <scstep>
   <time name="dav">   25.76   25.77</time>
   <time name="total">   26.42   26.42</time>
   <energy>
    <i name="e_fr_energy">   -597.59322657 </i>
    <i name="e_wo_entrp">   -597.59322657 </i>
    <i name="e_0_energy">   -597.59322657 </i>
   </energy>
  </scstep>
  <scstep>
   <time name="dav">   24.94   24.94</time>
   <time name="total">   25.70   25.71</time>
   <energy>
    <i name="e_fr_energy">   -582.55570386 </i>
    <i name="e_wo_entrp">   -582.55570386 </i>
    <i name="e_0_energy">   -582.55570386 </i>
   </energy>
  </scstep>
  <scstep>
   <time name="dav">   25.57   25.57</time>
   <time name="total">   26.33   26.34</time>
   <energy>
    <i name="e_fr_energy">   -577.51242775 </i>
    <i name="e_wo_entrp">   -577.51242775 </i>
    <i name="e_0_energy">   -577.51242775 </i>
   </energy>
  </scstep>
  <scstep>
   <time name="dav">   26.22   26.22</time>
   <time name="total">   26.98   26.98</time>
   <energy>
    <i name="e_fr_energy">   -577.57930210 </i>
    <i name="e_wo_entrp">   -577.57930210 </i>
    <i name="e_0_energy">   -577.57930210 </i>
   </energy>
  </scstep>
  <scstep>
   <time name="dav">   26.65   26.65</time>
   <time name="total">   27.40   27.40</time>
   <energy>
    <i name="e_fr_energy">   -577.58166620 </i>
    <i name="e_wo_entrp">   -577.58166620 </i>
    <i name="e_0_energy">   -577.58166620 </i>
   </energy>
  </scstep>
  <scstep>
   <time name="dav">   26.13   26.13</time>
   <time name="total">   26.88   26.88</time>
   <energy>
    <i name="e_fr_energy">   -577.58218833 </i>
    <i name="e_wo_entrp">   -577.58218833 </i>
    <i name="e_0_energy">   -577.58218833 </i>
   </energy>
  </scstep>
  <scstep>
   <time name="dav">   27.19   27.19</time>
   <time name="total">   27.96   27.96</time>
   <energy>
    <i name="e_fr_energy">   -577.58220694 </i>
    <i name="e_wo_entrp">   -577.58220694 </i>
    <i name="e_0_energy">   -577.58220694 </i>
   </energy>
  </scstep>
  <scstep>
   <time name="dav">   26.78   26.78</time>
   <time name="total">   27.53   27.53</time>
   <energy>
    <i name="e_fr_energy">   -577.58220723 </i>
    <i name="e_wo_entrp">   -577.58220723 </i>
    <i name="e_0_energy">   -577.58220723 </i>
   </energy>
  </scstep>
  <scstep>
   <time name="dav">   24.33   24.33</time>
   <time name="total">   24.43   24.44</time>
   <energy>
    <i name="alphaZ">    904.93795581 </i>
    <i name="ewald"> -11061.11709803 </i>
    <i name="hartreedc">   -861.77564768 </i>
    <i name="XCdc">    938.28832598 </i>
    <i name="pawpsdc">   4164.48251595 </i>
    <i name="pawaedc">  -4245.24405456 </i>
    <i name="eentropy">     -0.00000000 </i>
    <i name="bandstr">    166.70346753 </i>
    <i name="atom">   9416.14232778 </i>
    <i name="e_fr_energy">   -577.58220722 </i>
    <i name="e_wo_entrp">   -577.58220722 </i>
    <i name="e_0_energy">   -577.58220722 </i>
   </energy>
  </scstep>
  <structure>
   <crystal>
    <varray name="basis" >
     <v>       7.17999872       0.00000000       0.00000000 </v>
     <v>       0.35899893       7.17101797       0.00000000 </v>
     <v>       0.35899893       0.34147743       7.16288306 </v>
    </varray>
    <i name="volume">    368.80180525 </i>
    <varray name="rec_basis" >
     <v>       0.13927579      -0.00697249      -0.00664801 </v>
     <v>       0.00000000       0.13945022      -0.00664804 </v>
     <v>       0.00000000       0.00000000       0.13960859 </v>
    </varray>
   </crystal>
   <varray name="positions" >
    <v>       0.12500000       0.37500000       0.12500000 </v>
    <v>       0.62500000       0.37500000       0.12500000 </v>
    <v>       0.12500000       0.87500000       0.12500000 </v>
    <v>       0.62500000       0.87500000       0.12500000 </v>
    <v>       0.12500000       0.37500000       0.62500000 </v>
    <v>       0.62500000       0.37500000       0.62500000 </v>
    <v>       0.12500000       0.87500000       0.62500000 </v>
    <v>       0.62500000       0.87500000       0.62500000 </v>
    <v>       0.00000000       0.00000000       0.25000000 </v>
    <v>       0.50000000       0.00000000       0.25000000 </v>
    <v>       0.00000000       0.50000000       0.25000000 </v>
    <v>       0.50000000       0.50000000       0.25000000 </v>
    <v>       0.00000000       0.00000000       0.75000000 </v>
    <v>       0.50000000       0.00000000       0.75000000 </v>
    <v>       0.00000000       0.50000000       0.75000000 </v>
    <v>       0.50000000       0.50000000       0.75000000 </v>
    <v>       0.12500000       0.12500000       0.37500000 </v>
    <v>       0.62500000       0.12500000       0.37500000 </v>
    <v>       0.12500000       0.62500000       0.37500000 </v>
    <v>       0.62500000       0.62500000       0.37500000 </v>
    <v>       0.12500000       0.12500000       0.87500000 </v>
    <v>       0.62500000       0.12500000       0.87500000 </v>
    <v>       0.12500000       0.62500000       0.87500000 </v>
    <v>       0.62500000       0.62500000       0.87500000 </v>
    <v>       0.00000000       0.25000000       0.00000000 </v>
    <v>       0.50000000       0.25000000       0.00000000 </v>
    <v>       0.00000000       0.75000000       0.00000000 </v>
    <v>       0.50000000       0.75000000       0.00000000 </v>
    <v>       0.00000000       0.25000000       0.50000000 </v>
    <v>       0.50000000       0.25000000       0.50000000 </v>
    <v>       0.00000000       0.75000000       0.50000000 </v>
    <v>       0.50000000       0.75000000       0.50000000 </v>
    <v>       0.37500000       0.37500000       0.37500000 </v>
    <v>       0.87500000       0.37500000       0.37500000 </v>
    <v>       0.37500000       0.87500000       0.37500000 </v>
    <v>       0.87500000       0.87500000       0.37500000 </v>
    <v>       0.37500000       0.37500000       0.87500000 </v>
    <v>       0.87500000       0.37500000       0.87500000 </v>
    <v>       0.37500000       0.87500000       0.87500000 </v>
    <v>       0.87500000       0.87500000       0.87500000 </v>
    <v>       0.25000000       0.00000000       0.00000000 </v>
    <v>       0.75000000       0.00000000       0.00000000 </v>
    <v>       0.25000000       0.50000000       0.00000000 </v>
    <v>       0.75000000       0.50000000       0.00000000 </v>
    <v>       0.25000000       0.00000000       0.50000000 </v>
    <v>       0.75000000       0.00000000       0.50000000 </v>
    <v>       0.25000000       0.50000000       0.50000000 </v>
    <v>       0.75000000       0.50000000       0.50000000 </v>
    <v>       0.37500000       0.12500000       0.12500000 </v>
    <v>       0.87500000       0.12500000       0.12500000 </v>
    <v>       0.37500000       0.62500000       0.12500000 </v>
    <v>       0.87500000       0.62500000       0.12500000 </v>
    <v>       0.37500000       0.12500000       0.62500000 </v>
    <v>       0.87500000       0.12500000       0.62500000 </v>
    <v>       0.37500000       0.62500000       0.62500000 </v>
    <v>       0.87500000       0.62500000       0.62500000 </v>
    <v>       0.25000000       0.25000000       0.25000000 </v>
    <v>       0.75000000       0.25000000       0.25000000 </v>
    <v>       0.25000000       0.75000000       0.25000000 </v>
    <v>       0.75000000       0.75000000       0.25000000 </v>
    <v>       0.25000000       0.25000000       0.75000000 </v>
    <v>       0.75000000       0.25000000       0.75000000 </v>
    <v>       0.25000000       0.75000000       0.75000000 </v>
    <v>       0.75000000       0.75000000       0.75000000 </v>
   </varray>
  </structure>
  <varray name="forces" >
   <v>       0.06367243       0.06056458       0.05774606 </v>
   <v>       0.06367243       0.06056458       0.05774606 </v>
   <v>       0.06367243       0.06056458       0.05774606 </v>
   <v>       0.06367243       0.06056458       0.05774606 </v>
   <v>       0.06367243       0.06056458       0.05774606 </v>
   <v>       0.06367243       0.06056458       0.05774606 </v>
   <v>       0.06367243       0.06056458       0.05774606 </v>
   <v>       0.06367243       0.06056458       0.05774606 </v>
   <v>      -0.06367243      -0.06056458      -0.05774606 </v>
   <v>      -0.06367243      -0.06056458      -0.05774606 </v>
   <v>      -0.06367243      -0.06056458      -0.05774606 </v>
   <v>      -0.06367243      -0.06056458      -0.05774606 </v>
   <v>      -0.06367243      -0.06056458      -0.05774606 </v>
   <v>      -0.06367243      -0.06056458      -0.05774606 </v>
   <v>      -0.06367243      -0.06056458      -0.05774606 </v>
   <v>      -0.06367243      -0.06056458      -0.05774606 </v>
   <v>       0.06367243       0.06056458       0.05774606 </v>
   <v>       0.06367243       0.06056458       0.05774606 </v>
   <v>       0.06367243       0.06056458       0.05774606 </v>
   <v>       0.06367243       0.06056458       0.05774606 </v>
   <v>       0.06367243       0.06056458       0.05774606 </v>
   <v>       0.06367243       0.06056458       0.05774606 </v>
   <v>       0.06367243       0.06056458       0.05774606 </v>
   <v>       0.06367243       0.06056458       0.05774606 </v>
   <v>      -0.06367243      -0.06056458      -0.05774606 </v>
   <v>      -0.06367243      -0.06056458      -0.05774606 </v>
   <v>      -0.06367243      -0.06056458      -0.05774606 </v>
   <v>      -0.06367243      -0.06056458      -0.05774606 </v>
   <v>      -0.06367243      -0.06056458      -0.05774606 </v>
   <v>      -0.06367243      -0.06056458      -0.05774606 </v>
   <v>      -0.06367243      -0.06056458      -0.05774606 </v>
   <v>      -0.06367243      -0.06056458      -0.05774606 </v>
   <v>       0.06367243       0.06056458       0.05774606 </v>
   <v>       0.06367243       0.06056458       0.05774606 </v>
   <v>       0.06367243       0.06056458       0.05774606 </v>
   <v>       0.06367243       0.06056458       0.05774606 </v>
   <v>       0.06367243       0.06056458       0.05774606 </v>
   <v>       0.06367243       0.06056458       0.05774606 </v>
   <v>       0.06367243       0.06056458       0.05774606 </v>
   <v>       0.06367243       0.06056458       0.05774606 </v>
   <v>      -0.06367243      -0.06056458      -0.05774606 </v>
   <v>      -0.06367243      -0.06056458      -0.05774606 </v>
   <v>      -0.06367243      -0.06056458      -0.05774606 </v>
   <v>      -0.06367243      -0.06056458      -0.05774606 </v>
   <v>      -0.06367243      -0.06056458      -0.05774606 </v>
   <v>      -0.06367243      -0.06056458      -0.05774606 </v>
   <v>      -0.06367243      -0.06056458      -0.05774606 </v>
   <v>      -0.06367243      -0.06056458      -0.05774606 </v>
   <v>       0.06367243       0.06056458       0.05774606 </v>
   <v>       0.06367243       0.06056458       0.05774606 </v>
   <v>       0.06367243       0.06056458       0.05774606 </v>
   <v>       0.06367243       0.06056458       0.05774606 </v>
   <v>       0.06367243       0.06056458       0.05774606 </v>
   <v>       0.06367243       0.06056458       0.05774606 </v>
   <v>       0.06367243       0.06056458       0.05774606 </v>
   <v>       0.06367243       0.06056458       0.05774606 </v>
   <v>      -0.06367243      -0.06056458      -0.05774606 </v>
   <v>      -0.06367243      -0.06056458      -0.05774606 </v>
   <v>      -0.06367243      -0.06056458      -0.05774606 </v>
   <v>      -0.06367243      -0.06056458      -0.05774606 </v>
   <v>      -0.06367243      -0.06056458      -0.05774606 </v>
   <v>      -0.06367243      -0.06056458      -0.05774606 </v>
   <v>      -0.06367243      -0.06056458      -0.05774606 </v>
   <v>      -0.06367243      -0.06056458      -0.05774606 </v>
  </varray>
  <varray name="stress" >
   <v>     -82.05990181    -268.68566956    -256.18172502 </v>
   <v>    -268.68566956     -55.15785056    -243.67745982 </v>
   <v>    -256.18172502    -243.67745982     -31.92409182 </v>
  </varray>
  <energy>
   <i name="e_fr_energy">   -577.58220722 </i>
   <i name="e_wo_entrp">   -577.58220722 </i>
   <i name="e_0_energy">     -0.00000000 </i>
  </energy>
  <kpoints>
   <generation param="Gamma">
    <v type="int" name="divisions">       6        6        6 </v>
    <v name="usershift">      0.00000000       0.00000000       0.00000000 </v>
    <v name="genvec1">      0.16666667      -0.00000000      -0.00000000 </v>
    <v name="genvec2">      0.00000000       0.16666667      -0.00000000 </v>
    <v name="genvec3">      0.00000000       0.00000000       0.16666667 </v>
    <v name="shift">      0.00000000       0.00000000       0.00000000 </v>
   </generation>
   <varray name="kpointlist" >
    <v>       0.00000000       0.00000000       0.00000000 </v>
    <v>       0.16666667       0.00000000      -0.00000000 </v>
    <v>       0.33333333       0.00000000       0.00000000 </v>
    <v>       0.50000000       0.00000000       0.00000000 </v>
    <v>       0.00000000       0.16666667       0.00000000 </v>
    <v>       0.16666667       0.16666667      -0.00000000 </v>
    <v>       0.33333333       0.16666667       0.00000000 </v>
    <v>       0.50000000       0.16666667       0.00000000 </v>
    <v>      -0.33333333       0.16666667      -0.00000000 </v>
    <v>      -0.16666667       0.16666667      -0.00000000 </v>
    <v>       0.00000000       0.33333333      -0.00000000 </v>
    <v>       0.16666667       0.33333333       0.00000000 </v>
    <v>       0.33333333       0.33333333       0.00000000 </v>
    <v>       0.50000000       0.33333333      -0.00000000 </v>
    <v>      -0.33333333       0.33333333       0.00000000 </v>
    <v>      -0.16666667       0.33333333       0.00000000 </v>
    <v>       0.00000000       0.50000000      -0.00000000 </v>
    <v>       0.16666667       0.50000000      -0.00000000 </v>
    <v>       0.33333333       0.50000000      -0.00000000 </v>
    <v>       0.50000000       0.50000000      -0.00000000 </v>
    <v>       0.00000000       0.16666667       0.16666667 </v>
    <v>       0.16666667       0.16666667       0.16666667 </v>
    <v>       0.33333333       0.16666667       0.16666667 </v>
    <v>       0.50000000       0.16666667       0.16666667 </v>
    <v>      -0.33333333       0.16666667       0.16666667 </v>
    <v>      -0.16666667       0.16666667       0.16666667 </v>
    <v>       0.00000000       0.33333333       0.16666667 </v>
    <v>       0.16666667       0.33333333       0.16666667 </v>
    <v>       0.33333333       0.33333333       0.16666667 </v>
    <v>       0.50000000       0.33333333       0.16666667 </v>
    <v>      -0.33333333       0.33333333       0.16666667 </v>
    <v>      -0.16666667       0.33333333       0.16666667 </v>
    <v>       0.00000000       0.50000000       0.16666667 </v>
    <v>       0.16666667       0.50000000       0.16666667 </v>
    <v>       0.33333333       0.50000000       0.16666667 </v>
    <v>       0.50000000       0.50000000       0.16666667 </v>
    <v>      -0.33333333       0.50000000       0.16666667 </v>
    <v>      -0.16666667       0.50000000       0.16666667 </v>
    <v>       0.00000000      -0.33333333       0.16666667 </v>
    <v>       0.16666667      -0.33333333       0.16666667 </v>
    <v>       0.33333333      -0.33333333       0.16666667 </v>
    <v>       0.50000000      -0.33333333       0.16666667 </v>
    <v>      -0.33333333      -0.33333333       0.16666667 </v>
    <v>      -0.16666667      -0.33333333       0.16666667 </v>
    <v>       0.00000000      -0.16666667       0.16666667 </v>
    <v>       0.16666667      -0.16666667       0.16666667 </v>
    <v>       0.33333333      -0.16666667       0.16666667 </v>
    <v>       0.50000000      -0.16666667       0.16666667 </v>
    <v>       0.00000000       0.33333333       0.33333333 </v>
    <v>       0.16666667       0.33333333       0.33333333 </v>
    <v>       0.33333333       0.33333333       0.33333333 </v>
    <v>       0.50000000       0.33333333       0.33333333 </v>
    <v>      -0.33333333       0.33333333       0.33333333 </v>
    <v>      -0.16666667       0.33333333       0.33333333 </v>
    <v>       0.00000000       0.50000000       0.33333333 </v>
    <v>       0.16666667       0.50000000       0.33333333 </v>
    <v>       0.33333333       0.50000000       0.33333333 </v>
    <v>       0.50000000       0.50000000       0.33333333 </v>
    <v>      -0.33333333       0.50000000       0.33333333 </v>
    <v>      -0.16666667       0.50000000       0.33333333 </v>
    <v>       0.00000000      -0.33333333       0.33333333 </v>
    <v>       0.16666667      -0.33333333       0.33333333 </v>
    <v>       0.33333333      -0.33333333       0.33333333 </v>
    <v>       0.50000000      -0.33333333       0.33333333 </v>
    <v>       0.00000000       0.50000000       0.50000000 </v>
    <v>       0.16666667       0.50000000       0.50000000 </v>
    <v>       0.33333333       0.50000000       0.50000000 </v>
    <v>       0.50000000       0.50000000       0.50000000 </v>
   </varray>
   <varray name="weights" >
    <v>       0.00462963 </v>
    <v>       0.00925926 </v>
    <v>       0.00925926 </v>
    <v>       0.00462963 </v>
    <v>       0.01851852 </v>
    <v>       0.01851852 </v>
    <v>       0.01851852 </v>
    <v>       0.01851852 </v>
    <v>       0.01851852 </v>
    <v>       0.01851852 </v>
    <v>       0.01851852 </v>
    <v>       0.01851852 </v>
    <v>       0.01851852 </v>
    <v>       0.01851852 </v>
    <v>       0.01851852 </v>
    <v>       0.01851852 </v>
    <v>       0.00925926 </v>
    <v>       0.01851852 </v>
    <v>       0.01851852 </v>
    <v>       0.00925926 </v>
    <v>       0.00925926 </v>
    <v>       0.00925926 </v>
    <v>       0.00925926 </v>
    <v>       0.00925926 </v>
    <v>       0.00925926 </v>
    <v>       0.00925926 </v>
    <v>       0.01851852 </v>
    <v>       0.01851852 </v>
    <v>       0.01851852 </v>
    <v>       0.01851852 </v>
    <v>       0.01851852 </v>
    <v>       0.01851852 </v>
    <v>       0.01851852 </v>
    <v>       0.01851852 </v>
    <v>       0.01851852 </v>
    <v>       0.01851852 </v>
    <v>       0.01851852 </v>
    <v>       0.01851852 </v>
    <v>       0.01851852 </v>
    <v>       0.01851852 </v>
    <v>       0.01851852 </v>
    <v>       0.01851852 </v>
    <v>       0.01851852 </v>
    <v>       0.01851852 </v>
    <v>       0.00925926 </v>
    <v>       0.01851852 </v>
    <v>       0.01851852 </v>
    <v>       0.00925926 </v>
    <v>       0.00925926 </v>
    <v>       0.00925926 </v>
    <v>       0.00925926 </v>
    <v>       0.00925926 </v>
    <v>       0.00925926 </v>
    <v>       0.00925926 </v>
    <v>       0.01851852 </v>
    <v>       0.01851852 </v>
    <v>       0.01851852 </v>
    <v>       0.01851852 </v>
    <v>       0.01851852 </v>
    <v>       0.01851852 </v>
    <v>       0.00925926 </v>
    <v>       0.01851852 </v>
    <v>       0.01851852 </v>
    <v>       0.00925926 </v>
    <v>       0.00462963 </v>
    <v>       0.00925926 </v>
    <v>       0.00925926 </v>
    <v>       0.00462963 </v>
   </varray>
  </kpoints>
  <scstep>
   <time name="total">   56.35   56.36</time>
   <energy>
    <i name="e_fr_energy">   -363.18571589 </i>
    <i name="e_wo_entrp">   -363.18571589 </i>
    <i name="e_0_energy">   -363.18571589 </i>
   </energy>
  </scstep>
  <scstep>
   <time name="total">   41.33   41.33</time>
   <energy>
    <i name="e_fr_energy">   -309.18608662 </i>
    <i name="e_wo_entrp">   -309.18608662 </i>
    <i name="e_0_energy">   -309.18608662 </i>
   </energy>
  </scstep>
  <scstep>
   <time name="total">   42.44   42.44</time>
   <energy>
    <i name="e_fr_energy">   -308.78579822 </i>
    <i name="e_wo_entrp">   -308.78579822 </i>
    <i name="e_0_energy">   -308.78579822 </i>
   </energy>
  </scstep>
  <scstep>
   <time name="total">   42.46   42.46</time>
   <energy>
    <i name="e_fr_energy">   -309.42912622 </i>
    <i name="e_wo_entrp">   -309.42912622 </i>
    <i name="e_0_energy">   -309.42912622 </i>
   </energy>
  </scstep>
  <scstep>
   <time name="total">   42.42   42.43</time>
   <energy>
    <i name="e_fr_energy">   -309.63667019 </i>
    <i name="e_wo_entrp">   -309.63667019 </i>
    <i name="e_0_energy">   -309.63667019 </i>
   </energy>
  </scstep>
  <scstep>
   <time name="total">   42.77   42.78</time>
   <energy>
    <i name="e_fr_energy">   -309.59388196 </i>
    <i name="e_wo_entrp">   -309.59388196 </i>
    <i name="e_0_energy">   -309.59388196 </i>
   </energy>
  </scstep>
  <scstep>
   <time name="total">   43.15   43.15</time>
   <energy>
    <i name="e_fr_energy">   -309.57283742 </i>
    <i name="e_wo_entrp">   -309.57283742 </i>
    <i name="e_0_energy">   -309.57283742 </i>
   </energy>
  </scstep>
  <scstep>
   <time name="total">   44.88   44.88</time>
   <energy>
    <i name="e_fr_energy">   -309.57154952 </i>
    <i name="e_wo_entrp">   -309.57154952 </i>
    <i name="e_0_energy">   -309.57154952 </i>
   </energy>
  </scstep>
  <scstep>
   <time name="total">   45.99   45.99</time>
   <energy>
    <i name="e_fr_energy">   -309.57100772 </i>
    <i name="e_wo_entrp">   -309.57100772 </i>
    <i name="e_0_energy">   -309.57100772 </i>
   </energy>
  </scstep>
  <scstep>
   <time name="total">   47.02   47.03</time>
   <energy>
    <i name="e_fr_energy">   -309.57131342 </i>
    <i name="e_wo_entrp">   -309.57131342 </i>
    <i name="e_0_energy">   -309.57131342 </i>
   </energy>
  </scstep>
  <scstep>
   <time name="total">   46.97   46.97</time>
   <energy>
    <i name="e_fr_energy">   -309.57130296 </i>
    <i name="e_wo_entrp">   -309.57130296 </i>
    <i name="e_0_energy">   -309.57130296 </i>
   </energy>
  </scstep>
  <kpoints>
   <generation param="Gamma">
    <v type="int" name="divisions">       6        6        6 </v>
    <v name="usershift">      0.00000000       0.00000000       0.00000000 </v>
    <v name="genvec1">      0.16666667      -0.00000000      -0.00000000 </v>
    <v name="genvec2">      0.00000000       0.16666667      -0.00000000 </v>
    <v name="genvec3">      0.00000000       0.00000000       0.16666667 </v>
    <v name="shift">      0.00000000       0.00000000       0.00000000 </v>
   </generation>
   <varray name="kpointlist" >
    <v>       0.00000000       0.00000000       0.00000000 </v>
    <v>       0.16666667       0.00000000      -0.00000000 </v>
    <v>       0.33333333       0.00000000       0.00000000 </v>
    <v>       0.50000000       0.00000000       0.00000000 </v>
    <v>       0.16666667       0.16666667      -0.00000000 </v>
    <v>       0.33333333       0.16666667       0.00000000 </v>
    <v>       0.50000000       0.16666667       0.00000000 </v>
    <v>      -0.33333333       0.16666667      -0.00000000 </v>
    <v>      -0.16666667       0.16666667      -0.00000000 </v>
    <v>       0.33333333       0.33333333       0.00000000 </v>
    <v>       0.50000000       0.33333333      -0.00000000 </v>
    <v>      -0.33333333       0.33333333       0.00000000 </v>
    <v>       0.50000000       0.50000000      -0.00000000 </v>
    <v>       0.16666667       0.16666667       0.16666667 </v>
    <v>       0.33333333       0.16666667       0.16666667 </v>
    <v>       0.50000000       0.16666667       0.16666667 </v>
    <v>      -0.33333333       0.16666667       0.16666667 </v>
    <v>      -0.16666667       0.16666667       0.16666667 </v>
    <v>       0.33333333       0.33333333       0.16666667 </v>
    <v>       0.50000000       0.33333333       0.16666667 </v>
    <v>      -0.33333333       0.33333333       0.16666667 </v>
    <v>      -0.16666667       0.33333333       0.16666667 </v>
    <v>       0.50000000       0.50000000       0.16666667 </v>
    <v>      -0.33333333       0.50000000       0.16666667 </v>
    <v>      -0.16666667       0.50000000       0.16666667 </v>
    <v>      -0.33333333      -0.33333333       0.16666667 </v>
    <v>       0.33333333       0.33333333       0.33333333 </v>
    <v>       0.50000000       0.33333333       0.33333333 </v>
    <v>      -0.33333333       0.33333333       0.33333333 </v>
    <v>       0.50000000       0.50000000       0.33333333 </v>
    <v>      -0.33333333       0.50000000       0.33333333 </v>
    <v>       0.50000000       0.50000000       0.50000000 </v>
   </varray>
   <varray name="weights" >
    <v>       0.00462963 </v>
    <v>       0.02777778 </v>
    <v>       0.02777778 </v>
    <v>       0.01388889 </v>
    <v>       0.02777778 </v>
    <v>       0.05555556 </v>
    <v>       0.05555556 </v>
    <v>       0.05555556 </v>
    <v>       0.02777778 </v>
    <v>       0.02777778 </v>
    <v>       0.05555556 </v>
    <v>       0.02777778 </v>
    <v>       0.01388889 </v>
    <v>       0.00925926 </v>
    <v>       0.02777778 </v>
    <v>       0.02777778 </v>
    <v>       0.02777778 </v>
    <v>       0.02777778 </v>
    <v>       0.02777778 </v>
    <v>       0.05555556 </v>
    <v>       0.05555556 </v>
    <v>       0.05555556 </v>
    <v>       0.02777778 </v>
    <v>       0.05555556 </v>
    <v>       0.02777778 </v>
    <v>       0.02777778 </v>
    <v>       0.00925926 </v>
    <v>       0.02777778 </v>
    <v>       0.02777778 </v>
    <v>       0.02777778 </v>
    <v>       0.02777778 </v>
    <v>       0.00462963 </v>
   </varray>
  </kpoints>
  <dynmat>
   <varray name="hessian" >
    <v>      -3.57042366       0.36422692       0.34727673       0.01372055       0.00049261       0.00046969       0.00773930       0.00079205      -0.00014009       0.00951077      -0.00255500      -0.00079805       0.00773930      -0.00010222       0.00079782       0.00951077      -0.00091881      -0.00251410      -0.04620552       0.00187048       0.00178343       0.00453051       0.00063495       0.00060540      -0.01040430      -0.00464672       0.00024590       0.00820972      -0.01285985      -0.01854300       0.77785257      -0.23865595      -0.22754952      -0.01017211      -0.00954831      -0.00910395       0.02178354      -0.01788470      -0.01705239      -0.00273505      -0.00288349      -0.00274930      -0.01040430       0.00002435      -0.00465316       0.00820972      -0.01913434      -0.01196226      -0.12040314       0.06519910      -0.06328215      -0.00485770       0.00351101      -0.00198200      -0.10572227       0.06535534       0.06231387      -0.00344240       0.00467581       0.00445821      -0.10572227      -0.03850704      -0.03671502      -0.00344240      -0.00233165      -0.00222315      -0.12040314      -0.06010564       0.06813857      -0.00485770      -0.00181256       0.00360141       0.54583859      -0.04241261      -0.04043883      -0.00497087       0.00986279       0.00940380      -0.01181909       0.01020563      -0.00287979       0.00680032       0.00519965       0.01481611      -0.01181909      -0.00239054       0.01033118       0.00680032       0.01504691       0.00448822       0.02943954       0.01391353       0.01326603      -0.00180307       0.00264199       0.00251904       0.11656359      -0.04963519       0.11544925       0.13241623      -0.07276244      -0.14725774       0.00679170      -0.00284400      -0.00522195       0.00707449      -0.00240992       0.00686093       0.13241623       0.05254232      -0.14825279       0.11656359       0.05422717       0.11049782       0.00707449       0.00291365       0.00694686       0.00679170       0.00416346      -0.00555602      -0.01532552       0.00654796      -0.00004114      -0.00022247       0.00290080      -0.01694037       0.81441576       0.23255249      -0.25184596      -0.00313474       0.00593766      -0.00529941       0.03051614       0.01779818      -0.02112254      -0.00329354       0.00175894      -0.00294263      -0.01282072      -0.00481003      -0.00919709       0.01013437       0.01881855      -0.01386805       0.13241623      -0.14558258       0.05954238       0.11656359       0.11295471       0.04890385       0.11656359       0.11295469      -0.05507647       0.13241623      -0.15055556      -0.06566762       0.00707449       0.00707772       0.00257955       0.00679170      -0.00535145       0.00442331       0.00679170      -0.00535145      -0.00259211       0.00707449       0.00673839      -0.00273390       0.81441576      -0.24048631       0.24428135      -0.00313474      -0.00501065       0.00618328      -0.01282072      -0.00941571      -0.00436661       0.01013437      -0.01295619       0.01945758      -0.01532552       0.00027072       0.00654249      -0.00022247      -0.01678302       0.00370420       0.03051614      -0.02025105       0.01878383      -0.00329354      -0.00285553       0.00189707 </v>
    <v>       0.36422692      -3.60689155       0.33032544       0.00049261       0.00767498      -0.00016378       0.00079205       0.01365623       0.00047729      -0.00255500       0.00976659      -0.00075911      -0.00010222       0.00774953       0.00075888      -0.00091881      -0.04625316       0.00191153       0.00187048       0.00946313      -0.00260653       0.00063495       0.00446694       0.00057586      -0.00464672      -0.00265127       0.00617871      -0.01285985       0.01142679       0.02041026      -0.23865595       0.83840286       0.25597911      -0.00954831      -0.01187133      -0.00391632      -0.01788470       0.00151308       0.00456252      -0.00288349      -0.00300623       0.00203708       0.00002435      -0.01534029       0.00678364      -0.01913434       0.03248788       0.01940622      -0.06010564       0.13279480      -0.14427406      -0.00181256       0.00701937       0.00696875      -0.03850704       0.11577664       0.11247426      -0.00233165       0.00669999      -0.00545168       0.06535534       0.11577664       0.11247426       0.00467581       0.00669999      -0.00545168       0.06519910       0.13279480      -0.15184960       0.00351101       0.00701937       0.00677526      -0.04241261       0.55008510      -0.03846491       0.00986279      -0.01282376      -0.00335418       0.01020563      -0.00597554       0.00955975       0.00519965       0.00627971       0.01409294      -0.00239054      -0.01157973       0.00982692       0.01504691       0.02798971       0.01305795       0.01391353       0.00535049       0.00382971       0.00264199      -0.00206760       0.00239609       0.05422717      -0.10650925       0.05661225       0.05254232      -0.12002449      -0.05598929       0.00416346      -0.00353410       0.00472522       0.00291365      -0.00491282      -0.00232796      -0.07276244      -0.12002449       0.07564583      -0.04963519      -0.10650925      -0.04229277      -0.00240992      -0.00491282       0.00325814      -0.00284400      -0.00353410      -0.00194778       0.00654796      -0.00375981      -0.00530399       0.00290080      -0.00051292      -0.01611350       0.23255249       0.79113132      -0.23955317       0.00593766      -0.01595058       0.00022411       0.01779818       0.00830124      -0.01282797       0.00175894      -0.00346966      -0.00279900      -0.00481003      -0.01233912      -0.00874818       0.01881855       0.02868301      -0.02045472      -0.15055556       0.14724163      -0.06873071       0.11295469       0.10525400       0.04651682       0.11295471       0.10525400      -0.05238820      -0.14558258       0.14724163       0.06290440       0.00673839       0.00638282      -0.00286646      -0.00535145       0.00732751       0.00420741      -0.00535145       0.00732751      -0.00246559       0.00707772       0.00638282       0.00271964      -0.24048631       0.80183949      -0.24006366      -0.00501065      -0.00992083      -0.00006335      -0.00941571      -0.00922273      -0.00889675      -0.01295619       0.00950212      -0.01954031       0.00027072      -0.01041907      -0.00498652      -0.01678302       0.02351909      -0.01725919      -0.02025105       0.01018144      -0.01291760      -0.00285553      -0.00244774      -0.00284772 </v>
    <v>       0.34727673       0.33032544      -3.63838701       0.00046969      -0.00016378       0.00769060      -0.00014009       0.00047729       0.00769060      -0.00079805      -0.00075911      -0.04630810       0.00079782       0.00075888       0.01359730      -0.00251410       0.00191153       0.00971165       0.00178343      -0.00260653       0.00971165       0.00060540       0.00057586       0.00441203       0.00024590       0.00617871      -0.01595825      -0.01854300       0.02041026       0.03058970      -0.22754952       0.25597911       0.81399621      -0.00910395      -0.00391632      -0.01149793      -0.01705239       0.00456252       0.00107806      -0.00274930       0.00203708      -0.00320046      -0.00465316       0.00678364      -0.00326923      -0.01196226       0.01940622       0.00952861       0.06813857      -0.15184960       0.14691197       0.00360141       0.00677526       0.00636415      -0.03671502       0.11247426       0.10505263      -0.00222315      -0.00545168       0.00721979       0.06231387       0.11247426       0.10505263       0.00445821      -0.00545168       0.00721979      -0.06328215      -0.14427406       0.14691197      -0.00198200       0.00696875       0.00636415      -0.04043883      -0.03846491       0.55375261       0.00940380      -0.00335418      -0.01250395      -0.00287979       0.00955975      -0.01250395       0.01481611       0.01409294       0.02669534       0.01033118       0.00982692      -0.00689976       0.00448822       0.01305795       0.00498534       0.01326603       0.00382971       0.00498534       0.00251904       0.00239609      -0.00229606       0.11049782      -0.04229277       0.10505263      -0.14825279       0.07564583       0.14691197      -0.00555602      -0.00194778       0.00721979       0.00694686       0.00325814       0.00636415      -0.14725774      -0.05598929       0.14691197       0.11544925       0.05661225       0.10505263       0.00686093      -0.00232796       0.00636415      -0.00522195       0.00472522       0.00721979      -0.00004114      -0.00530399      -0.00992849      -0.01694037      -0.01611350       0.02511007      -0.25184596      -0.23955317       0.82470438      -0.00529941       0.00022411      -0.00992849      -0.02112254      -0.01282797       0.01140882      -0.00294263      -0.00279900      -0.00217855      -0.00919709      -0.00874818      -0.00838154      -0.01386805      -0.02045472       0.01140882      -0.06566762       0.06290440      -0.12035416      -0.05507647      -0.05238820      -0.10671063       0.04890385       0.04651682      -0.10671063       0.05954238      -0.06873071      -0.12035416      -0.00273390       0.00271964      -0.00493150      -0.00259211      -0.00246559      -0.00364183       0.00442331       0.00420741      -0.00364183       0.00257955      -0.00286646      -0.00493150       0.24428135      -0.24006366       0.81399621       0.00618328      -0.00006335      -0.01595825      -0.00436661      -0.00889675      -0.01149793       0.01945758      -0.01954031       0.03058970       0.00654249      -0.00498652      -0.00326923       0.00370420      -0.01725919       0.00107806       0.01878383      -0.01291760       0.00952861       0.00189707      -0.00284772      -0.00320046 </v>
    <v>       0.01372055       0.00049261       0.00046969      -3.57042366       0.36422692       0.34727673       0.00951077      -0.00255500      -0.00079805       0.00773930       0.00079205      -0.00014009       0.00951077      -0.00091881      -0.00251410       0.00773930      -0.00010222       0.00079782       0.00453051       0.00063495       0.00060540      -0.04620552       0.00187048       0.00178343       0.00820972      -0.01285985      -0.01854300      -0.01040430      -0.00464672       0.00024590      -0.01017211      -0.00954831      -0.00910395       0.77785257      -0.23865595      -0.22754952      -0.00273505      -0.00288349      -0.00274930       0.02178354      -0.01788470      -0.01705239       0.00820972      -0.01913434      -0.01196226      -0.01040430       0.00002435      -0.00465316      -0.00485770       0.00351101      -0.00198200      -0.12040314       0.06519910      -0.06328215      -0.00344240       0.00467581       0.00445821      -0.10572227       0.06535534       0.06231387      -0.00344240      -0.00233165      -0.00222315      -0.10572227      -0.03850704      -0.03671502      -0.00485770      -0.00181256       0.00360141      -0.12040314      -0.06010564       0.06813857      -0.00497087       0.00986279       0.00940380       0.54583859      -0.04241261      -0.04043883       0.00680032       0.00519965       0.01481611      -0.01181909       0.01020563      -0.00287979       0.00680032       0.01504691       0.00448822      -0.01181909      -0.00239054       0.01033118      -0.00180307       0.00264199       0.00251904       0.02943954       0.01391353       0.01326603       0.13241623      -0.07276244      -0.14725774       0.11656359      -0.04963519       0.11544925       0.00707449      -0.00240992       0.00686093       0.00679170      -0.00284400      -0.00522195       0.11656359       0.05422717       0.11049782       0.13241623       0.05254232      -0.14825279       0.00679170       0.00416346      -0.00555602       0.00707449       0.00291365       0.00694686      -0.00022247       0.00290080      -0.01694037      -0.01532552       0.00654796      -0.00004114      -0.00313474       0.00593766      -0.00529941       0.81441576       0.23255249      -0.25184596      -0.00329354       0.00175894      -0.00294263       0.03051614       0.01779818      -0.02112254       0.01013437       0.01881855      -0.01386805      -0.01282072      -0.00481003      -0.00919709       0.11656359       0.11295471       0.04890385       0.13241623      -0.14558258       0.05954238       0.13241623      -0.15055556      -0.06566762       0.11656359       0.11295469      -0.05507647       0.00679170      -0.00535145       0.00442331       0.00707449       0.00707772       0.00257955       0.00707449       0.00673839      -0.00273390       0.00679170      -0.00535145      -0.00259211      -0.00313474      -0.00501065       0.00618328       0.81441576      -0.24048631       0.24428135       0.01013437      -0.01295619       0.01945758      -0.01282072      -0.00941571      -0.00436661      -0.00022247      -0.01678302       0.00370420      -0.01532552       0.00027072       0.00654249      -0.00329354      -0.00285553       0.00189707       0.03051614      -0.02025105       0.01878383 </v>
    <v>       0.00049261       0.00767498      -0.00016378       0.36422692      -3.60689155       0.33032544      -0.00255500       0.00976659      -0.00075911       0.00079205       0.01365623       0.00047729      -0.00091881      -0.04625316       0.00191153      -0.00010222       0.00774953       0.00075888       0.00063495       0.00446694       0.00057586       0.00187048       0.00946313      -0.00260653      -0.01285985       0.01142679       0.02041026      -0.00464672      -0.00265127       0.00617871      -0.00954831      -0.01187133      -0.00391632      -0.23865595       0.83840286       0.25597911      -0.00288349      -0.00300623       0.00203708      -0.01788470       0.00151308       0.00456252      -0.01913434       0.03248788       0.01940622       0.00002435      -0.01534029       0.00678364      -0.00181256       0.00701937       0.00696875      -0.06010564       0.13279480      -0.14427406      -0.00233165       0.00669999      -0.00545168      -0.03850704       0.11577664       0.11247426       0.00467581       0.00669999      -0.00545168       0.06535534       0.11577664       0.11247426       0.00351101       0.00701937       0.00677526       0.06519910       0.13279480      -0.15184960       0.00986279      -0.01282376      -0.00335418      -0.04241261       0.55008510      -0.03846491       0.00519965       0.00627971       0.01409294       0.01020563      -0.00597554       0.00955975       0.01504691       0.02798971       0.01305795      -0.00239054      -0.01157973       0.00982692       0.00264199      -0.00206760       0.00239609       0.01391353       0.00535049       0.00382971       0.05254232      -0.12002449      -0.05598929       0.05422717      -0.10650925       0.05661225       0.00291365      -0.00491282      -0.00232796       0.00416346      -0.00353410       0.00472522      -0.04963519      -0.10650925      -0.04229277      -0.07276244      -0.12002449       0.07564583      -0.00284400      -0.00353410      -0.00194778      -0.00240992      -0.00491282       0.00325814       0.00290080      -0.00051292      -0.01611350       0.00654796      -0.00375981      -0.00530399       0.00593766      -0.01595058       0.00022411       0.23255249       0.79113132      -0.23955317       0.00175894      -0.00346966      -0.00279900       0.01779818       0.00830124      -0.01282797       0.01881855       0.02868301      -0.02045472      -0.00481003      -0.01233912      -0.00874818       0.11295469       0.10525400       0.04651682      -0.15055556       0.14724163      -0.06873071      -0.14558258       0.14724163       0.06290440       0.11295471       0.10525400      -0.05238820      -0.00535145       0.00732751       0.00420741       0.00673839       0.00638282      -0.00286646       0.00707772       0.00638282       0.00271964      -0.00535145       0.00732751      -0.00246559      -0.00501065      -0.00992083      -0.00006335      -0.24048631       0.80183949      -0.24006366      -0.01295619       0.00950212      -0.01954031      -0.00941571      -0.00922273      -0.00889675      -0.01678302       0.02351909      -0.01725919       0.00027072      -0.01041907      -0.00498652      -0.00285553      -0.00244774      -0.00284772      -0.02025105       0.01018144      -0.01291760 </v>
    <v>       0.00046969      -0.00016378       0.00769060       0.34727673       0.33032544      -3.63838701      -0.00079805      -0.00075911      -0.04630810      -0.00014009       0.00047729       0.00769060      -0.00251410       0.00191153       0.00971165       0.00079782       0.00075888       0.01359730       0.00060540       0.00057586       0.00441203       0.00178343      -0.00260653       0.00971165      -0.01854300       0.02041026       0.03058970       0.00024590       0.00617871      -0.01595825      -0.00910395      -0.00391632      -0.01149793      -0.22754952       0.25597911       0.81399621      -0.00274930       0.00203708      -0.00320046      -0.01705239       0.00456252       0.00107806      -0.01196226       0.01940622       0.00952861      -0.00465316       0.00678364      -0.00326923       0.00360141       0.00677526       0.00636415       0.06813857      -0.15184960       0.14691197      -0.00222315      -0.00545168       0.00721979      -0.03671502       0.11247426       0.10505263       0.00445821      -0.00545168       0.00721979       0.06231387       0.11247426       0.10505263      -0.00198200       0.00696875       0.00636415      -0.06328215      -0.14427406       0.14691197       0.00940380      -0.00335418      -0.01250395      -0.04043883      -0.03846491       0.55375261       0.01481611       0.01409294       0.02669534      -0.00287979       0.00955975      -0.01250395       0.00448822       0.01305795       0.00498534       0.01033118       0.00982692      -0.00689976       0.00251904       0.00239609      -0.00229606       0.01326603       0.00382971       0.00498534      -0.14825279       0.07564583       0.14691197       0.11049782      -0.04229277       0.10505263       0.00694686       0.00325814       0.00636415      -0.00555602      -0.00194778       0.00721979       0.11544925       0.05661225       0.10505263      -0.14725774      -0.05598929       0.14691197      -0.00522195       0.00472522       0.00721979       0.00686093      -0.00232796       0.00636415      -0.01694037      -0.01611350       0.02511007      -0.00004114      -0.00530399      -0.00992849      -0.00529941       0.00022411      -0.00992849      -0.25184596      -0.23955317       0.82470438      -0.00294263      -0.00279900      -0.00217855      -0.02112254      -0.01282797       0.01140882      -0.01386805      -0.02045472       0.01140882      -0.00919709      -0.00874818      -0.00838154      -0.05507647      -0.05238820      -0.10671063      -0.06566762       0.06290440      -0.12035416       0.05954238      -0.06873071      -0.12035416       0.04890385       0.04651682      -0.10671063      -0.00259211      -0.00246559      -0.00364183      -0.00273390       0.00271964      -0.00493150       0.00257955      -0.00286646      -0.00493150       0.00442331       0.00420741      -0.00364183       0.00618328      -0.00006335      -0.01595825       0.24428135      -0.24006366       0.81399621       0.01945758      -0.01954031       0.03058970      -0.00436661      -0.00889675      -0.01149793       0.00370420      -0.01725919       0.00107806       0.00654249      -0.00498652      -0.00326923       0.00189707      -0.00284772      -0.00320046       0.01878383      -0.01291760       0.00952861 </v>
    <v>       0.00773930       0.00079205      -0.00014009       0.00951077      -0.00255500      -0.00079805      -3.57042366       0.36422692       0.34727673       0.01372055       0.00049261       0.00046969      -0.04620552       0.00187048       0.00178343       0.00453051       0.00063495       0.00060540       0.00773930      -0.00010222       0.00079782       0.00951077      -0.00091881      -0.00251410       0.77785257      -0.23865595      -0.22754952      -0.01017211      -0.00954831      -0.00910395      -0.01040430      -0.00464672       0.00024590       0.00820972      -0.01285985      -0.01854300      -0.01040430       0.00002435      -0.00465316       0.00820972      -0.01913434      -0.01196226       0.02178354      -0.01788470      -0.01705239      -0.00273505      -0.00288349      -0.00274930      -0.10572227       0.06535534       0.06231387      -0.00344240       0.00467581       0.00445821      -0.12040314       0.06519910      -0.06328215      -0.00485770       0.00351101      -0.00198200      -0.12040314      -0.06010564       0.06813857      -0.00485770      -0.00181256       0.00360141      -0.10572227      -0.03850704      -0.03671502      -0.00344240      -0.00233165      -0.00222315      -0.01181909       0.01020563      -0.00287979       0.00680032       0.00519965       0.01481611       0.54583859      -0.04241261      -0.04043883      -0.00497087       0.00986279       0.00940380       0.02943954       0.01391353       0.01326603      -0.00180307       0.00264199       0.00251904      -0.01181909      -0.00239054       0.01033118       0.00680032       0.01504691       0.00448822       0.00679170      -0.00284400      -0.00522195       0.00707449      -0.00240992       0.00686093       0.11656359      -0.04963519       0.11544925       0.13241623      -0.07276244      -0.14725774       0.00707449       0.00291365       0.00694686       0.00679170       0.00416346      -0.00555602       0.13241623       0.05254232      -0.14825279       0.11656359       0.05422717       0.11049782       0.81441576       0.23255249      -0.25184596      -0.00313474       0.00593766      -0.00529941      -0.01532552       0.00654796      -0.00004114      -0.00022247       0.00290080      -0.01694037      -0.01282072      -0.00481003      -0.00919709       0.01013437       0.01881855      -0.01386805       0.03051614       0.01779818      -0.02112254      -0.00329354       0.00175894      -0.00294263       0.11656359       0.11295469      -0.05507647       0.13241623      -0.15055556      -0.06566762       0.13241623      -0.14558258       0.05954238       0.11656359       0.11295471       0.04890385       0.00679170      -0.00535145      -0.00259211       0.00707449       0.00673839      -0.00273390       0.00707449       0.00707772       0.00257955       0.00679170      -0.00535145       0.00442331      -0.01282072      -0.00941571      -0.00436661       0.01013437      -0.01295619       0.01945758       0.81441576      -0.24048631       0.24428135      -0.00313474      -0.00501065       0.00618328       0.03051614      -0.02025105       0.01878383      -0.00329354      -0.00285553       0.00189707      -0.01532552       0.00027072       0.00654249      -0.00022247      -0.01678302       0.00370420 </v>
    <v>       0.00079205       0.01365623       0.00047729      -0.00255500       0.00976659      -0.00075911       0.36422692      -3.60689155       0.33032544       0.00049261       0.00767498      -0.00016378       0.00187048       0.00946313      -0.00260653       0.00063495       0.00446694       0.00057586      -0.00010222       0.00774953       0.00075888      -0.00091881      -0.04625316       0.00191153      -0.23865595       0.83840286       0.25597911      -0.00954831      -0.01187133      -0.00391632      -0.00464672      -0.00265127       0.00617871      -0.01285985       0.01142679       0.02041026       0.00002435      -0.01534029       0.00678364      -0.01913434       0.03248788       0.01940622      -0.01788470       0.00151308       0.00456252      -0.00288349      -0.00300623       0.00203708      -0.03850704       0.11577664       0.11247426      -0.00233165       0.00669999      -0.00545168      -0.06010564       0.13279480      -0.14427406      -0.00181256       0.00701937       0.00696875       0.06519910       0.13279480      -0.15184960       0.00351101       0.00701937       0.00677526       0.06535534       0.11577664       0.11247426       0.00467581       0.00669999      -0.00545168       0.01020563      -0.00597554       0.00955975       0.00519965       0.00627971       0.01409294      -0.04241261       0.55008510      -0.03846491       0.00986279      -0.01282376      -0.00335418       0.01391353       0.00535049       0.00382971       0.00264199      -0.00206760       0.00239609      -0.00239054      -0.01157973       0.00982692       0.01504691       0.02798971       0.01305795       0.00416346      -0.00353410       0.00472522       0.00291365      -0.00491282      -0.00232796       0.05422717      -0.10650925       0.05661225       0.05254232      -0.12002449      -0.05598929      -0.00240992      -0.00491282       0.00325814      -0.00284400      -0.00353410      -0.00194778      -0.07276244      -0.12002449       0.07564583      -0.04963519      -0.10650925      -0.04229277       0.23255249       0.79113132      -0.23955317       0.00593766      -0.01595058       0.00022411       0.00654796      -0.00375981      -0.00530399       0.00290080      -0.00051292      -0.01611350      -0.00481003      -0.01233912      -0.00874818       0.01881855       0.02868301      -0.02045472       0.01779818       0.00830124      -0.01282797       0.00175894      -0.00346966      -0.00279900       0.11295471       0.10525400      -0.05238820      -0.14558258       0.14724163       0.06290440      -0.15055556       0.14724163      -0.06873071       0.11295469       0.10525400       0.04651682      -0.00535145       0.00732751      -0.00246559       0.00707772       0.00638282       0.00271964       0.00673839       0.00638282      -0.00286646      -0.00535145       0.00732751       0.00420741      -0.00941571      -0.00922273      -0.00889675      -0.01295619       0.00950212      -0.01954031      -0.24048631       0.80183949      -0.24006366      -0.00501065      -0.00992083      -0.00006335      -0.02025105       0.01018144      -0.01291760      -0.00285553      -0.00244774      -0.00284772       0.00027072      -0.01041907      -0.00498652      -0.01678302       0.02351909      -0.01725919 </v>
[...]
      </set>
     </set>
    </set>
   </array>
  </eigenvalues>
  <separator name="orbital magnetization" >
   <v name="MAGDIPOLOUT">      0.00000000      0.00000000      0.00000000</v>
  </separator>
  <dos>
   <i name="efermi">      9.87388178 </i>
   <total>
    <array>
     <dimension dim="1">gridpoints</dimension>
     <dimension dim="2">spin</dimension>
     <field>energy</field>
     <field>total</field>
     <field>integrated</field>
     <set>
      <set comment="spin 1">
       <r>   -13.4181     0.0000     0.0000 </r>
       <r>   -13.2968     0.0000     0.0000 </r>
       <r>   -13.1755     0.0000     0.0000 </r>
       <r>   -13.0543     0.0000     0.0000 </r>
       <r>   -12.9330     0.0000     0.0000 </r>
       <r>   -12.8117     0.0000     0.0000 </r>
       <r>   -12.6905     0.0000     0.0000 </r>
       <r>   -12.5692     0.0000     0.0000 </r>
       <r>   -12.4479     0.0000     0.0000 </r>
       <r>   -12.3266     0.0000     0.0000 </r>
       <r>   -12.2054     0.0000     0.0000 </r>
       <r>   -12.0841     0.0000     0.0000 </r>
       <r>   -11.9628     0.0000     0.0000 </r>
       <r>   -11.8415     0.0028     0.0003 </r>
       <r>   -11.7203     0.2357     0.0289 </r>
       <r>   -11.5990     1.2225     0.1772 </r>
       <r>   -11.4777     1.4537     0.3535 </r>
       <r>   -11.3565     2.7440     0.6862 </r>
       <r>   -11.2352     1.6607     0.8876 </r>
       <r>   -11.1139     3.5313     1.3159 </r>
       <r>   -10.9926     2.9774     1.6770 </r>
       <r>   -10.8714     3.3779     2.0866 </r>
       <r>   -10.7501     2.9113     2.4397 </r>
       <r>   -10.6288     4.4523     2.9796 </r>
       <r>   -10.5075     4.7365     3.5541 </r>
       <r>   -10.3863     3.9232     4.0298 </r>
       <r>   -10.2650     3.5518     4.4606 </r>
       <r>   -10.1437     4.6015     5.0186 </r>
       <r>   -10.0225     6.0742     5.7552 </r>
       <r>    -9.9012     4.6763     6.3223 </r>
       <r>    -9.7799     6.0053     7.0506 </r>
       <r>    -9.6586     3.8454     7.5170 </r>
       <r>    -9.5374     5.2452     8.1531 </r>
       <r>    -9.4161     6.1465     8.8985 </r>
       <r>    -9.2948     7.5747     9.8171 </r>
       <r>    -9.1735     5.3801    10.4695 </r>
       <r>    -9.0523     6.0794    11.2068 </r>
       <r>    -8.9310     7.3087    12.0932 </r>
       <r>    -8.8097     4.2410    12.6075 </r>
       <r>    -8.6885     7.0901    13.4673 </r>
       <r>    -8.5672     8.1582    14.4567 </r>
       <r>    -8.4459     6.8601    15.2886 </r>
       <r>    -8.3246     7.3540    16.1805 </r>
       <r>    -8.2034     8.6317    17.2273 </r>
       <r>    -8.0821     6.6073    18.0285 </r>
       <r>    -7.9608     6.8304    18.8569 </r>
       <r>    -7.8395     6.7592    19.6766 </r>
       <r>    -7.7183     8.5849    20.7177 </r>
       <r>    -7.5970     7.6627    21.6470 </r>
       <r>    -7.4757    11.9058    23.0908 </r>
       <r>    -7.3544     9.8972    24.2911 </r>
       <r>    -7.2332     7.0907    25.1510 </r>
       <r>    -7.1119     6.2870    25.9135 </r>
       <r>    -6.9906    10.3783    27.1721 </r>
       <r>    -6.8694    11.1979    28.5301 </r>
       <r>    -6.7481     8.3969    29.5484 </r>
       <r>    -6.6268    12.4660    31.0602 </r>
       <r>    -6.5055     9.1280    32.1671 </r>
       <r>    -6.3843    10.0348    33.3841 </r>
       <r>    -6.2630    10.8650    34.7017 </r>
       <r>    -6.1417    10.9920    36.0348 </r>
       <r>    -6.0204    10.5344    37.3123 </r>
       <r>    -5.8992    10.3154    38.5633 </r>
       <r>    -5.7779     8.0406    39.5384 </r>
       <r>    -5.6566    10.4800    40.8093 </r>
       <r>    -5.5354    12.7689    42.3579 </r>
       <r>    -5.4141    14.4151    44.1060 </r>
       <r>    -5.2928    13.0174    45.6847 </r>
       <r>    -5.1715    10.1702    46.9180 </r>
       <r>    -5.0503     9.1462    48.0272 </r>
       <r>    -4.9290     9.6142    49.1932 </r>
       <r>    -4.8077     8.3829    50.2098 </r>
       <r>    -4.6864     7.9689    51.1762 </r>
       <r>    -4.5652     7.5581    52.0928 </r>
       <r>    -4.4439    14.7128    53.8771 </r>
       <r>    -4.3226     9.7843    55.0636 </r>
       <r>    -4.2014     5.8193    55.7693 </r>
       <r>    -4.0801     8.9933    56.8600 </r>
       <r>    -3.9588     7.2274    57.7365 </r>
       <r>    -3.8375     7.1281    58.6009 </r>
       <r>    -3.7163     6.5003    59.3892 </r>
       <r>    -3.5950     8.7215    60.4469 </r>
       <r>    -3.4737     6.8782    61.2811 </r>
       <r>    -3.3524    10.4949    62.5538 </r>
       <r>    -3.2312     7.6101    63.4767 </r>
       <r>    -3.1099     6.6493    64.2831 </r>
       <r>    -2.9886     6.1353    65.0271 </r>
       <r>    -2.8674     9.3074    66.1559 </r>
       <r>    -2.7461    11.5855    67.5609 </r>
       <r>    -2.6248     8.5854    68.6020 </r>
       <r>    -2.5035     7.1504    69.4692 </r>
       <r>    -2.3823    11.4565    70.8585 </r>
       <r>    -2.2610    10.7431    72.1614 </r>
       <r>    -2.1397    10.7966    73.4707 </r>
       <r>    -2.0184    17.3094    75.5699 </r>
       <r>    -1.8972    21.7154    78.2034 </r>
       <r>    -1.7759    15.0490    80.0284 </r>
       <r>    -1.6546    17.2885    82.1250 </r>
       <r>    -1.5334    16.8786    84.1720 </r>
       <r>    -1.4121    11.3730    85.5512 </r>
       <r>    -1.2908    13.1455    87.1454 </r>
       <r>    -1.1695    17.6803    89.2895 </r>
       <r>    -1.0483    14.6929    91.0714 </r>
       <r>    -0.9270    11.3717    92.4504 </r>
       <r>    -0.8057    10.8132    93.7618 </r>
       <r>    -0.6844     9.2377    94.8821 </r>
       <r>    -0.5632     9.2834    96.0079 </r>
       <r>    -0.4419    11.4545    97.3970 </r>
       <r>    -0.3206    10.0812    98.6196 </r>
       <r>    -0.1993    11.4596   100.0093 </r>
       <r>    -0.0781    11.5973   101.4158 </r>
       <r>     0.0432     7.6603   102.3448 </r>
       <r>     0.1645     6.9013   103.1817 </r>
       <r>     0.2857     7.1532   104.0492 </r>
       <r>     0.4070     8.3692   105.0641 </r>
       <r>     0.5283    13.2216   106.6676 </r>
       <r>     0.6496    12.7719   108.2165 </r>
       <r>     0.7708    15.8883   110.1433 </r>
       <r>     0.8921    16.8817   112.1906 </r>
       <r>     1.0134    16.8494   114.2340 </r>
       <r>     1.1347    14.8614   116.0362 </r>
       <r>     1.2559    18.1296   118.2349 </r>
       <r>     1.3772    15.3438   120.0957 </r>
       <r>     1.4985    14.9747   121.9117 </r>
       <r>     1.6197    16.8873   123.9596 </r>
       <r>     1.7410    16.6951   125.9843 </r>
       <r>     1.8623    15.5849   127.8743 </r>
       <r>     1.9836    15.7821   129.7883 </r>
       <r>     2.1048    19.8016   132.1897 </r>
       <r>     2.2261    20.7505   134.7061 </r>
       <r>     2.3474    17.3847   136.8144 </r>
       <r>     2.4687    13.1155   138.4050 </r>
       <r>     2.5899    19.9529   140.8247 </r>
       <r>     2.7112    17.7007   142.9714 </r>
       <r>     2.8325    21.5702   145.5872 </r>
       <r>     2.9537    23.2380   148.4054 </r>
       <r>     3.0750    22.1480   151.0913 </r>
       <r>     3.1963    19.4617   153.4515 </r>
       <r>     3.3176    22.5168   156.1822 </r>
       <r>     3.4388    21.1821   158.7510 </r>
       <r>     3.5601    27.4758   162.0831 </r>
       <r>     3.6814    23.6866   164.9556 </r>
       <r>     3.8027    19.6524   167.3389 </r>
       <r>     3.9239    25.4444   170.4246 </r>
       <r>     4.0452    24.3384   173.3762 </r>
       <r>     4.1665    25.3924   176.4556 </r>
       <r>     4.2877    27.6083   179.8037 </r>
       <r>     4.4090    25.9657   182.9527 </r>
       <r>     4.5303    22.0889   185.6315 </r>
       <r>     4.6516    21.5726   188.2476 </r>
       <r>     4.7728    20.8792   190.7797 </r>
       <r>     4.8941    23.3028   193.6057 </r>
       <r>     5.0154    24.7458   196.6067 </r>
       <r>     5.1367    27.5519   199.9480 </r>
       <r>     5.2579    21.1857   202.5173 </r>
       <r>     5.3792    23.1892   205.3295 </r>
       <r>     5.5005    21.2928   207.9117 </r>
       <r>     5.6218    21.0335   210.4625 </r>
       <r>     5.7430    19.6946   212.8510 </r>
       <r>     5.8643    18.6109   215.1080 </r>
       <r>     5.9856    26.4207   218.3121 </r>
       <r>     6.1068    26.1403   221.4822 </r>
       <r>     6.2281    20.4740   223.9651 </r>
       <r>     6.3494    18.7894   226.2438 </r>
       <r>     6.4707    18.4995   228.4873 </r>
       <r>     6.5919    17.0225   230.5516 </r>
       <r>     6.7132    19.5846   232.9267 </r>
       <r>     6.8345    20.6681   235.4332 </r>
       <r>     6.9558    17.8621   237.5994 </r>
       <r>     7.0770    13.0300   239.1796 </r>
       <r>     7.1983    12.6239   240.7105 </r>
       <r>     7.3196    12.0464   242.1714 </r>
       <r>     7.4408    12.9186   243.7381 </r>
       <r>     7.5621    10.6738   245.0325 </r>
       <r>     7.6834    10.5338   246.3100 </r>
       <r>     7.8047    13.1221   247.9014 </r>
       <r>     7.9259     8.2908   248.9068 </r>
       <r>     8.0472     4.7325   249.4807 </r>
       <r>     8.1685     6.5821   250.2790 </r>
       <r>     8.2898     9.0580   251.3774 </r>
       <r>     8.4110     6.2068   252.1302 </r>
       <r>     8.5323     5.5859   252.8076 </r>
       <r>     8.6536     5.3539   253.4569 </r>
       <r>     8.7748     4.0153   253.9438 </r>
       <r>     8.8961     4.0515   254.4352 </r>
       <r>     9.0174     3.7518   254.8901 </r>
       <r>     9.1387     3.4010   255.3026 </r>
       <r>     9.2599     2.4521   255.6000 </r>
       <r>     9.3812     1.7089   255.8072 </r>
       <r>     9.5025     1.1461   255.9462 </r>
       <r>     9.6238     0.3967   255.9943 </r>
       <r>     9.7450     0.0467   256.0000 </r>
       <r>     9.8663     0.0000   256.0000 </r>
       <r>     9.9876     0.0000   256.0000 </r>
       <r>    10.1088     0.0000   256.0000 </r>
       <r>    10.2301     0.0000   256.0000 </r>
       <r>    10.3514     0.0000   256.0000 </r>
       <r>    10.4727     0.0000   256.0000 </r>
       <r>    10.5939     0.0000   256.0000 </r>
       <r>    10.7152     0.0000   256.0000 </r>
       <r>    10.8365     0.0000   256.0000 </r>
       <r>    10.9578     0.0000   256.0000 </r>
       <r>    11.0790     0.0000   256.0000 </r>
       <r>    11.2003     0.0000   256.0000 </r>
       <r>    11.3216     0.0000   256.0000 </r>
       <r>    11.4428     0.0000   256.0000 </r>
       <r>    11.5641     0.0000   256.0000 </r>
       <r>    11.6854     0.0000   256.0000 </r>
       <r>    11.8067     0.0000   256.0000 </r>
       <r>    11.9279     0.0000   256.0000 </r>
       <r>    12.0492     0.0000   256.0000 </r>
       <r>    12.1705     0.0000   256.0000 </r>
       <r>    12.2918     0.0000   256.0000 </r>
       <r>    12.4130     0.0000   256.0000 </r>
       <r>    12.5343     0.0000   256.0000 </r>
       <r>    12.6556     0.0000   256.0000 </r>
       <r>    12.7769     0.0000   256.0000 </r>
       <r>    12.8981     0.0000   256.0000 </r>
       <r>    13.0194     0.0000   256.0000 </r>
       <r>    13.1407     0.0000   256.0000 </r>
       <r>    13.2619     0.0082   256.0010 </r>
       <r>    13.3832     0.8898   256.1089 </r>
       <r>    13.5045     1.9428   256.3445 </r>
       <r>    13.6258     5.5113   257.0129 </r>
       <r>    13.7470     4.7314   257.5867 </r>
       <r>    13.8683     5.3090   258.2305 </r>
       <r>    13.9896     7.9853   259.1989 </r>
       <r>    14.1109     5.4332   259.8578 </r>
       <r>    14.2321     8.6099   260.9020 </r>
       <r>    14.3534    11.4380   262.2891 </r>
       <r>    14.4747     9.4115   263.4304 </r>
       <r>    14.5959    10.2080   264.6684 </r>
       <r>    14.7172    11.3906   266.0498 </r>
       <r>    14.8385     9.0286   267.1447 </r>
       <r>    14.9598    10.4951   268.4175 </r>
       <r>    15.0810    10.7988   269.7271 </r>
       <r>    15.2023    10.8823   271.0468 </r>
       <r>    15.3236    16.0135   272.9888 </r>
       <r>    15.4449    12.9048   274.5538 </r>
       <r>    15.5661    13.1437   276.1478 </r>
       <r>    15.6874    15.9007   278.0761 </r>
       <r>    15.8087    15.4701   279.9522 </r>
       <r>    15.9299    14.0127   281.6516 </r>
       <r>    16.0512    22.1504   284.3378 </r>
       <r>    16.1725    23.3396   287.1683 </r>
       <r>    16.2938    18.3932   289.3989 </r>
       <r>    16.4150    23.3485   292.2304 </r>
       <r>    16.5363    27.3841   295.5514 </r>
       <r>    16.6576    26.8595   298.8087 </r>
       <r>    16.7789    28.0335   302.2084 </r>
       <r>    16.9001    23.9262   305.1100 </r>
       <r>    17.0214    14.5751   306.8776 </r>
       <r>    17.1427    24.5054   309.8494 </r>
       <r>    17.2639    19.6906   312.2373 </r>
       <r>    17.3852    18.4906   314.4797 </r>
       <r>    17.5065    17.3654   316.5857 </r>
       <r>    17.6278    22.7908   319.3496 </r>
       <r>    17.7490    25.2788   322.4152 </r>
       <r>    17.8703    21.5905   325.0336 </r>
       <r>    17.9916    28.9317   328.5422 </r>
       <r>    18.1129    24.8784   331.5593 </r>
       <r>    18.2341    26.1331   334.7285 </r>
       <r>    18.3554    32.6258   338.6851 </r>
       <r>    18.4767    39.9507   343.5301 </r>
       <r>    18.5980    39.3818   348.3060 </r>
       <r>    18.7192    36.7202   352.7592 </r>
       <r>    18.8405    30.8836   356.5045 </r>
       <r>    18.9618    30.6152   360.2173 </r>
       <r>    19.0830    29.2727   363.7673 </r>
       <r>    19.2043    26.0295   366.9240 </r>
       <r>    19.3256    29.3020   370.4775 </r>
       <r>    19.4469    21.1187   373.0386 </r>
       <r>    19.5681    18.4253   375.2731 </r>
       <r>    19.6894    21.6633   377.9003 </r>
       <r>    19.8107    20.3676   380.3703 </r>
       <r>    19.9320    11.3516   381.7470 </r>
       <r>    20.0532     7.9885   382.7158 </r>
       <r>    20.1745     2.4871   383.0174 </r>
       <r>    20.2958     3.9692   383.4987 </r>
       <r>    20.4170     0.9376   383.6125 </r>
       <r>    20.5383     1.3734   383.7790 </r>
       <r>    20.6596     1.4915   383.9599 </r>
       <r>    20.7809     0.0254   383.9630 </r>
       <r>    20.9021     0.0000   383.9630 </r>
       <r>    21.0234     0.0000   383.9630 </r>
       <r>    21.1447     0.0000   383.9630 </r>
       <r>    21.2660     0.0456   383.9685 </r>
       <r>    21.3872     0.2492   383.9987 </r>
       <r>    21.5085     0.0105   384.0000 </r>
       <r>    21.6298     0.0000   384.0000 </r>
       <r>    21.7510     0.0000   384.0000 </r>
       <r>    21.8723     0.0000   384.0000 </r>
       <r>    21.9936     0.0000   384.0000 </r>
       <r>    22.1149     0.0000   384.0000 </r>
       <r>    22.2361     0.0000   384.0000 </r>
       <r>    22.3574     0.0000   384.0000 </r>
       <r>    22.4787     0.0000   384.0000 </r>
       <r>    22.6000     0.0000   384.0000 </r>
       <r>    22.7212     0.0000   384.0000 </r>
       <r>    22.8425     0.0000   384.0000 </r>
       <r>    22.9638     0.0000   384.0000 </r>
      </set>
     </set>
    </array>
   </total>
  </dos>
 </calculation>
 <structure name="finalpos" >
  <crystal>
   <varray name="basis" >
    <v>       7.17999872       0.00000000       0.00000000 </v>
    <v>       0.35899893       7.17101797       0.00000000 </v>
    <v>       0.35899893       0.34147743       7.16288306 </v>
   </varray>
   <i name="volume">    368.80180525 </i>
   <varray name="rec_basis" >
    <v>       0.13927579      -0.00697249      -0.00664801 </v>
    <v>       0.00000000       0.13945022      -0.00664804 </v>
    <v>       0.00000000       0.00000000       0.13960859 </v>
   </varray>
  </crystal>
  <varray name="positions" >
   <v>       0.12500000       0.37500000       0.12500000 </v>
   <v>       0.62500000       0.37500000       0.12500000 </v>
   <v>       0.12500000       0.87500000       0.12500000 </v>
   <v>       0.62500000       0.87500000       0.12500000 </v>
   <v>       0.12500000       0.37500000       0.62500000 </v>
   <v>       0.62500000       0.37500000       0.62500000 </v>
   <v>       0.12500000       0.87500000       0.62500000 </v>
   <v>       0.62500000       0.87500000       0.62500000 </v>
   <v>       0.00000000       0.00000000       0.25000000 </v>
   <v>       0.50000000       0.00000000       0.25000000 </v>
   <v>       0.00000000       0.50000000       0.25000000 </v>
   <v>       0.50000000       0.50000000       0.25000000 </v>
   <v>       0.00000000       0.00000000       0.75000000 </v>
   <v>       0.50000000       0.00000000       0.75000000 </v>
   <v>       0.00000000       0.50000000       0.75000000 </v>
   <v>       0.50000000       0.50000000       0.75000000 </v>
   <v>       0.12500000       0.12500000       0.37500000 </v>
   <v>       0.62500000       0.12500000       0.37500000 </v>
   <v>       0.12500000       0.62500000       0.37500000 </v>
   <v>       0.62500000       0.62500000       0.37500000 </v>
   <v>       0.12500000       0.12500000       0.87500000 </v>
   <v>       0.62500000       0.12500000       0.87500000 </v>
   <v>       0.12500000       0.62500000       0.87500000 </v>
   <v>       0.62500000       0.62500000       0.87500000 </v>
   <v>       0.00000000       0.25000000       0.00000000 </v>
   <v>       0.50000000       0.25000000       0.00000000 </v>
   <v>       0.00000000       0.75000000       0.00000000 </v>
   <v>       0.50000000       0.75000000       0.00000000 </v>
   <v>       0.00000000       0.25000000       0.50000000 </v>
   <v>       0.50000000       0.25000000       0.50000000 </v>
   <v>       0.00000000       0.75000000       0.50000000 </v>
   <v>       0.50000000       0.75000000       0.50000000 </v>
   <v>       0.37500000       0.37500000       0.37500000 </v>
   <v>       0.87500000       0.37500000       0.37500000 </v>
   <v>       0.37500000       0.87500000       0.37500000 </v>
   <v>       0.87500000       0.87500000       0.37500000 </v>
   <v>       0.37500000       0.37500000       0.87500000 </v>
   <v>       0.87500000       0.37500000       0.87500000 </v>
   <v>       0.37500000       0.87500000       0.87500000 </v>
   <v>       0.87500000       0.87500000       0.87500000 </v>
   <v>       0.25000000       0.00000000       0.00000000 </v>
   <v>       0.75000000       0.00000000       0.00000000 </v>
   <v>       0.25000000       0.50000000       0.00000000 </v>
   <v>       0.75000000       0.50000000       0.00000000 </v>
   <v>       0.25000000       0.00000000       0.50000000 </v>
   <v>       0.75000000       0.00000000       0.50000000 </v>
   <v>       0.25000000       0.50000000       0.50000000 </v>
   <v>       0.75000000       0.50000000       0.50000000 </v>
   <v>       0.37500000       0.12500000       0.12500000 </v>
   <v>       0.87500000       0.12500000       0.12500000 </v>
   <v>       0.37500000       0.62500000       0.12500000 </v>
   <v>       0.87500000       0.62500000       0.12500000 </v>
   <v>       0.37500000       0.12500000       0.62500000 </v>
   <v>       0.87500000       0.12500000       0.62500000 </v>
   <v>       0.37500000       0.62500000       0.62500000 </v>
   <v>       0.87500000       0.62500000       0.62500000 </v>
   <v>       0.25000000       0.25000000       0.25000000 </v>
   <v>       0.75000000       0.25000000       0.25000000 </v>
   <v>       0.25000000       0.75000000       0.25000000 </v>
   <v>       0.75000000       0.75000000       0.25000000 </v>
   <v>       0.25000000       0.25000000       0.75000000 </v>
   <v>       0.75000000       0.25000000       0.75000000 </v>
   <v>       0.25000000       0.75000000       0.75000000 </v>
   <v>       0.75000000       0.75000000       0.75000000 </v>
  </varray>
 </structure>
</modeling>
