  64  64   0   0
  0.5783532E+01  0.7179999E-09  0.7179999E-09  0.7179999E-09  0.5000000E-15
  1.000000000000000E-004
  CAR 
 unknown system                          
     22.67210648    -13.38093263  301      9.82070024      1.00000000
    -13.381  0.0000E+00  0.0000E+00
    -13.261  0.0000E+00  0.0000E+00
    -13.141  0.0000E+00  0.0000E+00
    -13.020  0.0000E+00  0.0000E+00
    -12.900  0.0000E+00  0.0000E+00
    -12.780  0.0000E+00  0.0000E+00
    -12.660  0.0000E+00  0.0000E+00
    -12.540  0.0000E+00  0.0000E+00
    -12.420  0.0000E+00  0.0000E+00
    -12.299  0.0000E+00  0.0000E+00
    -12.179  0.0000E+00  0.0000E+00
    -12.059  0.3144E-14  0.3778E-15
    -11.939  0.1376E-06  0.1654E-07
    -11.819  0.2982E-02  0.3583E-03
    -11.698  0.2350E+00  0.2860E-01
    -11.578  0.1222E+01  0.1755E+00
    -11.458  0.1407E+01  0.3446E+00
    -11.338  0.2835E+01  0.6853E+00
    -11.218  0.1524E+01  0.8684E+00
    -11.098  0.3551E+01  0.1295E+01
    -10.977  0.2857E+01  0.1639E+01
    -10.857  0.3841E+01  0.2100E+01
    -10.737  0.2310E+01  0.2378E+01
    -10.617  0.4641E+01  0.2936E+01
    -10.497  0.4331E+01  0.3456E+01
    -10.377  0.5036E+01  0.4061E+01
    -10.256  0.2352E+01  0.4344E+01
    -10.136  0.4650E+01  0.4903E+01
    -10.016  0.6369E+01  0.5668E+01
     -9.896  0.5532E+01  0.6333E+01
     -9.776  0.4394E+01  0.6861E+01
     -9.655  0.4085E+01  0.7352E+01
     -9.535  0.6891E+01  0.8180E+01
     -9.415  0.5065E+01  0.8789E+01
     -9.295  0.5573E+01  0.9459E+01
     -9.175  0.6723E+01  0.1027E+02
     -9.055  0.7399E+01  0.1116E+02
     -8.934  0.6053E+01  0.1188E+02
     -8.814  0.5552E+01  0.1255E+02
     -8.694  0.3737E+01  0.1300E+02
     -8.574  0.9353E+01  0.1412E+02
     -8.454  0.7315E+01  0.1500E+02
     -8.334  0.9389E+01  0.1613E+02
     -8.213  0.5921E+01  0.1684E+02
     -8.093  0.6394E+01  0.1761E+02
     -7.973  0.7018E+01  0.1845E+02
     -7.853  0.8148E+01  0.1943E+02
     -7.733  0.6208E+01  0.2018E+02
     -7.612  0.1092E+02  0.2149E+02
     -7.492  0.9286E+01  0.2261E+02
     -7.372  0.6176E+01  0.2335E+02
     -7.252  0.7042E+01  0.2420E+02
     -7.132  0.1331E+02  0.2580E+02
     -7.012  0.8972E+01  0.2687E+02
     -6.891  0.4832E+01  0.2745E+02
     -6.771  0.9039E+01  0.2854E+02
     -6.651  0.1018E+02  0.2976E+02
     -6.531  0.1058E+02  0.3104E+02
     -6.411  0.1194E+02  0.3247E+02
     -6.291  0.1160E+02  0.3386E+02
     -6.170  0.1268E+02  0.3539E+02
     -6.050  0.9249E+01  0.3650E+02
     -5.930  0.1029E+02  0.3774E+02
     -5.810  0.1010E+02  0.3895E+02
     -5.690  0.1627E+02  0.4091E+02
     -5.569  0.1184E+02  0.4233E+02
     -5.449  0.9250E+01  0.4344E+02
     -5.329  0.1168E+02  0.4484E+02
     -5.209  0.1149E+02  0.4622E+02
     -5.089  0.1423E+02  0.4793E+02
     -4.969  0.7246E+01  0.4880E+02
     -4.848  0.9676E+01  0.4997E+02
     -4.728  0.1036E+02  0.5121E+02
     -4.608  0.8798E+01  0.5227E+02
     -4.488  0.3467E+01  0.5269E+02
     -4.368  0.1424E+02  0.5440E+02
     -4.247  0.8450E+01  0.5541E+02
     -4.127  0.4571E+01  0.5596E+02
     -4.007  0.1012E+02  0.5718E+02
     -3.887  0.1034E+02  0.5842E+02
     -3.767  0.9758E+01  0.5959E+02
     -3.647  0.6691E+01  0.6040E+02
     -3.526  0.4116E+01  0.6089E+02
     -3.406  0.6651E+01  0.6169E+02
     -3.286  0.7085E+01  0.6254E+02
     -3.166  0.7271E+01  0.6342E+02
     -3.046  0.9219E+01  0.6453E+02
     -2.926  0.1167E+02  0.6593E+02
     -2.805  0.1186E+02  0.6735E+02
     -2.685  0.8992E+01  0.6843E+02
     -2.565  0.7642E+01  0.6935E+02
     -2.445  0.8153E+01  0.7033E+02
     -2.325  0.1409E+02  0.7202E+02
     -2.204  0.8143E+01  0.7300E+02
     -2.084  0.1139E+02  0.7437E+02
     -1.964  0.1121E+02  0.7572E+02
     -1.844  0.2170E+02  0.7833E+02
     -1.724  0.2901E+02  0.8182E+02
     -1.604  0.2572E+02  0.8491E+02
     -1.483  0.1448E+02  0.8665E+02
     -1.363  0.1162E+02  0.8804E+02
     -1.243  0.1358E+02  0.8967E+02
     -1.123  0.6111E+01  0.9041E+02
     -1.003  0.1024E+02  0.9164E+02
     -0.883  0.1286E+02  0.9318E+02
     -0.762  0.1148E+02  0.9456E+02
     -0.642  0.6233E+01  0.9531E+02
     -0.522  0.1056E+02  0.9658E+02
     -0.402  0.1823E+02  0.9877E+02
     -0.282  0.1346E+02  0.1004E+03
     -0.161  0.7374E+01  0.1013E+03
     -0.041  0.3939E+01  0.1018E+03
      0.079  0.1278E+01  0.1019E+03
      0.199  0.1013E+02  0.1031E+03
      0.319  0.1669E+02  0.1051E+03
      0.439  0.8521E+01  0.1062E+03
      0.560  0.8540E+01  0.1072E+03
      0.680  0.8476E+01  0.1082E+03
      0.800  0.1722E+02  0.1103E+03
      0.920  0.2485E+02  0.1133E+03
      1.040  0.2287E+02  0.1160E+03
      1.160  0.1062E+02  0.1173E+03
      1.281  0.1046E+02  0.1185E+03
      1.401  0.1496E+02  0.1203E+03
      1.521  0.1362E+02  0.1220E+03
      1.641  0.2139E+02  0.1245E+03
      1.761  0.2716E+02  0.1278E+03
      1.882  0.1266E+02  0.1293E+03
      2.002  0.8348E+01  0.1303E+03
      2.122  0.1719E+02  0.1324E+03
      2.242  0.2047E+02  0.1349E+03
      2.362  0.2387E+02  0.1377E+03
      2.482  0.1855E+02  0.1400E+03
      2.603  0.1351E+02  0.1416E+03
      2.723  0.1507E+02  0.1434E+03
      2.843  0.2391E+02  0.1463E+03
      2.963  0.1834E+02  0.1485E+03
      3.083  0.2121E+02  0.1510E+03
      3.203  0.2685E+02  0.1542E+03
      3.324  0.2658E+02  0.1574E+03
      3.444  0.3069E+02  0.1611E+03
      3.564  0.1305E+02  0.1627E+03
      3.684  0.2080E+02  0.1652E+03
      3.804  0.2606E+02  0.1683E+03
      3.925  0.3012E+02  0.1719E+03
      4.045  0.3726E+02  0.1764E+03
      4.165  0.2144E+02  0.1790E+03
      4.285  0.1449E+02  0.1807E+03
      4.405  0.2649E+02  0.1839E+03
      4.525  0.2429E+02  0.1868E+03
      4.646  0.1942E+02  0.1892E+03
      4.766  0.2211E+02  0.1918E+03
      4.886  0.3093E+02  0.1955E+03
      5.006  0.2578E+02  0.1986E+03
      5.126  0.1786E+02  0.2008E+03
      5.246  0.2398E+02  0.2037E+03
      5.367  0.1945E+02  0.2060E+03
      5.487  0.2385E+02  0.2089E+03
      5.607  0.2508E+02  0.2119E+03
      5.727  0.1426E+02  0.2136E+03
      5.847  0.2230E+02  0.2163E+03
      5.968  0.2527E+02  0.2193E+03
      6.088  0.2182E+02  0.2219E+03
      6.208  0.2603E+02  0.2251E+03
      6.328  0.1883E+02  0.2273E+03
      6.448  0.1557E+02  0.2292E+03
      6.568  0.1350E+02  0.2308E+03
      6.689  0.2241E+02  0.2335E+03
      6.809  0.2947E+02  0.2371E+03
      6.929  0.1904E+02  0.2394E+03
      7.049  0.6278E+01  0.2401E+03
      7.169  0.9550E+01  0.2413E+03
      7.289  0.1518E+02  0.2431E+03
      7.410  0.9423E+01  0.2442E+03
      7.530  0.1282E+02  0.2458E+03
      7.650  0.1234E+02  0.2472E+03
      7.770  0.6006E+01  0.2480E+03
      7.890  0.8708E+01  0.2490E+03
      8.011  0.5841E+01  0.2497E+03
      8.131  0.7825E+01  0.2506E+03
      8.251  0.7788E+01  0.2516E+03
      8.371  0.5856E+01  0.2523E+03
      8.491  0.3229E+01  0.2527E+03
      8.611  0.6543E+01  0.2535E+03
      8.732  0.5848E+01  0.2542E+03
      8.852  0.3246E+01  0.2546E+03
      8.972  0.1907E+01  0.2548E+03
      9.092  0.3478E+01  0.2552E+03
      9.212  0.3692E+01  0.2556E+03
      9.332  0.1537E+01  0.2558E+03
      9.453  0.9739E+00  0.2559E+03
      9.573  0.4254E+00  0.2560E+03
      9.693  0.1248E-01  0.2560E+03
      9.813  0.1002E-05  0.2560E+03
      9.933  0.3839E-13  0.2560E+03
     10.054  0.0000E+00  0.2560E+03
     10.174  0.0000E+00  0.2560E+03
     10.294  0.0000E+00  0.2560E+03
     10.414  0.0000E+00  0.2560E+03
     10.534  0.0000E+00  0.2560E+03
     10.654  0.0000E+00  0.2560E+03
     10.775  0.0000E+00  0.2560E+03
     10.895  0.0000E+00  0.2560E+03
     11.015  0.0000E+00  0.2560E+03
     11.135  0.0000E+00  0.2560E+03
     11.255  0.0000E+00  0.2560E+03
     11.375  0.0000E+00  0.2560E+03
     11.496  0.0000E+00  0.2560E+03
     11.616  0.0000E+00  0.2560E+03
     11.736  0.0000E+00  0.2560E+03
     11.856  0.0000E+00  0.2560E+03
     11.976  0.0000E+00  0.2560E+03
     12.097  0.0000E+00  0.2560E+03
     12.217  0.0000E+00  0.2560E+03
     12.337  0.0000E+00  0.2560E+03
     12.457  0.0000E+00  0.2560E+03
     12.577  0.0000E+00  0.2560E+03
     12.697  0.0000E+00  0.2560E+03
     12.818  0.0000E+00  0.2560E+03
     12.938  0.0000E+00  0.2560E+03
     13.058  0.0000E+00  0.2560E+03
     13.178  0.0000E+00  0.2560E+03
     13.298  0.3692E-10  0.2560E+03
     13.418  0.9822E-04  0.2560E+03
     13.539  0.1668E+00  0.2560E+03
     13.659  0.1069E+01  0.2561E+03
     13.779  0.7748E+00  0.2562E+03
     13.899  0.4256E+01  0.2568E+03
     14.019  0.4533E+01  0.2573E+03
     14.140  0.7134E+01  0.2582E+03
     14.260  0.5909E+01  0.2589E+03
     14.380  0.3129E+01  0.2592E+03
     14.500  0.3780E+01  0.2597E+03
     14.620  0.1163E+02  0.2611E+03
     14.740  0.2004E+02  0.2635E+03
     14.861  0.8840E+01  0.2646E+03
     14.981  0.9660E+01  0.2657E+03
     15.101  0.1216E+02  0.2672E+03
     15.221  0.1441E+02  0.2689E+03
     15.341  0.1164E+02  0.2703E+03
     15.461  0.1241E+02  0.2718E+03
     15.582  0.2083E+02  0.2743E+03
     15.702  0.1706E+02  0.2764E+03
     15.822  0.2082E+02  0.2789E+03
     15.942  0.1384E+02  0.2805E+03
     16.062  0.1748E+02  0.2826E+03
     16.183  0.1904E+02  0.2849E+03
     16.303  0.2289E+02  0.2877E+03
     16.423  0.2384E+02  0.2905E+03
     16.543  0.1114E+02  0.2919E+03
     16.663  0.2423E+02  0.2948E+03
     16.783  0.2853E+02  0.2982E+03
     16.904  0.1044E+02  0.2995E+03
     17.024  0.1745E+02  0.3016E+03
     17.144  0.2422E+02  0.3045E+03
     17.264  0.5181E+02  0.3107E+03
     17.384  0.3684E+02  0.3151E+03
     17.505  0.3139E+02  0.3189E+03
     17.625  0.2026E+02  0.3213E+03
     17.745  0.2057E+02  0.3238E+03
     17.865  0.3584E+02  0.3281E+03
     17.985  0.3610E+02  0.3325E+03
     18.105  0.4247E+02  0.3376E+03
     18.226  0.3834E+02  0.3422E+03
     18.346  0.2778E+02  0.3455E+03
     18.466  0.2989E+02  0.3491E+03
     18.586  0.3338E+02  0.3531E+03
     18.706  0.3739E+02  0.3576E+03
     18.826  0.2034E+02  0.3600E+03
     18.947  0.1342E+02  0.3617E+03
     19.067  0.2526E+02  0.3647E+03
     19.187  0.2627E+02  0.3679E+03
     19.307  0.2752E+02  0.3712E+03
     19.427  0.3135E+02  0.3749E+03
     19.548  0.2296E+02  0.3777E+03
     19.668  0.1811E+02  0.3799E+03
     19.788  0.8699E+01  0.3809E+03
     19.908  0.2117E+01  0.3812E+03
     20.028  0.4189E+01  0.3817E+03
     20.148  0.7187E+01  0.3825E+03
     20.269  0.4815E+01  0.3831E+03
     20.389  0.1081E+01  0.3832E+03
     20.509  0.1799E+01  0.3835E+03
     20.629  0.1435E+01  0.3836E+03
     20.749  0.4023E+00  0.3837E+03
     20.869  0.8570E+00  0.3838E+03
     20.990  0.5053E+00  0.3838E+03
     21.110  0.1326E+01  0.3840E+03
     21.230  0.3075E-01  0.3840E+03
     21.350  0.1010E-05  0.3840E+03
     21.470  0.1996E-13  0.3840E+03
     21.591  0.0000E+00  0.3840E+03
     21.711  0.0000E+00  0.3840E+03
     21.831  0.0000E+00  0.3840E+03
     21.951  0.0000E+00  0.3840E+03
     22.071  0.0000E+00  0.3840E+03
     22.191  0.0000E+00  0.3840E+03
     22.312  0.0000E+00  0.3840E+03
     22.432  0.0000E+00  0.3840E+03
     22.552  0.0000E+00  0.3840E+03
     22.672  0.0000E+00  0.3840E+03
