<?xml version="1.0" encoding="ISO-8859-1"?>
<modeling>
 <generator>
  <i name="program" type="string">vasp </i>
  <i name="version" type="string">5.4.4.18Apr17-6-g9f103f2a35  </i>
  <i name="subversion" type="string">(build Mar 12 2022 03:36:41) complex            parallel </i>
  <i name="platform" type="string">IFC19.0.3.199_CrayMPICH7.7.19 </i>
  <i name="date" type="string">2022 12 02 </i>
  <i name="time" type="string">01:55:36 </i>
 </generator>
 <incar>
  <i type="string" name="PREC">accurate</i>
  <i type="int" name="IALGO">    38</i>
  <i type="logical" name="ADDGRID"> T  </i>
  <i type="int" name="IBRION">     8</i>
  <i name="EDIFF">      0.00000001</i>
  <i type="logical" name="LREAL"> F  </i>
  <i type="int" name="ISMEAR">     0</i>
  <i name="SIGMA">      0.06000000</i>
  <i type="logical" name="LWAVE"> F  </i>
  <i type="logical" name="LCHARG"> F  </i>
  <v type="int" name="KPOINT_BSE">    -1     0     0     0</v>
 </incar>
 <structure name="primitive_cell" >
  <crystal>
   <varray name="basis" >
    <v>       1.79499968       1.79499968       0.00000000 </v>
    <v>       1.79499968       0.00000000      -1.79499968 </v>
    <v>       0.00000000       1.79499968      -1.79499968 </v>
   </varray>
   <i name="volume">     11.56706355 </i>
   <varray name="rec_basis" >
    <v>       0.27855158       0.27855158       0.27855158 </v>
    <v>       0.27855158      -0.27855158      -0.27855158 </v>
    <v>      -0.27855158       0.27855158      -0.27855158 </v>
   </varray>
  </crystal>
  <varray name="positions" >
   <v>       0.25000000       0.25000000       0.25000000 </v>
   <v>      -0.50000000      -0.50000000      -0.50000000 </v>
  </varray>
 </structure>
 <varray name="primitive_index" >
  <v type="int" >        1 </v>
  <v type="int" >       11 </v>
 </varray>
 <kpoints>
  <generation param="Gamma">
   <v type="int" name="divisions">       6        6        6 </v>
   <v name="usershift">      0.00000000       0.00000000       0.00000000 </v>
   <v name="genvec1">      0.16666667       0.00000000       0.00000000 </v>
   <v name="genvec2">      0.00000000       0.16666667       0.00000000 </v>
   <v name="genvec3">      0.00000000       0.00000000       0.16666667 </v>
   <v name="shift">      0.00000000       0.00000000       0.00000000 </v>
  </generation>
  <varray name="kpointlist" >
   <v>       0.00000000       0.00000000       0.00000000 </v>
   <v>       0.16666667       0.00000000       0.00000000 </v>
   <v>       0.33333333       0.00000000       0.00000000 </v>
   <v>       0.50000000       0.00000000       0.00000000 </v>
   <v>       0.16666667       0.16666667       0.00000000 </v>
   <v>       0.33333333       0.16666667       0.00000000 </v>
   <v>       0.50000000       0.16666667       0.00000000 </v>
   <v>       0.33333333       0.33333333       0.00000000 </v>
   <v>       0.50000000       0.33333333       0.00000000 </v>
   <v>       0.50000000       0.50000000       0.00000000 </v>
   <v>       0.16666667       0.16666667       0.16666667 </v>
   <v>       0.33333333       0.16666667       0.16666667 </v>
   <v>       0.50000000       0.16666667       0.16666667 </v>
   <v>       0.33333333       0.33333333       0.16666667 </v>
   <v>       0.50000000       0.33333333       0.16666667 </v>
   <v>       0.50000000       0.50000000       0.16666667 </v>
   <v>       0.33333333       0.33333333       0.33333333 </v>
   <v>       0.50000000       0.33333333       0.33333333 </v>
   <v>       0.50000000       0.50000000       0.33333333 </v>
   <v>       0.50000000       0.50000000       0.50000000 </v>
  </varray>
  <varray name="weights" >
   <v>       0.00462963 </v>
   <v>       0.02777778 </v>
   <v>       0.02777778 </v>
   <v>       0.01388889 </v>
   <v>       0.05555556 </v>
   <v>       0.11111111 </v>
   <v>       0.05555556 </v>
   <v>       0.05555556 </v>
   <v>       0.05555556 </v>
   <v>       0.01388889 </v>
   <v>       0.03703704 </v>
   <v>       0.11111111 </v>
   <v>       0.05555556 </v>
   <v>       0.11111111 </v>
   <v>       0.11111111 </v>
   <v>       0.02777778 </v>
   <v>       0.03703704 </v>
   <v>       0.05555556 </v>
   <v>       0.02777778 </v>
   <v>       0.00462963 </v>
  </varray>
 </kpoints>
 <parameters>
  <separator name="general" >
   <i type="string" name="SYSTEM">unknown system</i>
   <i type="logical" name="LCOMPAT"> F  </i>
  </separator>
  <separator name="electronic" >
   <i type="string" name="PREC">accura</i>
   <i name="ENMAX">    400.00000000</i>
   <i name="ENAUG">    644.87300000</i>
   <i name="EDIFF">      0.00000001</i>
   <i type="int" name="IALGO">    38</i>
   <i type="int" name="IWAVPR">    11</i>
   <i type="int" name="NBANDS">   192</i>
   <i name="NELECT">    256.00000000</i>
   <i type="int" name="TURBO">     0</i>
   <i type="int" name="IRESTART">     0</i>
   <i type="int" name="NREBOOT">     0</i>
   <i type="int" name="NMIN">     0</i>
   <i name="EREF">      0.00000000</i>
   <separator name="electronic smearing" >
    <i type="int" name="ISMEAR">     0</i>
    <i name="SIGMA">      0.06000000</i>
    <i name="KSPACING">      0.50000000</i>
    <i type="logical" name="KGAMMA"> T  </i>
   </separator>
   <separator name="electronic projectors" >
    <i type="logical" name="LREAL"> F  </i>
    <v name="ROPT">      0.00000000</v>
    <i type="int" name="LMAXPAW">  -100</i>
    <i type="int" name="LMAXMIX">     2</i>
    <i type="logical" name="NLSPLINE"> F  </i>
   </separator>
   <separator name="electronic startup" >
    <i type="int" name="ISTART">     0</i>
    <i type="int" name="ICHARG">     2</i>
    <i type="int" name="INIWAV">     1</i>
   </separator>
   <separator name="electronic spin" >
    <i type="int" name="ISPIN">     1</i>
    <i type="logical" name="LNONCOLLINEAR"> F  </i>
    <v name="MAGMOM">      1.00000000      1.00000000      1.00000000      1.00000000      1.00000000      1.00000000      1.00000000      1.00000000      1.00000000      1.00000000      1.00000000      1.00000000      1.00000000      1.00000000      1.00000000      1.00000000      1.00000000      1.00000000      1.00000000      1.00000000
      1.00000000      1.00000000      1.00000000      1.00000000      1.00000000      1.00000000      1.00000000      1.00000000      1.00000000      1.00000000      1.00000000      1.00000000      1.00000000      1.00000000      1.00000000      1.00000000      1.00000000      1.00000000      1.00000000      1.00000000
      1.00000000      1.00000000      1.00000000      1.00000000      1.00000000      1.00000000      1.00000000      1.00000000      1.00000000      1.00000000      1.00000000      1.00000000      1.00000000      1.00000000      1.00000000      1.00000000      1.00000000      1.00000000      1.00000000      1.00000000
      1.00000000      1.00000000      1.00000000      1.00000000</v>
    <i name="NUPDOWN">     -1.00000000</i>
    <i type="logical" name="LSORBIT"> F  </i>
    <v name="SAXIS">      0.00000000      0.00000000      1.00000000</v>
    <i type="logical" name="LSPIRAL"> F  </i>
    <v name="QSPIRAL">      0.00000000      0.00000000      0.00000000</v>
    <i type="logical" name="LZEROZ"> F  </i>
   </separator>
   <separator name="electronic exchange-correlation" >
    <i type="logical" name="LASPH"> F  </i>
    <i type="logical" name="LMETAGGA"> F  </i>
   </separator>
   <separator name="electronic convergence" >
    <i type="int" name="NELM">    60</i>
    <i type="int" name="NELMDL">    -5</i>
    <i type="int" name="NELMIN">     2</i>
    <i name="ENINI">    400.00000000</i>
    <separator name="electronic convergence detail" >
     <i type="logical" name="LDIAG"> T  </i>
     <i type="logical" name="LSUBROT"> F  </i>
     <i name="WEIMIN">      0.00100000</i>
     <i name="EBREAK">      0.00000000</i>
     <i name="DEPER">      0.30000000</i>
     <i type="int" name="NRMM">     4</i>
     <i name="TIME">      0.40000000</i>
    </separator>
   </separator>
   <separator name="electronic mixer" >
    <i name="AMIX">      0.40000000</i>
    <i name="BMIX">      1.00000000</i>
    <i name="AMIN">      0.10000000</i>
    <i name="AMIX_MAG">      1.60000000</i>
    <i name="BMIX_MAG">      1.00000000</i>
    <separator name="electronic mixer details" >
     <i type="int" name="IMIX">     4</i>
     <i type="logical" name="MIXFIRST"> F  </i>
     <i type="int" name="MAXMIX">   -45</i>
     <i name="WC">    100.00000000</i>
     <i type="int" name="INIMIX">     1</i>
     <i type="int" name="MIXPRE">     1</i>
     <i type="int" name="MREMOVE">     5</i>
    </separator>
   </separator>
   <separator name="electronic dipolcorrection" >
    <i type="logical" name="LDIPOL"> F  </i>
    <i type="logical" name="LMONO"> F  </i>
    <i type="int" name="IDIPOL">     0</i>
    <i name="EPSILON">      1.00000000</i>
    <v name="DIPOL">   -100.00000000   -100.00000000   -100.00000000</v>
    <i name="EFIELD">      0.00000000</i>
   </separator>
  </separator>
  <separator name="grids" >
   <i type="int" name="NGX">    48</i>
   <i type="int" name="NGY">    48</i>
   <i type="int" name="NGZ">    48</i>
   <i type="int" name="NGXF">    96</i>
   <i type="int" name="NGYF">    96</i>
   <i type="int" name="NGZF">    96</i>
   <i type="logical" name="ADDGRID"> T  </i>
  </separator>
  <separator name="ionic" >
   <i type="int" name="NSW">     1</i>
   <i type="int" name="IBRION">     8</i>
   <i type="int" name="MDALGO">     0</i>
   <i type="int" name="ISIF">     2</i>
   <i name="PSTRESS">      0.00000000</i>
   <i name="EDIFFG">      0.00000010</i>
   <i type="int" name="NFREE">     0</i>
   <i name="POTIM">      0.50000000</i>
   <i name="SMASS">     -3.00000000</i>
   <i name="SCALEE">      1.00000000</i>
  </separator>
  <separator name="ionic md" >
   <i name="TEBEG">      0.00010000</i>
   <i name="TEEND">      0.00010000</i>
   <i type="int" name="NBLOCK">     1</i>
   <i type="int" name="KBLOCK">     1</i>
   <i type="int" name="NPACO">   256</i>
   <i name="APACO">     16.00000000</i>
  </separator>
  <separator name="symmetry" >
   <i type="int" name="ISYM">     2</i>
   <i name="SYMPREC">      0.00001000</i>
  </separator>
  <separator name="dos" >
   <i type="int" name="LORBIT">     0</i>
   <v name="RWIGS">     -1.00000000</v>
   <i type="int" name="NEDOS">   301</i>
   <i name="EMIN">     10.00000000</i>
   <i name="EMAX">    -10.00000000</i>
   <i name="EFERMI">      0.00000000</i>
  </separator>
  <separator name="writing" >
   <i type="int" name="NWRITE">     2</i>
   <i type="logical" name="LWAVE"> F  </i>
   <i type="logical" name="LDOWNSAMPLE"> F  </i>
   <i type="logical" name="LCHARG"> F  </i>
   <i type="logical" name="LPARD"> F  </i>
   <i type="logical" name="LVTOT"> F  </i>
   <i type="logical" name="LVHAR"> F  </i>
   <i type="logical" name="LELF"> F  </i>
   <i type="logical" name="LOPTICS"> F  </i>
   <v name="STM">      0.00000000      0.00000000      0.00000000      0.00000000      0.00000000      0.00000000      0.00000000</v>
  </separator>
  <separator name="performance" >
   <i type="int" name="NPAR">    32</i>
   <i type="int" name="NSIM">     4</i>
   <i type="int" name="NBLK">    -1</i>
   <i type="logical" name="LPLANE"> T  </i>
   <i type="logical" name="LSCALAPACK"> T  </i>
   <i type="logical" name="LSCAAWARE"> F  </i>
   <i type="logical" name="LSCALU"> F  </i>
   <i type="logical" name="LASYNC"> F  </i>
   <i type="logical" name="LORBITALREAL"> F  </i>
  </separator>
  <separator name="miscellaneous" >
   <i type="int" name="IDIOT">     3</i>
   <i type="int" name="ISPECIAL">     0</i>
   <i type="logical" name="LMUSIC"> F  </i>
   <v name="POMASS">     12.01100000</v>
   <v name="DARWINR">      0.00000000</v>
   <v name="DARWINV">      1.00000000</v>
   <i type="logical" name="LCORR"> T  </i>
  </separator>
  <i type="logical" name="GGA_COMPAT"> T  </i>
  <i type="logical" name="LBERRY"> F  </i>
  <i type="int" name="ICORELEVEL">     0</i>
  <i type="logical" name="LDAU"> F  </i>
  <i type="int" name="I_CONSTRAINED_M">     0</i>
  <separator name="electronic exchange-correlation" >
   <i type="string" name="GGA">--</i>
   <i type="int" name="VOSKOWN">     0</i>
   <i type="logical" name="LHFCALC"> F  </i>
   <i type="string" name="PRECFOCK"></i>
   <i type="logical" name="LSYMGRAD"> F  </i>
   <i type="logical" name="LHFONE"> F  </i>
   <i type="logical" name="LRHFCALC"> F  </i>
   <i type="logical" name="LTHOMAS"> F  </i>
   <i type="logical" name="LMODELHF"> F  </i>
   <i name="ENCUT4O">     -1.00000000</i>
   <i type="int" name="EXXOEP">     0</i>
   <i type="int" name="FOURORBIT">     0</i>
   <i name="AEXX">      0.00000000</i>
   <i name="HFALPHA">      0.00000000</i>
   <i name="MCALPHA">      0.00000000</i>
   <i name="ALDAX">      1.00000000</i>
   <i name="AGGAX">      1.00000000</i>
   <i name="ALDAC">      1.00000000</i>
   <i name="AGGAC">      1.00000000</i>
   <i type="int" name="NKREDX">     1</i>
   <i type="int" name="NKREDY">     1</i>
   <i type="int" name="NKREDZ">     1</i>
   <i type="logical" name="SHIFTRED"> F  </i>
   <i type="logical" name="ODDONLY"> F  </i>
   <i type="logical" name="EVENONLY"> F  </i>
   <i type="int" name="LMAXFOCK">     0</i>
   <i type="int" name="NMAXFOCKAE">     0</i>
   <i type="logical" name="LFOCKAEDFT"> F  </i>
   <i name="HFSCREEN">      0.00000000</i>
   <i name="HFSCREENC">      0.00000000</i>
   <i type="int" name="NBANDSGWLOW">     0</i>
  </separator>
  <separator name="vdW DFT" >
   <i type="logical" name="LUSE_VDW"> F  </i>
   <i name="Zab_VDW">     -0.84910000</i>
   <i name="PARAM1">      0.12340000</i>
   <i name="PARAM2">      1.00000000</i>
   <i name="PARAM3">      0.00000000</i>
  </separator>
  <separator name="model GW" >
   <i type="int" name="MODEL_GW">     0</i>
   <i name="MODEL_EPS0">      3.47011907</i>
   <i name="MODEL_ALPHA">      1.00000000</i>
  </separator>
  <separator name="linear response parameters" >
   <i type="logical" name="LEPSILON"> F  </i>
   <i type="logical" name="LRPA"> F  </i>
   <i type="logical" name="LNABLA"> F  </i>
   <i type="logical" name="LVEL"> F  </i>
   <i type="int" name="KINTER">     0</i>
   <i name="CSHIFT">      0.10000000</i>
   <i name="OMEGAMAX">     -1.00000000</i>
   <i name="DEG_THRESHOLD">      0.00200000</i>
   <i name="RTIME">     -0.10000000</i>
   <i name="WPLASMAI">      0.00000000</i>
   <v name="DFIELD">      0.00000000      0.00000000      0.00000000</v>
   <v name="WPLASMA">      0.00000000      0.00000000      0.00000000      0.00000000      0.00000000      0.00000000      0.00000000      0.00000000      0.00000000</v>
  </separator>
  <separator name="orbital magnetization" >
   <i type="logical" name="NUCIND"> F  </i>
   <v name="MAGPOS">      0.00000000      0.00000000      0.00000000</v>
   <i type="logical" name="LNICSALL"> T  </i>
   <i type="logical" name="ORBITALMAG"> F  </i>
   <i type="logical" name="LMAGBLOCH"> F  </i>
   <i type="logical" name="LCHIMAG"> F  </i>
   <i type="logical" name="LGAUGE"> T  </i>
   <i type="int" name="MAGATOM">     0</i>
   <v name="MAGDIPOL">      0.00000000      0.00000000      0.00000000</v>
   <v name="AVECCONST">      0.00000000      0.00000000      0.00000000</v>
  </separator>
  <separator name="response functions" >
   <i type="logical" name="LADDER"> F  </i>
   <i type="logical" name="LRPAFORCE"> F  </i>
   <i type="logical" name="LFXC"> F  </i>
   <i type="logical" name="LHARTREE"> T  </i>
   <i type="int" name="IBSE">     0</i>
   <v type="int" name="KPOINT">    -1     0     0     0</v>
   <i type="logical" name="LTCTE"> F  </i>
   <i type="logical" name="LTETE"> F  </i>
   <i type="logical" name="LTRIPLET"> F  </i>
   <i type="logical" name="LFXCEPS"> F  </i>
   <i type="logical" name="LFXHEG"> F  </i>
   <i type="int" name="NATURALO">     2</i>
   <i type="logical" name="L2ORDER"> F  </i>
   <i type="logical" name="LMP2LT"> F  </i>
   <i type="logical" name="LUSEW"> F  </i>
   <i name="ENCUTGW">     -2.00000000</i>
   <i name="ENCUTGWSOFT">     -2.00000000</i>
   <i name="ENCUTLF">     -1.00000000</i>
   <i type="int" name="LMAXMP2">    -1</i>
   <i name="SCISSOR">      0.00000000</i>
   <i type="int" name="NOMEGA">     0</i>
   <i type="int" name="NOMEGAR">     0</i>
   <i type="int" name="NBANDSGW">    -1</i>
   <i type="int" name="NBANDSO">    -1</i>
   <i type="int" name="NBANDSV">    -1</i>
   <i type="int" name="NELM">     1</i>
   <i type="int" name="NELMHF">     1</i>
   <i type="int" name="DIM">     3</i>
   <i type="int" name="ANTIRES">     0</i>
   <i name="OMEGAMAX">    -30.00000000</i>
   <i name="OMEGAMIN">    -30.00000000</i>
   <i name="OMEGATL">   -200.00000000</i>
   <i type="int" name="OMEGAGRID">   140</i>
   <i name="CSHIFT">     -0.10000000</i>
   <i type="logical" name="SELFENERGY"> F  </i>
   <i type="logical" name="LSPECTRAL"> F  </i>
   <i type="logical" name="LSPECTRALGW"> F  </i>
   <i type="logical" name="LSINGLES"> F  </i>
   <i type="logical" name="LFERMIGW"> F  </i>
   <i type="logical" name="ODDONLYGW"> F  </i>
   <i type="logical" name="EVENONLYGW"> F  </i>
   <i type="int" name="NKREDLFX">     1</i>
   <i type="int" name="NKREDLFY">     1</i>
   <i type="int" name="NKREDLFZ">     1</i>
   <i type="int" name="MAXMEM">  2800</i>
   <i type="int" name="TELESCOPE">     0</i>
   <i type="int" name="TAUPAR">     1</i>
   <i type="int" name="OMEGAPAR">    -1</i>
   <i name="LAMBDA">      1.00000000</i>
  </separator>
  <separator name="External order field" >
   <i name="OFIELD_KAPPA">      0.00000000</i>
   <v name="OFIELD_K">      0.00000000      0.00000000      0.00000000</v>
   <i name="OFIELD_Q6_NEAR">      0.00000000</i>
   <i name="OFIELD_Q6_FAR">      0.00000000</i>
   <i name="OFIELD_A">      0.00000000</i>
  </separator>
 </parameters>
 <atominfo>
  <atoms>      64 </atoms>
  <types>       1 </types>
  <array name="atoms" >
   <dimension dim="1">ion</dimension>
   <field type="string">element</field>
   <field type="int">atomtype</field>
   <set>
    <rc><c>C </c><c>   1</c></rc>
    <rc><c>C </c><c>   1</c></rc>
    <rc><c>C </c><c>   1</c></rc>
    <rc><c>C </c><c>   1</c></rc>
    <rc><c>C </c><c>   1</c></rc>
    <rc><c>C </c><c>   1</c></rc>
    <rc><c>C </c><c>   1</c></rc>
    <rc><c>C </c><c>   1</c></rc>
    <rc><c>C </c><c>   1</c></rc>
    <rc><c>C </c><c>   1</c></rc>
    <rc><c>C </c><c>   1</c></rc>
    <rc><c>C </c><c>   1</c></rc>
    <rc><c>C </c><c>   1</c></rc>
    <rc><c>C </c><c>   1</c></rc>
    <rc><c>C </c><c>   1</c></rc>
    <rc><c>C </c><c>   1</c></rc>
    <rc><c>C </c><c>   1</c></rc>
    <rc><c>C </c><c>   1</c></rc>
    <rc><c>C </c><c>   1</c></rc>
    <rc><c>C </c><c>   1</c></rc>
    <rc><c>C </c><c>   1</c></rc>
    <rc><c>C </c><c>   1</c></rc>
    <rc><c>C </c><c>   1</c></rc>
    <rc><c>C </c><c>   1</c></rc>
    <rc><c>C </c><c>   1</c></rc>
    <rc><c>C </c><c>   1</c></rc>
    <rc><c>C </c><c>   1</c></rc>
    <rc><c>C </c><c>   1</c></rc>
    <rc><c>C </c><c>   1</c></rc>
    <rc><c>C </c><c>   1</c></rc>
    <rc><c>C </c><c>   1</c></rc>
    <rc><c>C </c><c>   1</c></rc>
    <rc><c>C </c><c>   1</c></rc>
    <rc><c>C </c><c>   1</c></rc>
    <rc><c>C </c><c>   1</c></rc>
    <rc><c>C </c><c>   1</c></rc>
    <rc><c>C </c><c>   1</c></rc>
    <rc><c>C </c><c>   1</c></rc>
    <rc><c>C </c><c>   1</c></rc>
    <rc><c>C </c><c>   1</c></rc>
    <rc><c>C </c><c>   1</c></rc>
    <rc><c>C </c><c>   1</c></rc>
    <rc><c>C </c><c>   1</c></rc>
    <rc><c>C </c><c>   1</c></rc>
    <rc><c>C </c><c>   1</c></rc>
    <rc><c>C </c><c>   1</c></rc>
    <rc><c>C </c><c>   1</c></rc>
    <rc><c>C </c><c>   1</c></rc>
    <rc><c>C </c><c>   1</c></rc>
    <rc><c>C </c><c>   1</c></rc>
    <rc><c>C </c><c>   1</c></rc>
    <rc><c>C </c><c>   1</c></rc>
    <rc><c>C </c><c>   1</c></rc>
    <rc><c>C </c><c>   1</c></rc>
    <rc><c>C </c><c>   1</c></rc>
    <rc><c>C </c><c>   1</c></rc>
    <rc><c>C </c><c>   1</c></rc>
    <rc><c>C </c><c>   1</c></rc>
    <rc><c>C </c><c>   1</c></rc>
    <rc><c>C </c><c>   1</c></rc>
    <rc><c>C </c><c>   1</c></rc>
    <rc><c>C </c><c>   1</c></rc>
    <rc><c>C </c><c>   1</c></rc>
    <rc><c>C </c><c>   1</c></rc>
   </set>
  </array>
  <array name="atomtypes" >
   <dimension dim="1">type</dimension>
   <field type="int">atomspertype</field>
   <field type="string">element</field>
   <field>mass</field>
   <field>valence</field>
   <field type="string">pseudopotential</field>
   <set>
    <rc><c>  64</c><c>C </c><c>     12.01100000</c><c>      4.00000000</c><c> PAW_PBE C 08Apr2002                    </c></rc>
   </set>
  </array>
 </atominfo>
 <structure name="initialpos" >
  <crystal>
   <varray name="basis" >
    <v>       7.17999872       0.00000000       0.00000000 </v>
    <v>       0.00000000       7.17999872       0.00000000 </v>
    <v>       0.00000000       0.00000000       7.17999872 </v>
   </varray>
   <i name="volume">    370.14603372 </i>
   <varray name="rec_basis" >
    <v>       0.13927579       0.00000000       0.00000000 </v>
    <v>       0.00000000       0.13927579       0.00000000 </v>
    <v>       0.00000000       0.00000000       0.13927579 </v>
   </varray>
  </crystal>
  <varray name="positions" >
   <v>       0.12500000       0.37500000       0.12500000 </v>
   <v>       0.62500000       0.37500000       0.12500000 </v>
   <v>       0.12500000       0.87500000       0.12500000 </v>
   <v>       0.62500000       0.87500000       0.12500000 </v>
   <v>       0.12500000       0.37500000       0.62500000 </v>
   <v>       0.62500000       0.37500000       0.62500000 </v>
   <v>       0.12500000       0.87500000       0.62500000 </v>
   <v>       0.62500000       0.87500000       0.62500000 </v>
   <v>       0.00000000       0.00000000       0.25000000 </v>
   <v>       0.50000000       0.00000000       0.25000000 </v>
   <v>       0.00000000       0.50000000       0.25000000 </v>
   <v>       0.50000000       0.50000000       0.25000000 </v>
   <v>       0.00000000       0.00000000       0.75000000 </v>
   <v>       0.50000000       0.00000000       0.75000000 </v>
   <v>       0.00000000       0.50000000       0.75000000 </v>
   <v>       0.50000000       0.50000000       0.75000000 </v>
   <v>       0.12500000       0.12500000       0.37500000 </v>
   <v>       0.62500000       0.12500000       0.37500000 </v>
   <v>       0.12500000       0.62500000       0.37500000 </v>
   <v>       0.62500000       0.62500000       0.37500000 </v>
   <v>       0.12500000       0.12500000       0.87500000 </v>
   <v>       0.62500000       0.12500000       0.87500000 </v>
   <v>       0.12500000       0.62500000       0.87500000 </v>
   <v>       0.62500000       0.62500000       0.87500000 </v>
   <v>       0.00000000       0.25000000       0.00000000 </v>
   <v>       0.50000000       0.25000000       0.00000000 </v>
   <v>       0.00000000       0.75000000       0.00000000 </v>
   <v>       0.50000000       0.75000000       0.00000000 </v>
   <v>       0.00000000       0.25000000       0.50000000 </v>
   <v>       0.50000000       0.25000000       0.50000000 </v>
   <v>       0.00000000       0.75000000       0.50000000 </v>
   <v>       0.50000000       0.75000000       0.50000000 </v>
   <v>       0.37500000       0.37500000       0.37500000 </v>
   <v>       0.87500000       0.37500000       0.37500000 </v>
   <v>       0.37500000       0.87500000       0.37500000 </v>
   <v>       0.87500000       0.87500000       0.37500000 </v>
   <v>       0.37500000       0.37500000       0.87500000 </v>
   <v>       0.87500000       0.37500000       0.87500000 </v>
   <v>       0.37500000       0.87500000       0.87500000 </v>
   <v>       0.87500000       0.87500000       0.87500000 </v>
   <v>       0.25000000       0.00000000       0.00000000 </v>
   <v>       0.75000000       0.00000000       0.00000000 </v>
   <v>       0.25000000       0.50000000       0.00000000 </v>
   <v>       0.75000000       0.50000000       0.00000000 </v>
   <v>       0.25000000       0.00000000       0.50000000 </v>
   <v>       0.75000000       0.00000000       0.50000000 </v>
   <v>       0.25000000       0.50000000       0.50000000 </v>
   <v>       0.75000000       0.50000000       0.50000000 </v>
   <v>       0.37500000       0.12500000       0.12500000 </v>
   <v>       0.87500000       0.12500000       0.12500000 </v>
   <v>       0.37500000       0.62500000       0.12500000 </v>
   <v>       0.87500000       0.62500000       0.12500000 </v>
   <v>       0.37500000       0.12500000       0.62500000 </v>
   <v>       0.87500000       0.12500000       0.62500000 </v>
   <v>       0.37500000       0.62500000       0.62500000 </v>
   <v>       0.87500000       0.62500000       0.62500000 </v>
   <v>       0.25000000       0.25000000       0.25000000 </v>
   <v>       0.75000000       0.25000000       0.25000000 </v>
   <v>       0.25000000       0.75000000       0.25000000 </v>
   <v>       0.75000000       0.75000000       0.25000000 </v>
   <v>       0.25000000       0.25000000       0.75000000 </v>
   <v>       0.75000000       0.25000000       0.75000000 </v>
   <v>       0.25000000       0.75000000       0.75000000 </v>
   <v>       0.75000000       0.75000000       0.75000000 </v>
  </varray>
 </structure>
 <calculation>
  <scstep>
   <time name="dav">   13.25   13.26</time>
   <time name="total">   13.37   13.41</time>
   <energy>
    <i name="alphaZ">    901.65156814 </i>
    <i name="ewald"> -11062.73308363 </i>
    <i name="hartreedc">   -577.40509908 </i>
    <i name="XCdc">    911.13702777 </i>
    <i name="pawpsdc">   2421.21235816 </i>
    <i name="pawaedc">  -2494.84305711 </i>
    <i name="eentropy">     -0.01230272 </i>
    <i name="bandstr">    992.51967778 </i>
    <i name="atom">   9416.14232778 </i>
    <i name="e_fr_energy">    507.66941709 </i>
    <i name="e_wo_entrp">    507.68171981 </i>
    <i name="e_0_energy">    507.67556845 </i>
   </energy>
  </scstep>
  <scstep>
   <time name="dav">   17.09   17.09</time>
   <time name="total">   17.09   17.10</time>
   <energy>
    <i name="e_fr_energy">   -559.15758889 </i>
    <i name="e_wo_entrp">   -559.15758889 </i>
    <i name="e_0_energy">   -559.15758889 </i>
   </energy>
  </scstep>
  <scstep>
   <time name="dav">   18.09   18.10</time>
   <time name="total">   18.10   18.10</time>
   <energy>
    <i name="e_fr_energy">   -600.50649213 </i>
    <i name="e_wo_entrp">   -600.50649213 </i>
    <i name="e_0_energy">   -600.50649213 </i>
   </energy>
  </scstep>
  <scstep>
   <time name="dav">   16.90   16.90</time>
   <time name="total">   16.91   16.91</time>
   <energy>
    <i name="e_fr_energy">   -600.96188927 </i>
    <i name="e_wo_entrp">   -600.96188927 </i>
    <i name="e_0_energy">   -600.96188927 </i>
   </energy>
  </scstep>
  <scstep>
   <time name="dav">   16.21   16.22</time>
   <time name="total">   16.73   16.73</time>
   <energy>
    <i name="e_fr_energy">   -600.97176183 </i>
    <i name="e_wo_entrp">   -600.97176183 </i>
    <i name="e_0_energy">   -600.97176183 </i>
   </energy>
  </scstep>
  <scstep>
   <time name="dav">   15.27   15.27</time>
   <time name="total">   15.91   15.91</time>
   <energy>
    <i name="e_fr_energy">   -586.66634790 </i>
    <i name="e_wo_entrp">   -586.66634790 </i>
    <i name="e_0_energy">   -586.66634790 </i>
   </energy>
  </scstep>
  <scstep>
   <time name="dav">   16.39   16.39</time>
   <time name="total">   17.00   17.00</time>
   <energy>
    <i name="e_fr_energy">   -581.83250283 </i>
    <i name="e_wo_entrp">   -581.83250283 </i>
    <i name="e_0_energy">   -581.83250283 </i>
   </energy>
  </scstep>
  <scstep>
   <time name="dav">   16.80   16.80</time>
   <time name="total">   17.42   17.42</time>
   <energy>
    <i name="e_fr_energy">   -581.89114495 </i>
    <i name="e_wo_entrp">   -581.89114495 </i>
    <i name="e_0_energy">   -581.89114495 </i>
   </energy>
  </scstep>
  <scstep>
   <time name="dav">   18.37   18.37</time>
   <time name="total">   18.99   18.99</time>
   <energy>
    <i name="e_fr_energy">   -581.89328102 </i>
    <i name="e_wo_entrp">   -581.89328102 </i>
    <i name="e_0_energy">   -581.89328102 </i>
   </energy>
  </scstep>
  <scstep>
   <time name="dav">   15.34   15.34</time>
   <time name="total">   15.96   15.96</time>
   <energy>
    <i name="e_fr_energy">   -581.89374023 </i>
    <i name="e_wo_entrp">   -581.89374023 </i>
    <i name="e_0_energy">   -581.89374023 </i>
   </energy>
  </scstep>
  <scstep>
   <time name="dav">   16.72   16.72</time>
   <time name="total">   17.34   17.34</time>
   <energy>
    <i name="e_fr_energy">   -581.89374493 </i>
    <i name="e_wo_entrp">   -581.89374493 </i>
    <i name="e_0_energy">   -581.89374493 </i>
   </energy>
  </scstep>
  <scstep>
   <time name="dav">   16.51   16.51</time>
   <time name="total">   17.13   17.13</time>
   <energy>
    <i name="e_fr_energy">   -581.89374503 </i>
    <i name="e_wo_entrp">   -581.89374503 </i>
    <i name="e_0_energy">   -581.89374503 </i>
   </energy>
  </scstep>
  <scstep>
   <time name="dav">   13.64   13.64</time>
   <time name="total">   14.26   14.26</time>
   <energy>
    <i name="e_fr_energy">   -581.89374512 </i>
    <i name="e_wo_entrp">   -581.89374512 </i>
    <i name="e_0_energy">   -581.89374512 </i>
   </energy>
  </scstep>
  <scstep>
   <time name="dav">   12.77   12.77</time>
   <time name="total">   13.38   13.38</time>
   <energy>
    <i name="e_fr_energy">   -581.89374514 </i>
    <i name="e_wo_entrp">   -581.89374514 </i>
    <i name="e_0_energy">   -581.89374514 </i>
   </energy>
  </scstep>
  <scstep>
   <time name="dav">   12.09   12.09</time>
   <time name="total">   12.20   12.20</time>
   <energy>
    <i name="alphaZ">    901.65156814 </i>
    <i name="ewald"> -11062.73308363 </i>
    <i name="hartreedc">   -852.64429451 </i>
    <i name="XCdc">    937.06859258 </i>
    <i name="pawpsdc">   4136.41031527 </i>
    <i name="pawaedc">  -4216.97841740 </i>
    <i name="eentropy">     -0.00000000 </i>
    <i name="bandstr">    159.18924664 </i>
    <i name="atom">   9416.14232778 </i>
    <i name="e_fr_energy">   -581.89374514 </i>
    <i name="e_wo_entrp">   -581.89374514 </i>
    <i name="e_0_energy">   -581.89374514 </i>
   </energy>
  </scstep>
  <structure>
   <crystal>
    <varray name="basis" >
     <v>       7.17999872       0.00000000       0.00000000 </v>
     <v>       0.00000000       7.17999872       0.00000000 </v>
     <v>       0.00000000       0.00000000       7.17999872 </v>
    </varray>
    <i name="volume">    370.14603372 </i>
    <varray name="rec_basis" >
     <v>       0.13927579       0.00000000       0.00000000 </v>
     <v>       0.00000000       0.13927579       0.00000000 </v>
     <v>       0.00000000       0.00000000       0.13927579 </v>
    </varray>
   </crystal>
   <varray name="positions" >
    <v>       0.12500000       0.37500000       0.12500000 </v>
    <v>       0.62500000       0.37500000       0.12500000 </v>
    <v>       0.12500000       0.87500000       0.12500000 </v>
    <v>       0.62500000       0.87500000       0.12500000 </v>
    <v>       0.12500000       0.37500000       0.62500000 </v>
    <v>       0.62500000       0.37500000       0.62500000 </v>
    <v>       0.12500000       0.87500000       0.62500000 </v>
    <v>       0.62500000       0.87500000       0.62500000 </v>
    <v>       0.00000000       0.00000000       0.25000000 </v>
    <v>       0.50000000       0.00000000       0.25000000 </v>
    <v>       0.00000000       0.50000000       0.25000000 </v>
    <v>       0.50000000       0.50000000       0.25000000 </v>
    <v>       0.00000000       0.00000000       0.75000000 </v>
    <v>       0.50000000       0.00000000       0.75000000 </v>
    <v>       0.00000000       0.50000000       0.75000000 </v>
    <v>       0.50000000       0.50000000       0.75000000 </v>
    <v>       0.12500000       0.12500000       0.37500000 </v>
    <v>       0.62500000       0.12500000       0.37500000 </v>
    <v>       0.12500000       0.62500000       0.37500000 </v>
    <v>       0.62500000       0.62500000       0.37500000 </v>
    <v>       0.12500000       0.12500000       0.87500000 </v>
    <v>       0.62500000       0.12500000       0.87500000 </v>
    <v>       0.12500000       0.62500000       0.87500000 </v>
    <v>       0.62500000       0.62500000       0.87500000 </v>
    <v>       0.00000000       0.25000000       0.00000000 </v>
    <v>       0.50000000       0.25000000       0.00000000 </v>
    <v>       0.00000000       0.75000000       0.00000000 </v>
    <v>       0.50000000       0.75000000       0.00000000 </v>
    <v>       0.00000000       0.25000000       0.50000000 </v>
    <v>       0.50000000       0.25000000       0.50000000 </v>
    <v>       0.00000000       0.75000000       0.50000000 </v>
    <v>       0.50000000       0.75000000       0.50000000 </v>
    <v>       0.37500000       0.37500000       0.37500000 </v>
    <v>       0.87500000       0.37500000       0.37500000 </v>
    <v>       0.37500000       0.87500000       0.37500000 </v>
    <v>       0.87500000       0.87500000       0.37500000 </v>
    <v>       0.37500000       0.37500000       0.87500000 </v>
    <v>       0.87500000       0.37500000       0.87500000 </v>
    <v>       0.37500000       0.87500000       0.87500000 </v>
    <v>       0.87500000       0.87500000       0.87500000 </v>
    <v>       0.25000000       0.00000000       0.00000000 </v>
    <v>       0.75000000       0.00000000       0.00000000 </v>
    <v>       0.25000000       0.50000000       0.00000000 </v>
    <v>       0.75000000       0.50000000       0.00000000 </v>
    <v>       0.25000000       0.00000000       0.50000000 </v>
    <v>       0.75000000       0.00000000       0.50000000 </v>
    <v>       0.25000000       0.50000000       0.50000000 </v>
    <v>       0.75000000       0.50000000       0.50000000 </v>
    <v>       0.37500000       0.12500000       0.12500000 </v>
    <v>       0.87500000       0.12500000       0.12500000 </v>
    <v>       0.37500000       0.62500000       0.12500000 </v>
    <v>       0.87500000       0.62500000       0.12500000 </v>
    <v>       0.37500000       0.12500000       0.62500000 </v>
    <v>       0.87500000       0.12500000       0.62500000 </v>
    <v>       0.37500000       0.62500000       0.62500000 </v>
    <v>       0.87500000       0.62500000       0.62500000 </v>
    <v>       0.25000000       0.25000000       0.25000000 </v>
    <v>       0.75000000       0.25000000       0.25000000 </v>
    <v>       0.25000000       0.75000000       0.25000000 </v>
    <v>       0.75000000       0.75000000       0.25000000 </v>
    <v>       0.25000000       0.25000000       0.75000000 </v>
    <v>       0.75000000       0.25000000       0.75000000 </v>
    <v>       0.25000000       0.75000000       0.75000000 </v>
    <v>       0.75000000       0.75000000       0.75000000 </v>
   </varray>
  </structure>
  <varray name="forces" >
   <v>       0.00000000       0.00000000      -0.00000000 </v>
   <v>       0.00000000       0.00000000       0.00000000 </v>
   <v>      -0.00000000       0.00000000       0.00000000 </v>
   <v>       0.00000000       0.00000000      -0.00000000 </v>
   <v>       0.00000000       0.00000000       0.00000000 </v>
   <v>       0.00000000       0.00000000      -0.00000000 </v>
   <v>       0.00000000       0.00000000      -0.00000000 </v>
   <v>       0.00000000       0.00000000       0.00000000 </v>
   <v>      -0.00000000      -0.00000000      -0.00000000 </v>
   <v>      -0.00000000       0.00000000       0.00000000 </v>
   <v>      -0.00000000       0.00000000       0.00000000 </v>
   <v>      -0.00000000      -0.00000000      -0.00000000 </v>
   <v>      -0.00000000       0.00000000      -0.00000000 </v>
   <v>       0.00000000      -0.00000000      -0.00000000 </v>
   <v>       0.00000000      -0.00000000       0.00000000 </v>
   <v>       0.00000000       0.00000000       0.00000000 </v>
   <v>      -0.00000000       0.00000000       0.00000000 </v>
   <v>       0.00000000      -0.00000000      -0.00000000 </v>
   <v>       0.00000000      -0.00000000      -0.00000000 </v>
   <v>      -0.00000000       0.00000000       0.00000000 </v>
   <v>       0.00000000      -0.00000000      -0.00000000 </v>
   <v>      -0.00000000       0.00000000       0.00000000 </v>
   <v>       0.00000000       0.00000000       0.00000000 </v>
   <v>       0.00000000      -0.00000000      -0.00000000 </v>
   <v>      -0.00000000      -0.00000000       0.00000000 </v>
   <v>      -0.00000000      -0.00000000      -0.00000000 </v>
   <v>       0.00000000      -0.00000000      -0.00000000 </v>
   <v>      -0.00000000      -0.00000000       0.00000000 </v>
   <v>      -0.00000000      -0.00000000       0.00000000 </v>
   <v>      -0.00000000      -0.00000000       0.00000000 </v>
   <v>      -0.00000000      -0.00000000       0.00000000 </v>
   <v>      -0.00000000      -0.00000000      -0.00000000 </v>
   <v>       0.00000000       0.00000000       0.00000000 </v>
   <v>       0.00000000      -0.00000000      -0.00000000 </v>
   <v>       0.00000000      -0.00000000      -0.00000000 </v>
   <v>      -0.00000000       0.00000000       0.00000000 </v>
   <v>       0.00000000      -0.00000000      -0.00000000 </v>
   <v>      -0.00000000       0.00000000       0.00000000 </v>
   <v>       0.00000000       0.00000000       0.00000000 </v>
   <v>       0.00000000      -0.00000000      -0.00000000 </v>
   <v>       0.00000000      -0.00000000      -0.00000000 </v>
   <v>      -0.00000000       0.00000000       0.00000000 </v>
   <v>      -0.00000000       0.00000000       0.00000000 </v>
   <v>      -0.00000000      -0.00000000      -0.00000000 </v>
   <v>      -0.00000000      -0.00000000       0.00000000 </v>
   <v>      -0.00000000      -0.00000000      -0.00000000 </v>
   <v>       0.00000000      -0.00000000       0.00000000 </v>
   <v>      -0.00000000      -0.00000000       0.00000000 </v>
   <v>       0.00000000       0.00000000       0.00000000 </v>
   <v>       0.00000000       0.00000000      -0.00000000 </v>
   <v>       0.00000000      -0.00000000      -0.00000000 </v>
   <v>       0.00000000       0.00000000       0.00000000 </v>
   <v>       0.00000000       0.00000000      -0.00000000 </v>
   <v>       0.00000000       0.00000000       0.00000000 </v>
   <v>       0.00000000       0.00000000      -0.00000000 </v>
   <v>       0.00000000       0.00000000      -0.00000000 </v>
   <v>       0.00000000      -0.00000000      -0.00000000 </v>
   <v>      -0.00000000      -0.00000000       0.00000000 </v>
   <v>      -0.00000000       0.00000000       0.00000000 </v>
   <v>       0.00000000      -0.00000000      -0.00000000 </v>
   <v>       0.00000000      -0.00000000      -0.00000000 </v>
   <v>       0.00000000      -0.00000000      -0.00000000 </v>
   <v>       0.00000000      -0.00000000       0.00000000 </v>
   <v>      -0.00000000      -0.00000000       0.00000000 </v>
  </varray>
  <varray name="stress" >
   <v>    -101.03011863       0.00000000      -0.00000000 </v>
   <v>      -0.00000000    -101.03011863       0.00000000 </v>
   <v>       0.00000000      -0.00000000    -101.03011863 </v>
  </varray>
  <energy>
   <i name="e_fr_energy">   -581.89374514 </i>
   <i name="e_wo_entrp">   -581.89374514 </i>
   <i name="e_0_energy">     -0.00000000 </i>
  </energy>
  <kpoints>
   <generation param="Gamma">
    <v type="int" name="divisions">       6        6        6 </v>
    <v name="usershift">      0.00000000       0.00000000       0.00000000 </v>
    <v name="genvec1">      0.16666667       0.00000000       0.00000000 </v>
    <v name="genvec2">      0.00000000       0.16666667       0.00000000 </v>
    <v name="genvec3">      0.00000000       0.00000000       0.16666667 </v>
    <v name="shift">      0.00000000       0.00000000       0.00000000 </v>
   </generation>
   <varray name="kpointlist" >
    <v>       0.00000000       0.00000000       0.00000000 </v>
    <v>       0.16666667       0.00000000       0.00000000 </v>
    <v>       0.33333333       0.00000000       0.00000000 </v>
    <v>       0.50000000       0.00000000       0.00000000 </v>
    <v>       0.00000000       0.16666667       0.00000000 </v>
    <v>       0.16666667       0.16666667       0.00000000 </v>
    <v>       0.33333333       0.16666667       0.00000000 </v>
    <v>       0.50000000       0.16666667       0.00000000 </v>
    <v>       0.00000000       0.33333333       0.00000000 </v>
    <v>       0.16666667       0.33333333       0.00000000 </v>
    <v>       0.33333333       0.33333333       0.00000000 </v>
    <v>       0.50000000       0.33333333       0.00000000 </v>
    <v>       0.00000000       0.50000000       0.00000000 </v>
    <v>       0.16666667       0.50000000       0.00000000 </v>
    <v>       0.33333333       0.50000000       0.00000000 </v>
    <v>       0.50000000       0.50000000       0.00000000 </v>
    <v>       0.00000000       0.16666667       0.16666667 </v>
    <v>       0.16666667       0.16666667       0.16666667 </v>
    <v>       0.33333333       0.16666667       0.16666667 </v>
    <v>       0.50000000       0.16666667       0.16666667 </v>
    <v>       0.00000000       0.33333333       0.16666667 </v>
    <v>       0.16666667       0.33333333       0.16666667 </v>
    <v>       0.33333333       0.33333333       0.16666667 </v>
    <v>       0.50000000       0.33333333       0.16666667 </v>
    <v>       0.00000000       0.50000000       0.16666667 </v>
    <v>       0.16666667       0.50000000       0.16666667 </v>
    <v>       0.33333333       0.50000000       0.16666667 </v>
    <v>       0.50000000       0.50000000       0.16666667 </v>
    <v>       0.00000000      -0.33333333       0.16666667 </v>
    <v>       0.16666667      -0.33333333       0.16666667 </v>
    <v>       0.33333333      -0.33333333       0.16666667 </v>
    <v>       0.50000000      -0.33333333       0.16666667 </v>
    <v>       0.00000000      -0.16666667       0.16666667 </v>
    <v>       0.16666667      -0.16666667       0.16666667 </v>
    <v>       0.33333333      -0.16666667       0.16666667 </v>
    <v>       0.50000000      -0.16666667       0.16666667 </v>
    <v>       0.00000000       0.33333333       0.33333333 </v>
    <v>       0.16666667       0.33333333       0.33333333 </v>
    <v>       0.33333333       0.33333333       0.33333333 </v>
    <v>       0.50000000       0.33333333       0.33333333 </v>
    <v>       0.00000000       0.50000000       0.33333333 </v>
    <v>       0.16666667       0.50000000       0.33333333 </v>
    <v>       0.33333333       0.50000000       0.33333333 </v>
    <v>       0.50000000       0.50000000       0.33333333 </v>
    <v>       0.00000000      -0.33333333       0.33333333 </v>
    <v>       0.16666667      -0.33333333       0.33333333 </v>
    <v>       0.33333333      -0.33333333       0.33333333 </v>
    <v>       0.50000000      -0.33333333       0.33333333 </v>
    <v>       0.00000000       0.50000000       0.50000000 </v>
    <v>       0.16666667       0.50000000       0.50000000 </v>
    <v>       0.33333333       0.50000000       0.50000000 </v>
    <v>       0.50000000       0.50000000       0.50000000 </v>
   </varray>
   <varray name="weights" >
    <v>       0.00462963 </v>
    <v>       0.00925926 </v>
    <v>       0.00925926 </v>
    <v>       0.00462963 </v>
    <v>       0.01851852 </v>
    <v>       0.03703704 </v>
    <v>       0.03703704 </v>
    <v>       0.01851852 </v>
    <v>       0.01851852 </v>
    <v>       0.03703704 </v>
    <v>       0.03703704 </v>
    <v>       0.01851852 </v>
    <v>       0.00925926 </v>
    <v>       0.01851852 </v>
    <v>       0.01851852 </v>
    <v>       0.00925926 </v>
    <v>       0.00925926 </v>
    <v>       0.01851852 </v>
    <v>       0.01851852 </v>
    <v>       0.00925926 </v>
    <v>       0.01851852 </v>
    <v>       0.03703704 </v>
    <v>       0.03703704 </v>
    <v>       0.01851852 </v>
    <v>       0.01851852 </v>
    <v>       0.03703704 </v>
    <v>       0.03703704 </v>
    <v>       0.01851852 </v>
    <v>       0.01851852 </v>
    <v>       0.03703704 </v>
    <v>       0.03703704 </v>
    <v>       0.01851852 </v>
    <v>       0.00925926 </v>
    <v>       0.01851852 </v>
    <v>       0.01851852 </v>
    <v>       0.00925926 </v>
    <v>       0.00925926 </v>
    <v>       0.01851852 </v>
    <v>       0.01851852 </v>
    <v>       0.00925926 </v>
    <v>       0.01851852 </v>
    <v>       0.03703704 </v>
    <v>       0.03703704 </v>
    <v>       0.01851852 </v>
    <v>       0.00925926 </v>
    <v>       0.01851852 </v>
    <v>       0.01851852 </v>
    <v>       0.00925926 </v>
    <v>       0.00462963 </v>
    <v>       0.00925926 </v>
    <v>       0.00925926 </v>
    <v>       0.00462963 </v>
   </varray>
  </kpoints>
  <scstep>
   <time name="total">   42.58   42.58</time>
   <energy>
    <i name="e_fr_energy">   -361.86531977 </i>
    <i name="e_wo_entrp">   -361.86531977 </i>
    <i name="e_0_energy">   -361.86531977 </i>
   </energy>
  </scstep>
  <scstep>
   <time name="total">   31.83   31.83</time>
   <energy>
    <i name="e_fr_energy">   -308.57412893 </i>
    <i name="e_wo_entrp">   -308.57412893 </i>
    <i name="e_0_energy">   -308.57412893 </i>
   </energy>
  </scstep>
  <scstep>
   <time name="total">   34.57   34.58</time>
   <energy>
    <i name="e_fr_energy">   -308.22437751 </i>
    <i name="e_wo_entrp">   -308.22437751 </i>
    <i name="e_0_energy">   -308.22437751 </i>
   </energy>
  </scstep>
  <scstep>
   <time name="total">   33.88   33.89</time>
   <energy>
    <i name="e_fr_energy">   -308.86711072 </i>
    <i name="e_wo_entrp">   -308.86711072 </i>
    <i name="e_0_energy">   -308.86711072 </i>
   </energy>
  </scstep>
  <scstep>
   <time name="total">   32.93   32.94</time>
   <energy>
    <i name="e_fr_energy">   -309.06796814 </i>
    <i name="e_wo_entrp">   -309.06796814 </i>
    <i name="e_0_energy">   -309.06796814 </i>
   </energy>
  </scstep>
  <scstep>
   <time name="total">   33.25   33.26</time>
   <energy>
    <i name="e_fr_energy">   -309.02673441 </i>
    <i name="e_wo_entrp">   -309.02673441 </i>
    <i name="e_0_energy">   -309.02673441 </i>
   </energy>
  </scstep>
  <scstep>
   <time name="total">   33.30   33.31</time>
   <energy>
    <i name="e_fr_energy">   -309.00481950 </i>
    <i name="e_wo_entrp">   -309.00481950 </i>
    <i name="e_0_energy">   -309.00481950 </i>
   </energy>
  </scstep>
  <scstep>
   <time name="total">   34.06   34.06</time>
   <energy>
    <i name="e_fr_energy">   -309.00367064 </i>
    <i name="e_wo_entrp">   -309.00367064 </i>
    <i name="e_0_energy">   -309.00367064 </i>
   </energy>
  </scstep>
  <scstep>
   <time name="total">   34.76   34.76</time>
   <energy>
    <i name="e_fr_energy">   -309.00304036 </i>
    <i name="e_wo_entrp">   -309.00304036 </i>
    <i name="e_0_energy">   -309.00304036 </i>
   </energy>
  </scstep>
  <scstep>
   <time name="total">   34.97   34.97</time>
   <energy>
    <i name="e_fr_energy">   -309.00321424 </i>
    <i name="e_wo_entrp">   -309.00321424 </i>
    <i name="e_0_energy">   -309.00321424 </i>
   </energy>
  </scstep>
  <scstep>
   <time name="total">   35.92   35.93</time>
   <energy>
    <i name="e_fr_energy">   -309.00321899 </i>
    <i name="e_wo_entrp">   -309.00321899 </i>
    <i name="e_0_energy">   -309.00321899 </i>
   </energy>
  </scstep>
  <kpoints>
   <generation param="Gamma">
    <v type="int" name="divisions">       6        6        6 </v>
    <v name="usershift">      0.00000000       0.00000000       0.00000000 </v>
    <v name="genvec1">      0.16666667       0.00000000       0.00000000 </v>
    <v name="genvec2">      0.00000000       0.16666667       0.00000000 </v>
    <v name="genvec3">      0.00000000       0.00000000       0.16666667 </v>
    <v name="shift">      0.00000000       0.00000000       0.00000000 </v>
   </generation>
   <varray name="kpointlist" >
    <v>       0.00000000       0.00000000       0.00000000 </v>
    <v>       0.16666667       0.00000000       0.00000000 </v>
    <v>       0.33333333       0.00000000       0.00000000 </v>
    <v>       0.50000000       0.00000000       0.00000000 </v>
    <v>       0.16666667       0.16666667       0.00000000 </v>
    <v>       0.33333333       0.16666667       0.00000000 </v>
    <v>       0.50000000       0.16666667       0.00000000 </v>
    <v>       0.33333333       0.33333333       0.00000000 </v>
    <v>       0.50000000       0.33333333       0.00000000 </v>
    <v>       0.50000000       0.50000000       0.00000000 </v>
    <v>       0.16666667       0.16666667       0.16666667 </v>
    <v>       0.33333333       0.16666667       0.16666667 </v>
    <v>       0.50000000       0.16666667       0.16666667 </v>
    <v>       0.33333333       0.33333333       0.16666667 </v>
    <v>       0.50000000       0.33333333       0.16666667 </v>
    <v>       0.50000000       0.50000000       0.16666667 </v>
    <v>       0.33333333       0.33333333       0.33333333 </v>
    <v>       0.50000000       0.33333333       0.33333333 </v>
    <v>       0.50000000       0.50000000       0.33333333 </v>
    <v>       0.50000000       0.50000000       0.50000000 </v>
   </varray>
   <varray name="weights" >
    <v>       0.00462963 </v>
    <v>       0.02777778 </v>
    <v>       0.02777778 </v>
    <v>       0.01388889 </v>
    <v>       0.05555556 </v>
    <v>       0.11111111 </v>
    <v>       0.05555556 </v>
    <v>       0.05555556 </v>
    <v>       0.05555556 </v>
    <v>       0.01388889 </v>
    <v>       0.03703704 </v>
    <v>       0.11111111 </v>
    <v>       0.05555556 </v>
    <v>       0.11111111 </v>
    <v>       0.11111111 </v>
    <v>       0.02777778 </v>
    <v>       0.03703704 </v>
    <v>       0.05555556 </v>
    <v>       0.02777778 </v>
    <v>       0.00462963 </v>
   </varray>
  </kpoints>
  <dynmat>
   <varray name="hessian" >
    <v>      -3.55985790      -0.00000000      -0.00000000       0.01337634      -0.00000000      -0.00000000       0.00774344      -0.00000000      -0.00000000       0.00942602       0.00000000       0.00000000       0.00774344       0.00000000      -0.00000000       0.00942602      -0.00000000       0.00000000      -0.04734165      -0.00000000       0.00000000       0.00430617       0.00000000       0.00000000      -0.01293202      -0.00777887       0.00197083       0.00674334      -0.00851111      -0.01765250       0.73811928      -0.15611481      -0.15611481      -0.00547114      -0.00777887      -0.00777887       0.02855580      -0.01765250      -0.01765250      -0.00276654      -0.00257296      -0.00257296      -0.01293202       0.00197083      -0.00777887       0.00674334      -0.01765250      -0.00851111      -0.11421780       0.05860325      -0.05860325      -0.00467441       0.00311391      -0.00311391      -0.11421780       0.05860325       0.05860325      -0.00467441       0.00311391       0.00311391      -0.11421780      -0.05860325      -0.05860325      -0.00467441      -0.00311391      -0.00311391      -0.11421780      -0.05860325       0.05860325      -0.00467441      -0.00311391       0.00311391       0.73811928       0.15611481       0.15611481      -0.00547114       0.00777887       0.00777887      -0.01293202       0.00777887      -0.00197083       0.00674334       0.00851111       0.01765250      -0.01293202      -0.00197083       0.00777887       0.00674334       0.01765250       0.00851111       0.02855580       0.01765250       0.01765250      -0.00276654       0.00257296       0.00257296       0.12395451      -0.05860325       0.12873965       0.12395451      -0.05860325      -0.12873965       0.00685883      -0.00311391      -0.00627795       0.00685883      -0.00311391       0.00627795       0.12395451       0.05860325      -0.12873965       0.12395451       0.05860325       0.12873965       0.00685883       0.00311391       0.00627795       0.00685883       0.00311391      -0.00627795      -0.01293202       0.00777887       0.00197083       0.00674334       0.00851111      -0.01765250       0.73811928       0.15611481      -0.15611481      -0.00547114       0.00777887      -0.00777887       0.02855580       0.01765250      -0.01765250      -0.00276654       0.00257296      -0.00257296      -0.01293202      -0.00197083      -0.00777887       0.00674334       0.01765250      -0.00851111       0.12395451      -0.12873965       0.05860325       0.12395451       0.12873965       0.05860325       0.12395451       0.12873965      -0.05860325       0.12395451      -0.12873965      -0.05860325       0.00685883       0.00627795       0.00311391       0.00685883      -0.00627795       0.00311391       0.00685883      -0.00627795      -0.00311391       0.00685883       0.00627795      -0.00311391       0.73811928      -0.15611481       0.15611481      -0.00547114      -0.00777887       0.00777887      -0.01293202      -0.00777887      -0.00197083       0.00674334      -0.00851111       0.01765250      -0.01293202       0.00197083       0.00777887       0.00674334      -0.01765250       0.00851111       0.02855580      -0.01765250       0.01765250      -0.00276654      -0.00257296       0.00257296 </v>
    <v>      -0.00000000      -3.55985790      -0.00000000      -0.00000000       0.00774344      -0.00000000      -0.00000000       0.01337634      -0.00000000       0.00000000       0.00942602       0.00000000       0.00000000       0.00774344      -0.00000000      -0.00000000      -0.04734165       0.00000000      -0.00000000       0.00942602       0.00000000       0.00000000       0.00430617       0.00000000      -0.00777887      -0.00547114       0.00777887      -0.00851111       0.00674334       0.01765250      -0.15611481       0.73811928       0.15611481      -0.00777887      -0.01293202      -0.00197083      -0.01765250       0.00674334       0.00851111      -0.00257296      -0.00276654       0.00257296       0.00197083      -0.01293202       0.00777887      -0.01765250       0.02855580       0.01765250      -0.05860325       0.12395451      -0.12873965      -0.00311391       0.00685883       0.00627795      -0.05860325       0.12395451       0.12873965      -0.00311391       0.00685883      -0.00627795       0.05860325       0.12395451       0.12873965       0.00311391       0.00685883      -0.00627795       0.05860325       0.12395451      -0.12873965       0.00311391       0.00685883       0.00627795       0.15611481       0.73811928       0.15611481       0.00777887      -0.01293202      -0.00197083       0.00777887      -0.00547114       0.00777887       0.00851111       0.00674334       0.01765250      -0.00197083      -0.01293202       0.00777887       0.01765250       0.02855580       0.01765250       0.01765250       0.00674334       0.00851111       0.00257296      -0.00276654       0.00257296       0.05860325      -0.11421780       0.05860325       0.05860325      -0.11421780      -0.05860325       0.00311391      -0.00467441       0.00311391       0.00311391      -0.00467441      -0.00311391      -0.05860325      -0.11421780       0.05860325      -0.05860325      -0.11421780      -0.05860325      -0.00311391      -0.00467441       0.00311391      -0.00311391      -0.00467441      -0.00311391       0.00777887      -0.00547114      -0.00777887       0.00851111       0.00674334      -0.01765250       0.15611481       0.73811928      -0.15611481       0.00777887      -0.01293202       0.00197083       0.01765250       0.00674334      -0.00851111       0.00257296      -0.00276654      -0.00257296      -0.00197083      -0.01293202      -0.00777887       0.01765250       0.02855580      -0.01765250      -0.12873965       0.12395451      -0.05860325       0.12873965       0.12395451       0.05860325       0.12873965       0.12395451      -0.05860325      -0.12873965       0.12395451       0.05860325       0.00627795       0.00685883      -0.00311391      -0.00627795       0.00685883       0.00311391      -0.00627795       0.00685883      -0.00311391       0.00627795       0.00685883       0.00311391      -0.15611481       0.73811928      -0.15611481      -0.00777887      -0.01293202       0.00197083      -0.00777887      -0.00547114      -0.00777887      -0.00851111       0.00674334      -0.01765250       0.00197083      -0.01293202      -0.00777887      -0.01765250       0.02855580      -0.01765250      -0.01765250       0.00674334      -0.00851111      -0.00257296      -0.00276654      -0.00257296 </v>
    <v>      -0.00000000      -0.00000000      -3.55985790      -0.00000000      -0.00000000       0.00774344      -0.00000000      -0.00000000       0.00774344       0.00000000       0.00000000      -0.04734165      -0.00000000      -0.00000000       0.01337634       0.00000000       0.00000000       0.00942602       0.00000000       0.00000000       0.00942602       0.00000000       0.00000000       0.00430617       0.00197083       0.00777887      -0.01293202      -0.01765250       0.01765250       0.02855580      -0.15611481       0.15611481       0.73811928      -0.00777887      -0.00197083      -0.01293202      -0.01765250       0.00851111       0.00674334      -0.00257296       0.00257296      -0.00276654      -0.00777887       0.00777887      -0.00547114      -0.00851111       0.01765250       0.00674334       0.05860325      -0.12873965       0.12395451       0.00311391       0.00627795       0.00685883      -0.05860325       0.12873965       0.12395451      -0.00311391      -0.00627795       0.00685883       0.05860325       0.12873965       0.12395451       0.00311391      -0.00627795       0.00685883      -0.05860325      -0.12873965       0.12395451      -0.00311391       0.00627795       0.00685883       0.15611481       0.15611481       0.73811928       0.00777887      -0.00197083      -0.01293202      -0.00197083       0.00777887      -0.01293202       0.01765250       0.01765250       0.02855580       0.00777887       0.00777887      -0.00547114       0.00851111       0.01765250       0.00674334       0.01765250       0.00851111       0.00674334       0.00257296       0.00257296      -0.00276654       0.12873965      -0.05860325       0.12395451      -0.12873965       0.05860325       0.12395451      -0.00627795      -0.00311391       0.00685883       0.00627795       0.00311391       0.00685883      -0.12873965      -0.05860325       0.12395451       0.12873965       0.05860325       0.12395451       0.00627795      -0.00311391       0.00685883      -0.00627795       0.00311391       0.00685883       0.00197083      -0.00777887      -0.01293202      -0.01765250      -0.01765250       0.02855580      -0.15611481      -0.15611481       0.73811928      -0.00777887       0.00197083      -0.01293202      -0.01765250      -0.00851111       0.00674334      -0.00257296      -0.00257296      -0.00276654      -0.00777887      -0.00777887      -0.00547114      -0.00851111      -0.01765250       0.00674334      -0.05860325       0.05860325      -0.11421780      -0.05860325      -0.05860325      -0.11421780       0.05860325       0.05860325      -0.11421780       0.05860325      -0.05860325      -0.11421780      -0.00311391       0.00311391      -0.00467441      -0.00311391      -0.00311391      -0.00467441       0.00311391       0.00311391      -0.00467441       0.00311391      -0.00311391      -0.00467441       0.15611481      -0.15611481       0.73811928       0.00777887       0.00197083      -0.01293202      -0.00197083      -0.00777887      -0.01293202       0.01765250      -0.01765250       0.02855580       0.00777887      -0.00777887      -0.00547114       0.00851111      -0.01765250       0.00674334       0.01765250      -0.00851111       0.00674334       0.00257296      -0.00257296      -0.00276654 </v>
    <v>       0.01337634      -0.00000000      -0.00000000      -3.55985790      -0.00000000      -0.00000000       0.00942602       0.00000000       0.00000000       0.00774344      -0.00000000      -0.00000000       0.00942602      -0.00000000       0.00000000       0.00774344       0.00000000      -0.00000000       0.00430617       0.00000000       0.00000000      -0.04734165      -0.00000000       0.00000000       0.00674334      -0.00851111      -0.01765250      -0.01293202      -0.00777887       0.00197083      -0.00547114      -0.00777887      -0.00777887       0.73811928      -0.15611481      -0.15611481      -0.00276654      -0.00257296      -0.00257296       0.02855580      -0.01765250      -0.01765250       0.00674334      -0.01765250      -0.00851111      -0.01293202       0.00197083      -0.00777887      -0.00467441       0.00311391      -0.00311391      -0.11421780       0.05860325      -0.05860325      -0.00467441       0.00311391       0.00311391      -0.11421780       0.05860325       0.05860325      -0.00467441      -0.00311391      -0.00311391      -0.11421780      -0.05860325      -0.05860325      -0.00467441      -0.00311391       0.00311391      -0.11421780      -0.05860325       0.05860325      -0.00547114       0.00777887       0.00777887       0.73811928       0.15611481       0.15611481       0.00674334       0.00851111       0.01765250      -0.01293202       0.00777887      -0.00197083       0.00674334       0.01765250       0.00851111      -0.01293202      -0.00197083       0.00777887      -0.00276654       0.00257296       0.00257296       0.02855580       0.01765250       0.01765250       0.12395451      -0.05860325      -0.12873965       0.12395451      -0.05860325       0.12873965       0.00685883      -0.00311391       0.00627795       0.00685883      -0.00311391      -0.00627795       0.12395451       0.05860325       0.12873965       0.12395451       0.05860325      -0.12873965       0.00685883       0.00311391      -0.00627795       0.00685883       0.00311391       0.00627795       0.00674334       0.00851111      -0.01765250      -0.01293202       0.00777887       0.00197083      -0.00547114       0.00777887      -0.00777887       0.73811928       0.15611481      -0.15611481      -0.00276654       0.00257296      -0.00257296       0.02855580       0.01765250      -0.01765250       0.00674334       0.01765250      -0.00851111      -0.01293202      -0.00197083      -0.00777887       0.12395451       0.12873965       0.05860325       0.12395451      -0.12873965       0.05860325       0.12395451      -0.12873965      -0.05860325       0.12395451       0.12873965      -0.05860325       0.00685883      -0.00627795       0.00311391       0.00685883       0.00627795       0.00311391       0.00685883       0.00627795      -0.00311391       0.00685883      -0.00627795      -0.00311391      -0.00547114      -0.00777887       0.00777887       0.73811928      -0.15611481       0.15611481       0.00674334      -0.00851111       0.01765250      -0.01293202      -0.00777887      -0.00197083       0.00674334      -0.01765250       0.00851111      -0.01293202       0.00197083       0.00777887      -0.00276654      -0.00257296       0.00257296       0.02855580      -0.01765250       0.01765250 </v>
    <v>      -0.00000000       0.00774344      -0.00000000      -0.00000000      -3.55985790      -0.00000000       0.00000000       0.00942602       0.00000000      -0.00000000       0.01337634      -0.00000000      -0.00000000      -0.04734165       0.00000000       0.00000000       0.00774344      -0.00000000       0.00000000       0.00430617       0.00000000      -0.00000000       0.00942602       0.00000000      -0.00851111       0.00674334       0.01765250      -0.00777887      -0.00547114       0.00777887      -0.00777887      -0.01293202      -0.00197083      -0.15611481       0.73811928       0.15611481      -0.00257296      -0.00276654       0.00257296      -0.01765250       0.00674334       0.00851111      -0.01765250       0.02855580       0.01765250       0.00197083      -0.01293202       0.00777887      -0.00311391       0.00685883       0.00627795      -0.05860325       0.12395451      -0.12873965      -0.00311391       0.00685883      -0.00627795      -0.05860325       0.12395451       0.12873965       0.00311391       0.00685883      -0.00627795       0.05860325       0.12395451       0.12873965       0.00311391       0.00685883       0.00627795       0.05860325       0.12395451      -0.12873965       0.00777887      -0.01293202      -0.00197083       0.15611481       0.73811928       0.15611481       0.00851111       0.00674334       0.01765250       0.00777887      -0.00547114       0.00777887       0.01765250       0.02855580       0.01765250      -0.00197083      -0.01293202       0.00777887       0.00257296      -0.00276654       0.00257296       0.01765250       0.00674334       0.00851111       0.05860325      -0.11421780      -0.05860325       0.05860325      -0.11421780       0.05860325       0.00311391      -0.00467441      -0.00311391       0.00311391      -0.00467441       0.00311391      -0.05860325      -0.11421780      -0.05860325      -0.05860325      -0.11421780       0.05860325      -0.00311391      -0.00467441      -0.00311391      -0.00311391      -0.00467441       0.00311391       0.00851111       0.00674334      -0.01765250       0.00777887      -0.00547114      -0.00777887       0.00777887      -0.01293202       0.00197083       0.15611481       0.73811928      -0.15611481       0.00257296      -0.00276654      -0.00257296       0.01765250       0.00674334      -0.00851111       0.01765250       0.02855580      -0.01765250      -0.00197083      -0.01293202      -0.00777887       0.12873965       0.12395451       0.05860325      -0.12873965       0.12395451      -0.05860325      -0.12873965       0.12395451       0.05860325       0.12873965       0.12395451      -0.05860325      -0.00627795       0.00685883       0.00311391       0.00627795       0.00685883      -0.00311391       0.00627795       0.00685883       0.00311391      -0.00627795       0.00685883      -0.00311391      -0.00777887      -0.01293202       0.00197083      -0.15611481       0.73811928      -0.15611481      -0.00851111       0.00674334      -0.01765250      -0.00777887      -0.00547114      -0.00777887      -0.01765250       0.02855580      -0.01765250       0.00197083      -0.01293202      -0.00777887      -0.00257296      -0.00276654      -0.00257296      -0.01765250       0.00674334      -0.00851111 </v>
    <v>      -0.00000000      -0.00000000       0.00774344      -0.00000000      -0.00000000      -3.55985790       0.00000000       0.00000000      -0.04734165      -0.00000000      -0.00000000       0.00774344       0.00000000       0.00000000       0.00942602      -0.00000000      -0.00000000       0.01337634       0.00000000       0.00000000       0.00430617       0.00000000       0.00000000       0.00942602      -0.01765250       0.01765250       0.02855580       0.00197083       0.00777887      -0.01293202      -0.00777887      -0.00197083      -0.01293202      -0.15611481       0.15611481       0.73811928      -0.00257296       0.00257296      -0.00276654      -0.01765250       0.00851111       0.00674334      -0.00851111       0.01765250       0.00674334      -0.00777887       0.00777887      -0.00547114       0.00311391       0.00627795       0.00685883       0.05860325      -0.12873965       0.12395451      -0.00311391      -0.00627795       0.00685883      -0.05860325       0.12873965       0.12395451       0.00311391      -0.00627795       0.00685883       0.05860325       0.12873965       0.12395451      -0.00311391       0.00627795       0.00685883      -0.05860325      -0.12873965       0.12395451       0.00777887      -0.00197083      -0.01293202       0.15611481       0.15611481       0.73811928       0.01765250       0.01765250       0.02855580      -0.00197083       0.00777887      -0.01293202       0.00851111       0.01765250       0.00674334       0.00777887       0.00777887      -0.00547114       0.00257296       0.00257296      -0.00276654       0.01765250       0.00851111       0.00674334      -0.12873965       0.05860325       0.12395451       0.12873965      -0.05860325       0.12395451       0.00627795       0.00311391       0.00685883      -0.00627795      -0.00311391       0.00685883       0.12873965       0.05860325       0.12395451      -0.12873965      -0.05860325       0.12395451      -0.00627795       0.00311391       0.00685883       0.00627795      -0.00311391       0.00685883      -0.01765250      -0.01765250       0.02855580       0.00197083      -0.00777887      -0.01293202      -0.00777887       0.00197083      -0.01293202      -0.15611481      -0.15611481       0.73811928      -0.00257296      -0.00257296      -0.00276654      -0.01765250      -0.00851111       0.00674334      -0.00851111      -0.01765250       0.00674334      -0.00777887      -0.00777887      -0.00547114      -0.05860325      -0.05860325      -0.11421780      -0.05860325       0.05860325      -0.11421780       0.05860325      -0.05860325      -0.11421780       0.05860325       0.05860325      -0.11421780      -0.00311391      -0.00311391      -0.00467441      -0.00311391       0.00311391      -0.00467441       0.00311391      -0.00311391      -0.00467441       0.00311391       0.00311391      -0.00467441       0.00777887       0.00197083      -0.01293202       0.15611481      -0.15611481       0.73811928       0.01765250      -0.01765250       0.02855580      -0.00197083      -0.00777887      -0.01293202       0.00851111      -0.01765250       0.00674334       0.00777887      -0.00777887      -0.00547114       0.00257296      -0.00257296      -0.00276654       0.01765250      -0.00851111       0.00674334 </v>
    <v>       0.00774344      -0.00000000      -0.00000000       0.00942602       0.00000000       0.00000000      -3.55985790      -0.00000000      -0.00000000       0.01337634      -0.00000000      -0.00000000      -0.04734165      -0.00000000       0.00000000       0.00430617       0.00000000       0.00000000       0.00774344       0.00000000      -0.00000000       0.00942602      -0.00000000       0.00000000       0.73811928      -0.15611481      -0.15611481      -0.00547114      -0.00777887      -0.00777887      -0.01293202      -0.00777887       0.00197083       0.00674334      -0.00851111      -0.01765250      -0.01293202       0.00197083      -0.00777887       0.00674334      -0.01765250      -0.00851111       0.02855580      -0.01765250      -0.01765250      -0.00276654      -0.00257296      -0.00257296      -0.11421780       0.05860325       0.05860325      -0.00467441       0.00311391       0.00311391      -0.11421780       0.05860325      -0.05860325      -0.00467441       0.00311391      -0.00311391      -0.11421780      -0.05860325       0.05860325      -0.00467441      -0.00311391       0.00311391      -0.11421780      -0.05860325      -0.05860325      -0.00467441      -0.00311391      -0.00311391      -0.01293202       0.00777887      -0.00197083       0.00674334       0.00851111       0.01765250       0.73811928       0.15611481       0.15611481      -0.00547114       0.00777887       0.00777887       0.02855580       0.01765250       0.01765250      -0.00276654       0.00257296       0.00257296      -0.01293202      -0.00197083       0.00777887       0.00674334       0.01765250       0.00851111       0.00685883      -0.00311391      -0.00627795       0.00685883      -0.00311391       0.00627795       0.12395451      -0.05860325       0.12873965       0.12395451      -0.05860325      -0.12873965       0.00685883       0.00311391       0.00627795       0.00685883       0.00311391      -0.00627795       0.12395451       0.05860325      -0.12873965       0.12395451       0.05860325       0.12873965       0.73811928       0.15611481      -0.15611481      -0.00547114       0.00777887      -0.00777887      -0.01293202       0.00777887       0.00197083       0.00674334       0.00851111      -0.01765250      -0.01293202      -0.00197083      -0.00777887       0.00674334       0.01765250      -0.00851111       0.02855580       0.01765250      -0.01765250      -0.00276654       0.00257296      -0.00257296       0.12395451       0.12873965      -0.05860325       0.12395451      -0.12873965      -0.05860325       0.12395451      -0.12873965       0.05860325       0.12395451       0.12873965       0.05860325       0.00685883      -0.00627795      -0.00311391       0.00685883       0.00627795      -0.00311391       0.00685883       0.00627795       0.00311391       0.00685883      -0.00627795       0.00311391      -0.01293202      -0.00777887      -0.00197083       0.00674334      -0.00851111       0.01765250       0.73811928      -0.15611481       0.15611481      -0.00547114      -0.00777887       0.00777887       0.02855580      -0.01765250       0.01765250      -0.00276654      -0.00257296       0.00257296      -0.01293202       0.00197083       0.00777887       0.00674334      -0.01765250       0.00851111 </v>
    <v>      -0.00000000       0.01337634      -0.00000000       0.00000000       0.00942602       0.00000000      -0.00000000      -3.55985790      -0.00000000      -0.00000000       0.00774344      -0.00000000      -0.00000000       0.00942602       0.00000000       0.00000000       0.00430617       0.00000000       0.00000000       0.00774344      -0.00000000      -0.00000000      -0.04734165       0.00000000      -0.15611481       0.73811928       0.15611481      -0.00777887      -0.01293202      -0.00197083      -0.00777887      -0.00547114       0.00777887      -0.00851111       0.00674334       0.01765250       0.00197083      -0.01293202       0.00777887      -0.01765250       0.02855580       0.01765250      -0.01765250       0.00674334       0.00851111      -0.00257296      -0.00276654       0.00257296      -0.05860325       0.12395451       0.12873965      -0.00311391       0.00685883      -0.00627795      -0.05860325       0.12395451      -0.12873965      -0.00311391       0.00685883       0.00627795       0.05860325       0.12395451      -0.12873965       0.00311391       0.00685883       0.00627795       0.05860325       0.12395451       0.12873965       0.00311391       0.00685883      -0.00627795       0.00777887      -0.00547114       0.00777887       0.00851111       0.00674334       0.01765250       0.15611481       0.73811928       0.15611481       0.00777887      -0.01293202      -0.00197083       0.01765250       0.00674334       0.00851111       0.00257296      -0.00276654       0.00257296      -0.00197083      -0.01293202       0.00777887       0.01765250       0.02855580       0.01765250       0.00311391      -0.00467441       0.00311391       0.00311391      -0.00467441      -0.00311391       0.05860325      -0.11421780       0.05860325       0.05860325      -0.11421780      -0.05860325      -0.00311391      -0.00467441       0.00311391      -0.00311391      -0.00467441      -0.00311391      -0.05860325      -0.11421780       0.05860325      -0.05860325      -0.11421780      -0.05860325       0.15611481       0.73811928      -0.15611481       0.00777887      -0.01293202       0.00197083       0.00777887      -0.00547114      -0.00777887       0.00851111       0.00674334      -0.01765250      -0.00197083      -0.01293202      -0.00777887       0.01765250       0.02855580      -0.01765250       0.01765250       0.00674334      -0.00851111       0.00257296      -0.00276654      -0.00257296       0.12873965       0.12395451      -0.05860325      -0.12873965       0.12395451       0.05860325      -0.12873965       0.12395451      -0.05860325       0.12873965       0.12395451       0.05860325      -0.00627795       0.00685883      -0.00311391       0.00627795       0.00685883       0.00311391       0.00627795       0.00685883      -0.00311391      -0.00627795       0.00685883       0.00311391      -0.00777887      -0.00547114      -0.00777887      -0.00851111       0.00674334      -0.01765250      -0.15611481       0.73811928      -0.15611481      -0.00777887      -0.01293202       0.00197083      -0.01765250       0.00674334      -0.00851111      -0.00257296      -0.00276654      -0.00257296       0.00197083      -0.01293202      -0.00777887      -0.01765250       0.02855580      -0.01765250 </v>
    <v>      -0.00000000      -0.00000000       0.00774344       0.00000000       0.00000000      -0.04734165      -0.00000000      -0.00000000      -3.55985790      -0.00000000      -0.00000000       0.00774344       0.00000000       0.00000000       0.00942602       0.00000000       0.00000000       0.00430617      -0.00000000      -0.00000000       0.01337634       0.00000000       0.00000000       0.00942602      -0.15611481       0.15611481       0.73811928      -0.00777887      -0.00197083      -0.01293202       0.00197083       0.00777887      -0.01293202      -0.01765250       0.01765250       0.02855580      -0.00777887       0.00777887      -0.00547114      -0.00851111       0.01765250       0.00674334      -0.01765250       0.00851111       0.00674334      -0.00257296       0.00257296      -0.00276654      -0.05860325       0.12873965       0.12395451      -0.00311391      -0.00627795       0.00685883       0.05860325      -0.12873965       0.12395451       0.00311391       0.00627795       0.00685883      -0.05860325      -0.12873965       0.12395451      -0.00311391       0.00627795       0.00685883       0.05860325       0.12873965       0.12395451       0.00311391      -0.00627795       0.00685883      -0.00197083       0.00777887      -0.01293202       0.01765250       0.01765250       0.02855580       0.15611481       0.15611481       0.73811928       0.00777887      -0.00197083      -0.01293202       0.01765250       0.00851111       0.00674334       0.00257296       0.00257296      -0.00276654       0.00777887       0.00777887      -0.00547114       0.00851111       0.01765250       0.00674334      -0.00627795      -0.00311391       0.00685883       0.00627795       0.00311391       0.00685883       0.12873965      -0.05860325       0.12395451      -0.12873965       0.05860325       0.12395451       0.00627795      -0.00311391       0.00685883      -0.00627795       0.00311391       0.00685883      -0.12873965      -0.05860325       0.12395451       0.12873965       0.05860325       0.12395451      -0.15611481      -0.15611481       0.73811928      -0.00777887       0.00197083      -0.01293202       0.00197083      -0.00777887      -0.01293202      -0.01765250      -0.01765250       0.02855580      -0.00777887      -0.00777887      -0.00547114      -0.00851111      -0.01765250       0.00674334      -0.01765250      -0.00851111       0.00674334      -0.00257296      -0.00257296      -0.00276654       0.05860325       0.05860325      -0.11421780       0.05860325      -0.05860325      -0.11421780      -0.05860325       0.05860325      -0.11421780      -0.05860325      -0.05860325      -0.11421780       0.00311391       0.00311391      -0.00467441       0.00311391      -0.00311391      -0.00467441      -0.00311391       0.00311391      -0.00467441      -0.00311391      -0.00311391      -0.00467441      -0.00197083      -0.00777887      -0.01293202       0.01765250      -0.01765250       0.02855580       0.15611481      -0.15611481       0.73811928       0.00777887       0.00197083      -0.01293202       0.01765250      -0.00851111       0.00674334       0.00257296      -0.00257296      -0.00276654       0.00777887      -0.00777887      -0.00547114       0.00851111      -0.01765250       0.00674334 </v>
[...]
      </set>
     </set>
    </set>
   </array>
  </eigenvalues>
  <separator name="orbital magnetization" >
   <v name="MAGDIPOLOUT">      0.00000000      0.00000000      0.00000000</v>
  </separator>
  <dos>
   <i name="efermi">      9.82070024 </i>
   <total>
    <array>
     <dimension dim="1">gridpoints</dimension>
     <dimension dim="2">spin</dimension>
     <field>energy</field>
     <field>total</field>
     <field>integrated</field>
     <set>
      <set comment="spin 1">
       <r>   -13.3809     0.0000     0.0000 </r>
       <r>   -13.2608     0.0000     0.0000 </r>
       <r>   -13.1406     0.0000     0.0000 </r>
       <r>   -13.0204     0.0000     0.0000 </r>
       <r>   -12.9002     0.0000     0.0000 </r>
       <r>   -12.7800     0.0000     0.0000 </r>
       <r>   -12.6599     0.0000     0.0000 </r>
       <r>   -12.5397     0.0000     0.0000 </r>
       <r>   -12.4195     0.0000     0.0000 </r>
       <r>   -12.2993     0.0000     0.0000 </r>
       <r>   -12.1792     0.0000     0.0000 </r>
       <r>   -12.0590     0.0000     0.0000 </r>
       <r>   -11.9388     0.0000     0.0000 </r>
       <r>   -11.8186     0.0030     0.0004 </r>
       <r>   -11.6985     0.2350     0.0286 </r>
       <r>   -11.5783     1.2223     0.1755 </r>
       <r>   -11.4581     1.4069     0.3446 </r>
       <r>   -11.3379     2.8350     0.6853 </r>
       <r>   -11.2178     1.5240     0.8684 </r>
       <r>   -11.0976     3.5510     1.2952 </r>
       <r>   -10.9774     2.8572     1.6385 </r>
       <r>   -10.8572     3.8408     2.1001 </r>
       <r>   -10.7370     2.3099     2.3777 </r>
       <r>   -10.6169     4.6415     2.9355 </r>
       <r>   -10.4967     4.3313     3.4560 </r>
       <r>   -10.3765     5.0365     4.0613 </r>
       <r>   -10.2563     2.3516     4.3439 </r>
       <r>   -10.1362     4.6501     4.9027 </r>
       <r>   -10.0160     6.3690     5.6681 </r>
       <r>    -9.8958     5.5320     6.3330 </r>
       <r>    -9.7756     4.3936     6.8610 </r>
       <r>    -9.6555     4.0848     7.3519 </r>
       <r>    -9.5353     6.8912     8.1800 </r>
       <r>    -9.4151     5.0654     8.7888 </r>
       <r>    -9.2949     5.5734     9.4586 </r>
       <r>    -9.1747     6.7234    10.2666 </r>
       <r>    -9.0546     7.3993    11.1558 </r>
       <r>    -8.9344     6.0533    11.8833 </r>
       <r>    -8.8142     5.5522    12.5505 </r>
       <r>    -8.6940     3.7373    12.9996 </r>
       <r>    -8.5739     9.3534    14.1237 </r>
       <r>    -8.4537     7.3154    15.0028 </r>
       <r>    -8.3335     9.3893    16.1312 </r>
       <r>    -8.2133     5.9211    16.8428 </r>
       <r>    -8.0932     6.3938    17.6112 </r>
       <r>    -7.9730     7.0181    18.4546 </r>
       <r>    -7.8528     8.1483    19.4338 </r>
       <r>    -7.7326     6.2083    20.1799 </r>
       <r>    -7.6124    10.9176    21.4920 </r>
       <r>    -7.4923     9.2855    22.6079 </r>
       <r>    -7.3721     6.1762    23.3501 </r>
       <r>    -7.2519     7.0419    24.1964 </r>
       <r>    -7.1317    13.3105    25.7960 </r>
       <r>    -7.0116     8.9724    26.8743 </r>
       <r>    -6.8914     4.8315    27.4549 </r>
       <r>    -6.7712     9.0386    28.5411 </r>
       <r>    -6.6510    10.1796    29.7645 </r>
       <r>    -6.5309    10.5774    31.0357 </r>
       <r>    -6.4107    11.9386    32.4704 </r>
       <r>    -6.2905    11.5972    33.8641 </r>
       <r>    -6.1703    12.6802    35.3880 </r>
       <r>    -6.0501     9.2489    36.4995 </r>
       <r>    -5.9300    10.2916    37.7363 </r>
       <r>    -5.8098    10.1000    38.9501 </r>
       <r>    -5.6896    16.2712    40.9055 </r>
       <r>    -5.5694    11.8410    42.3285 </r>
       <r>    -5.4493     9.2502    43.4402 </r>
       <r>    -5.3291    11.6809    44.8439 </r>
       <r>    -5.2089    11.4851    46.2242 </r>
       <r>    -5.0887    14.2278    47.9340 </r>
       <r>    -4.9686     7.2456    48.8048 </r>
       <r>    -4.8484     9.6763    49.9677 </r>
       <r>    -4.7282    10.3564    51.2123 </r>
       <r>    -4.6080     8.7982    52.2696 </r>
       <r>    -4.4878     3.4668    52.6862 </r>
       <r>    -4.3677    14.2429    54.3979 </r>
       <r>    -4.2475     8.4504    55.4134 </r>
       <r>    -4.1273     4.5711    55.9628 </r>
       <r>    -4.0071    10.1216    57.1792 </r>
       <r>    -3.8870    10.3389    58.4216 </r>
       <r>    -3.7668     9.7578    59.5943 </r>
       <r>    -3.6466     6.6911    60.3984 </r>
       <r>    -3.5264     4.1158    60.8930 </r>
       <r>    -3.4063     6.6511    61.6924 </r>
       <r>    -3.2861     7.0846    62.5438 </r>
       <r>    -3.1659     7.2712    63.4176 </r>
       <r>    -3.0457     9.2195    64.5256 </r>
       <r>    -2.9256    11.6712    65.9282 </r>
       <r>    -2.8054    11.8571    67.3531 </r>
       <r>    -2.6852     8.9924    68.4338 </r>
       <r>    -2.5650     7.6422    69.3522 </r>
       <r>    -2.4448     8.1531    70.3320 </r>
       <r>    -2.3247    14.0872    72.0250 </r>
       <r>    -2.2045     8.1425    73.0035 </r>
       <r>    -2.0843    11.3937    74.3728 </r>
       <r>    -1.9641    11.2149    75.7206 </r>
       <r>    -1.8440    21.7008    78.3285 </r>
       <r>    -1.7238    29.0136    81.8152 </r>
       <r>    -1.6036    25.7186    84.9060 </r>
       <r>    -1.4834    14.4753    86.6456 </r>
       <r>    -1.3633    11.6217    88.0423 </r>
       <r>    -1.2431    13.5783    89.6741 </r>
       <r>    -1.1229     6.1114    90.4085 </r>
       <r>    -1.0027    10.2423    91.6394 </r>
       <r>    -0.8825    12.8589    93.1847 </r>
       <r>    -0.7624    11.4836    94.5648 </r>
       <r>    -0.6422     6.2326    95.3138 </r>
       <r>    -0.5220    10.5604    96.5829 </r>
       <r>    -0.4018    18.2333    98.7742 </r>
       <r>    -0.2817    13.4590   100.3916 </r>
       <r>    -0.1615     7.3739   101.2778 </r>
       <r>    -0.0413     3.9388   101.7511 </r>
       <r>     0.0789     1.2777   101.9047 </r>
       <r>     0.1990    10.1338   103.1225 </r>
       <r>     0.3192    16.6857   105.1277 </r>
       <r>     0.4394     8.5213   106.1518 </r>
       <r>     0.5596     8.5398   107.1781 </r>
       <r>     0.6798     8.4763   108.1968 </r>
       <r>     0.7999    17.2229   110.2665 </r>
       <r>     0.9201    24.8486   113.2528 </r>
       <r>     1.0403    22.8744   116.0017 </r>
       <r>     1.1605    10.6214   117.2782 </r>
       <r>     1.2806    10.4588   118.5351 </r>
       <r>     1.4008    14.9638   120.3334 </r>
       <r>     1.5210    13.6196   121.9701 </r>
       <r>     1.6412    21.3850   124.5401 </r>
       <r>     1.7613    27.1579   127.8039 </r>
       <r>     1.8815    12.6625   129.3256 </r>
       <r>     2.0017     8.3482   130.3289 </r>
       <r>     2.1219    17.1921   132.3950 </r>
       <r>     2.2421    20.4668   134.8546 </r>
       <r>     2.3622    23.8700   137.7232 </r>
       <r>     2.4824    18.5514   139.9527 </r>
       <r>     2.6026    13.5092   141.5762 </r>
       <r>     2.7228    15.0723   143.3875 </r>
       <r>     2.8429    23.9098   146.2609 </r>
       <r>     2.9631    18.3406   148.4650 </r>
       <r>     3.0833    21.2095   151.0139 </r>
       <r>     3.2035    26.8539   154.2411 </r>
       <r>     3.3236    26.5799   157.4354 </r>
       <r>     3.4438    30.6887   161.1235 </r>
       <r>     3.5640    13.0524   162.6921 </r>
       <r>     3.6842    20.7984   165.1916 </r>
       <r>     3.8043    26.0605   168.3234 </r>
       <r>     3.9245    30.1236   171.9436 </r>
       <r>     4.0447    37.2650   176.4220 </r>
       <r>     4.1649    21.4360   178.9981 </r>
       <r>     4.2851    14.4875   180.7391 </r>
       <r>     4.4052    26.4922   183.9229 </r>
       <r>     4.5254    24.2856   186.8414 </r>
       <r>     4.6456    19.4230   189.1756 </r>
       <r>     4.7658    22.1089   191.8326 </r>
       <r>     4.8859    30.9317   195.5499 </r>
       <r>     5.0061    25.7790   198.6479 </r>
       <r>     5.1263    17.8570   200.7939 </r>
       <r>     5.2465    23.9780   203.6755 </r>
       <r>     5.3666    19.4491   206.0129 </r>
       <r>     5.4868    23.8465   208.8787 </r>
       <r>     5.6070    25.0762   211.8922 </r>
       <r>     5.7272    14.2638   213.6064 </r>
       <r>     5.8474    22.2984   216.2862 </r>
       <r>     5.9675    25.2749   219.3236 </r>
       <r>     6.0877    21.8200   221.9459 </r>
       <r>     6.2079    26.0345   225.0746 </r>
       <r>     6.3281    18.8255   227.3370 </r>
       <r>     6.4482    15.5734   229.2086 </r>
       <r>     6.5684    13.5048   230.8315 </r>
       <r>     6.6886    22.4080   233.5244 </r>
       <r>     6.8088    29.4712   237.0662 </r>
       <r>     6.9289    19.0399   239.3544 </r>
       <r>     7.0491     6.2778   240.1088 </r>
       <r>     7.1693     9.5502   241.2565 </r>
       <r>     7.2895    15.1801   243.0808 </r>
       <r>     7.4097     9.4228   244.2132 </r>
       <r>     7.5298    12.8177   245.7536 </r>
       <r>     7.6500    12.3436   247.2370 </r>
       <r>     7.7702     6.0061   247.9588 </r>
       <r>     7.8904     8.7084   249.0054 </r>
       <r>     8.0105     5.8409   249.7073 </r>
       <r>     8.1307     7.8252   250.6477 </r>
       <r>     8.2509     7.7880   251.5837 </r>
       <r>     8.3711     5.8564   252.2875 </r>
       <r>     8.4912     3.2286   252.6755 </r>
       <r>     8.6114     6.5429   253.4618 </r>
       <r>     8.7316     5.8482   254.1646 </r>
       <r>     8.8518     3.2462   254.5547 </r>
       <r>     8.9720     1.9072   254.7839 </r>
       <r>     9.0921     3.4779   255.2019 </r>
       <r>     9.2123     3.6921   255.6456 </r>
       <r>     9.3325     1.5374   255.8303 </r>
       <r>     9.4527     0.9739   255.9474 </r>
       <r>     9.5728     0.4254   255.9985 </r>
       <r>     9.6930     0.0125   256.0000 </r>
       <r>     9.8132     0.0000   256.0000 </r>
       <r>     9.9334     0.0000   256.0000 </r>
       <r>    10.0535     0.0000   256.0000 </r>
       <r>    10.1737     0.0000   256.0000 </r>
       <r>    10.2939     0.0000   256.0000 </r>
       <r>    10.4141     0.0000   256.0000 </r>
       <r>    10.5342     0.0000   256.0000 </r>
       <r>    10.6544     0.0000   256.0000 </r>
       <r>    10.7746     0.0000   256.0000 </r>
       <r>    10.8948     0.0000   256.0000 </r>
       <r>    11.0150     0.0000   256.0000 </r>
       <r>    11.1351     0.0000   256.0000 </r>
       <r>    11.2553     0.0000   256.0000 </r>
       <r>    11.3755     0.0000   256.0000 </r>
       <r>    11.4957     0.0000   256.0000 </r>
       <r>    11.6158     0.0000   256.0000 </r>
       <r>    11.7360     0.0000   256.0000 </r>
       <r>    11.8562     0.0000   256.0000 </r>
       <r>    11.9764     0.0000   256.0000 </r>
       <r>    12.0965     0.0000   256.0000 </r>
       <r>    12.2167     0.0000   256.0000 </r>
       <r>    12.3369     0.0000   256.0000 </r>
       <r>    12.4571     0.0000   256.0000 </r>
       <r>    12.5773     0.0000   256.0000 </r>
       <r>    12.6974     0.0000   256.0000 </r>
       <r>    12.8176     0.0000   256.0000 </r>
       <r>    12.9378     0.0000   256.0000 </r>
       <r>    13.0580     0.0000   256.0000 </r>
       <r>    13.1781     0.0000   256.0000 </r>
       <r>    13.2983     0.0000   256.0000 </r>
       <r>    13.4185     0.0001   256.0000 </r>
       <r>    13.5387     0.1668   256.0201 </r>
       <r>    13.6588     1.0694   256.1486 </r>
       <r>    13.7790     0.7748   256.2417 </r>
       <r>    13.8992     4.2557   256.7531 </r>
       <r>    14.0194     4.5330   257.2979 </r>
       <r>    14.1396     7.1338   258.1552 </r>
       <r>    14.2597     5.9088   258.8653 </r>
       <r>    14.3799     3.1287   259.2413 </r>
       <r>    14.5001     3.7797   259.6955 </r>
       <r>    14.6203    11.6291   261.0931 </r>
       <r>    14.7404    20.0430   263.5018 </r>
       <r>    14.8606     8.8402   264.5642 </r>
       <r>    14.9808     9.6600   265.7251 </r>
       <r>    15.1010    12.1571   267.1861 </r>
       <r>    15.2211    14.4149   268.9184 </r>
       <r>    15.3413    11.6390   270.3172 </r>
       <r>    15.4615    12.4068   271.8082 </r>
       <r>    15.5817    20.8339   274.3119 </r>
       <r>    15.7019    17.0573   276.3618 </r>
       <r>    15.8220    20.8246   278.8644 </r>
       <r>    15.9422    13.8383   280.5275 </r>
       <r>    16.0624    17.4787   282.6280 </r>
       <r>    16.1826    19.0401   284.9162 </r>
       <r>    16.3027    22.8940   287.6675 </r>
       <r>    16.4229    23.8364   290.5321 </r>
       <r>    16.5431    11.1437   291.8713 </r>
       <r>    16.6633    24.2274   294.7829 </r>
       <r>    16.7834    28.5335   298.2120 </r>
       <r>    16.9036    10.4431   299.4670 </r>
       <r>    17.0238    17.4512   301.5642 </r>
       <r>    17.1440    24.2219   304.4751 </r>
       <r>    17.2642    51.8094   310.7014 </r>
       <r>    17.3843    36.8377   315.1284 </r>
       <r>    17.5045    31.3877   318.9005 </r>
       <r>    17.6247    20.2571   321.3349 </r>
       <r>    17.7449    20.5725   323.8073 </r>
       <r>    17.8650    35.8383   328.1142 </r>
       <r>    17.9852    36.0985   332.4524 </r>
       <r>    18.1054    42.4708   337.5564 </r>
       <r>    18.2256    38.3418   342.1642 </r>
       <r>    18.3457    27.7815   345.5029 </r>
       <r>    18.4659    29.8940   349.0955 </r>
       <r>    18.5861    33.3803   353.1070 </r>
       <r>    18.7063    37.3909   357.6005 </r>
       <r>    18.8264    20.3443   360.0454 </r>
       <r>    18.9466    13.4233   361.6586 </r>
       <r>    19.0668    25.2558   364.6938 </r>
       <r>    19.1870    26.2746   367.8514 </r>
       <r>    19.3072    27.5155   371.1581 </r>
       <r>    19.4273    31.3507   374.9257 </r>
       <r>    19.5475    22.9550   377.6844 </r>
       <r>    19.6677    18.1099   379.8608 </r>
       <r>    19.7879     8.6994   380.9062 </r>
       <r>    19.9080     2.1167   381.1606 </r>
       <r>    20.0282     4.1889   381.6640 </r>
       <r>    20.1484     7.1868   382.5277 </r>
       <r>    20.2686     4.8148   383.1063 </r>
       <r>    20.3887     1.0811   383.2363 </r>
       <r>    20.5089     1.7987   383.4524 </r>
       <r>    20.6291     1.4351   383.6249 </r>
       <r>    20.7493     0.4023   383.6732 </r>
       <r>    20.8695     0.8570   383.7762 </r>
       <r>    20.9896     0.5053   383.8370 </r>
       <r>    21.1098     1.3259   383.9963 </r>
       <r>    21.2300     0.0307   384.0000 </r>
       <r>    21.3502     0.0000   384.0000 </r>
       <r>    21.4703     0.0000   384.0000 </r>
       <r>    21.5905     0.0000   384.0000 </r>
       <r>    21.7107     0.0000   384.0000 </r>
       <r>    21.8309     0.0000   384.0000 </r>
       <r>    21.9510     0.0000   384.0000 </r>
       <r>    22.0712     0.0000   384.0000 </r>
       <r>    22.1914     0.0000   384.0000 </r>
       <r>    22.3116     0.0000   384.0000 </r>
       <r>    22.4318     0.0000   384.0000 </r>
       <r>    22.5519     0.0000   384.0000 </r>
       <r>    22.6721     0.0000   384.0000 </r>
      </set>
     </set>
    </array>
   </total>
  </dos>
 </calculation>
 <structure name="finalpos" >
  <crystal>
   <varray name="basis" >
    <v>       7.17999872       0.00000000       0.00000000 </v>
    <v>       0.00000000       7.17999872       0.00000000 </v>
    <v>       0.00000000       0.00000000       7.17999872 </v>
   </varray>
   <i name="volume">    370.14603372 </i>
   <varray name="rec_basis" >
    <v>       0.13927579       0.00000000       0.00000000 </v>
    <v>       0.00000000       0.13927579       0.00000000 </v>
    <v>       0.00000000       0.00000000       0.13927579 </v>
   </varray>
  </crystal>
  <varray name="positions" >
   <v>       0.12500000       0.37500000       0.12500000 </v>
   <v>       0.62500000       0.37500000       0.12500000 </v>
   <v>       0.12500000       0.87500000       0.12500000 </v>
   <v>       0.62500000       0.87500000       0.12500000 </v>
   <v>       0.12500000       0.37500000       0.62500000 </v>
   <v>       0.62500000       0.37500000       0.62500000 </v>
   <v>       0.12500000       0.87500000       0.62500000 </v>
   <v>       0.62500000       0.87500000       0.62500000 </v>
   <v>       0.00000000       0.00000000       0.25000000 </v>
   <v>       0.50000000       0.00000000       0.25000000 </v>
   <v>       0.00000000       0.50000000       0.25000000 </v>
   <v>       0.50000000       0.50000000       0.25000000 </v>
   <v>       0.00000000       0.00000000       0.75000000 </v>
   <v>       0.50000000       0.00000000       0.75000000 </v>
   <v>       0.00000000       0.50000000       0.75000000 </v>
   <v>       0.50000000       0.50000000       0.75000000 </v>
   <v>       0.12500000       0.12500000       0.37500000 </v>
   <v>       0.62500000       0.12500000       0.37500000 </v>
   <v>       0.12500000       0.62500000       0.37500000 </v>
   <v>       0.62500000       0.62500000       0.37500000 </v>
   <v>       0.12500000       0.12500000       0.87500000 </v>
   <v>       0.62500000       0.12500000       0.87500000 </v>
   <v>       0.12500000       0.62500000       0.87500000 </v>
   <v>       0.62500000       0.62500000       0.87500000 </v>
   <v>       0.00000000       0.25000000       0.00000000 </v>
   <v>       0.50000000       0.25000000       0.00000000 </v>
   <v>       0.00000000       0.75000000       0.00000000 </v>
   <v>       0.50000000       0.75000000       0.00000000 </v>
   <v>       0.00000000       0.25000000       0.50000000 </v>
   <v>       0.50000000       0.25000000       0.50000000 </v>
   <v>       0.00000000       0.75000000       0.50000000 </v>
   <v>       0.50000000       0.75000000       0.50000000 </v>
   <v>       0.37500000       0.37500000       0.37500000 </v>
   <v>       0.87500000       0.37500000       0.37500000 </v>
   <v>       0.37500000       0.87500000       0.37500000 </v>
   <v>       0.87500000       0.87500000       0.37500000 </v>
   <v>       0.37500000       0.37500000       0.87500000 </v>
   <v>       0.87500000       0.37500000       0.87500000 </v>
   <v>       0.37500000       0.87500000       0.87500000 </v>
   <v>       0.87500000       0.87500000       0.87500000 </v>
   <v>       0.25000000       0.00000000       0.00000000 </v>
   <v>       0.75000000       0.00000000       0.00000000 </v>
   <v>       0.25000000       0.50000000       0.00000000 </v>
   <v>       0.75000000       0.50000000       0.00000000 </v>
   <v>       0.25000000       0.00000000       0.50000000 </v>
   <v>       0.75000000       0.00000000       0.50000000 </v>
   <v>       0.25000000       0.50000000       0.50000000 </v>
   <v>       0.75000000       0.50000000       0.50000000 </v>
   <v>       0.37500000       0.12500000       0.12500000 </v>
   <v>       0.87500000       0.12500000       0.12500000 </v>
   <v>       0.37500000       0.62500000       0.12500000 </v>
   <v>       0.87500000       0.62500000       0.12500000 </v>
   <v>       0.37500000       0.12500000       0.62500000 </v>
   <v>       0.87500000       0.12500000       0.62500000 </v>
   <v>       0.37500000       0.62500000       0.62500000 </v>
   <v>       0.87500000       0.62500000       0.62500000 </v>
   <v>       0.25000000       0.25000000       0.25000000 </v>
   <v>       0.75000000       0.25000000       0.25000000 </v>
   <v>       0.25000000       0.75000000       0.25000000 </v>
   <v>       0.75000000       0.75000000       0.25000000 </v>
   <v>       0.25000000       0.25000000       0.75000000 </v>
   <v>       0.75000000       0.25000000       0.75000000 </v>
   <v>       0.25000000       0.75000000       0.75000000 </v>
   <v>       0.75000000       0.75000000       0.75000000 </v>
  </varray>
 </structure>
</modeling>
