   8   8   0   0
  0.5770006E+01  0.3589999E-09  0.3590000E-09  0.3590000E-09  0.2000000E-16
  1.000000000000000E-004
  CAR 
 unknown system                          
     23.15605821    -13.41888480  301      9.63856886      1.00000000
    -13.419  0.0000E+00  0.0000E+00
    -13.297  0.0000E+00  0.0000E+00
    -13.175  0.0000E+00  0.0000E+00
    -13.053  0.0000E+00  0.0000E+00
    -12.931  0.0000E+00  0.0000E+00
    -12.809  0.0000E+00  0.0000E+00
    -12.687  0.0000E+00  0.0000E+00
    -12.565  0.0000E+00  0.0000E+00
    -12.444  0.0000E+00  0.0000E+00
    -12.322  0.0000E+00  0.0000E+00
    -12.200  0.0000E+00  0.0000E+00
    -12.078  0.0000E+00  0.0000E+00
    -11.956  0.0000E+00  0.0000E+00
    -11.834  0.0000E+00  0.0000E+00
    -11.712  0.3820E-01  0.5645E-03
    -11.590  0.1585E+00  0.1539E-01
    -11.468  0.2441E+00  0.4006E-01
    -11.346  0.2780E+00  0.7157E-01
    -11.224  0.3271E+00  0.1084E+00
    -11.102  0.3654E+00  0.1511E+00
    -10.981  0.3959E+00  0.1975E+00
    -10.859  0.4290E+00  0.2477E+00
    -10.737  0.4672E+00  0.3023E+00
    -10.615  0.4899E+00  0.3607E+00
    -10.493  0.5144E+00  0.4219E+00
    -10.371  0.5412E+00  0.4862E+00
    -10.249  0.5699E+00  0.5539E+00
    -10.127  0.5961E+00  0.6252E+00
    -10.005  0.6168E+00  0.6991E+00
     -9.883  0.6409E+00  0.7757E+00
     -9.761  0.6701E+00  0.8556E+00
     -9.639  0.7038E+00  0.9393E+00
     -9.518  0.7418E+00  0.1027E+01
     -9.396  0.7366E+00  0.1117E+01
     -9.274  0.7441E+00  0.1208E+01
     -9.152  0.7605E+00  0.1299E+01
     -9.030  0.7788E+00  0.1393E+01
     -8.908  0.8045E+00  0.1489E+01
     -8.786  0.8271E+00  0.1589E+01
     -8.664  0.8423E+00  0.1691E+01
     -8.542  0.8662E+00  0.1795E+01
     -8.420  0.8940E+00  0.1902E+01
     -8.298  0.9197E+00  0.2013E+01
     -8.176  0.9433E+00  0.2126E+01
     -8.055  0.9503E+00  0.2242E+01
     -7.933  0.9722E+00  0.2359E+01
     -7.811  0.1066E+01  0.2482E+01
     -7.689  0.1153E+01  0.2620E+01
     -7.567  0.1130E+01  0.2759E+01
     -7.445  0.1041E+01  0.2893E+01
     -7.323  0.1061E+01  0.3020E+01
     -7.201  0.1040E+01  0.3148E+01
     -7.079  0.1057E+01  0.3274E+01
     -6.957  0.1186E+01  0.3411E+01
     -6.835  0.1158E+01  0.3556E+01
     -6.713  0.1208E+01  0.3698E+01
     -6.592  0.1331E+01  0.3853E+01
     -6.470  0.1349E+01  0.4018E+01
     -6.348  0.1268E+01  0.4177E+01
     -6.226  0.1337E+01  0.4334E+01
     -6.104  0.1414E+01  0.4505E+01
     -5.982  0.1402E+01  0.4677E+01
     -5.860  0.1457E+01  0.4850E+01
     -5.738  0.1470E+01  0.5030E+01
     -5.616  0.1513E+01  0.5210E+01
     -5.494  0.1406E+01  0.5387E+01
     -5.372  0.1461E+01  0.5566E+01
     -5.250  0.1412E+01  0.5740E+01
     -5.129  0.1295E+01  0.5906E+01
     -5.007  0.1240E+01  0.6059E+01
     -4.885  0.1209E+01  0.6208E+01
     -4.763  0.1179E+01  0.6353E+01
     -4.641  0.1167E+01  0.6497E+01
     -4.519  0.1128E+01  0.6637E+01
     -4.397  0.1188E+01  0.6782E+01
     -4.275  0.1096E+01  0.6921E+01
     -4.153  0.1017E+01  0.7050E+01
     -4.031  0.9686E+00  0.7171E+01
     -3.909  0.9301E+00  0.7286E+01
     -3.787  0.9143E+00  0.7398E+01
     -3.666  0.9342E+00  0.7511E+01
     -3.544  0.9802E+00  0.7625E+01
     -3.422  0.9703E+00  0.7749E+01
     -3.300  0.1064E+01  0.7871E+01
     -3.178  0.9309E+00  0.7994E+01
     -3.056  0.8592E+00  0.8103E+01
     -2.934  0.8410E+00  0.8206E+01
     -2.812  0.9117E+00  0.8321E+01
     -2.690  0.8643E+00  0.8428E+01
     -2.568  0.9860E+00  0.8540E+01
     -2.446  0.1184E+01  0.8671E+01
     -2.324  0.1391E+01  0.8827E+01
     -2.203  0.1760E+01  0.9017E+01
     -2.081  0.2141E+01  0.9259E+01
     -1.959  0.2726E+01  0.9551E+01
     -1.837  0.2288E+01  0.9863E+01
     -1.715  0.2113E+01  0.1013E+02
     -1.593  0.2038E+01  0.1038E+02
     -1.471  0.2005E+01  0.1063E+02
     -1.349  0.1818E+01  0.1087E+02
     -1.227  0.1914E+01  0.1109E+02
     -1.105  0.1620E+01  0.1130E+02
     -0.983  0.1500E+01  0.1149E+02
     -0.861  0.1426E+01  0.1167E+02
     -0.740  0.1369E+01  0.1184E+02
     -0.618  0.1347E+01  0.1200E+02
     -0.496  0.1309E+01  0.1216E+02
     -0.374  0.1225E+01  0.1232E+02
     -0.252  0.1238E+01  0.1247E+02
     -0.130  0.1111E+01  0.1261E+02
     -0.008  0.1109E+01  0.1275E+02
      0.114  0.1099E+01  0.1288E+02
      0.236  0.1041E+01  0.1301E+02
      0.358  0.9812E+00  0.1313E+02
      0.480  0.1234E+01  0.1326E+02
      0.602  0.1720E+01  0.1344E+02
      0.723  0.2027E+01  0.1368E+02
      0.845  0.2128E+01  0.1393E+02
      0.967  0.2194E+01  0.1419E+02
      1.089  0.2191E+01  0.1446E+02
      1.211  0.2230E+01  0.1473E+02
      1.333  0.2252E+01  0.1500E+02
      1.455  0.2166E+01  0.1528E+02
      1.577  0.1534E+01  0.1550E+02
      1.699  0.1424E+01  0.1567E+02
      1.821  0.1634E+01  0.1585E+02
      1.943  0.2004E+01  0.1607E+02
      2.065  0.2535E+01  0.1634E+02
      2.186  0.2623E+01  0.1666E+02
      2.308  0.2335E+01  0.1696E+02
      2.430  0.2272E+01  0.1724E+02
      2.552  0.2194E+01  0.1751E+02
      2.674  0.2509E+01  0.1779E+02
      2.796  0.2597E+01  0.1811E+02
      2.918  0.2673E+01  0.1843E+02
      3.040  0.3027E+01  0.1877E+02
      3.162  0.2835E+01  0.1913E+02
      3.284  0.2694E+01  0.1946E+02
      3.406  0.2762E+01  0.1980E+02
      3.528  0.2749E+01  0.2013E+02
      3.649  0.2991E+01  0.2049E+02
      3.771  0.3544E+01  0.2088E+02
      3.893  0.3389E+01  0.2130E+02
      4.015  0.3111E+01  0.2170E+02
      4.137  0.3067E+01  0.2207E+02
      4.259  0.3185E+01  0.2246E+02
      4.381  0.2976E+01  0.2283E+02
      4.503  0.2935E+01  0.2319E+02
      4.625  0.2742E+01  0.2354E+02
      4.747  0.2682E+01  0.2387E+02
      4.869  0.3010E+01  0.2421E+02
      4.991  0.3078E+01  0.2459E+02
      5.112  0.3108E+01  0.2496E+02
      5.234  0.2797E+01  0.2533E+02
      5.356  0.2862E+01  0.2568E+02
      5.478  0.2539E+01  0.2601E+02
      5.600  0.2488E+01  0.2632E+02
      5.722  0.2570E+01  0.2663E+02
      5.844  0.2561E+01  0.2694E+02
      5.966  0.2949E+01  0.2728E+02
      6.088  0.2886E+01  0.2764E+02
      6.210  0.2696E+01  0.2798E+02
      6.332  0.2727E+01  0.2830E+02
      6.454  0.2516E+01  0.2863E+02
      6.575  0.2564E+01  0.2894E+02
      6.697  0.2426E+01  0.2926E+02
      6.819  0.1591E+01  0.2949E+02
      6.941  0.1875E+01  0.2970E+02
      7.063  0.1963E+01  0.2994E+02
      7.185  0.1819E+01  0.3018E+02
      7.307  0.1544E+01  0.3038E+02
      7.429  0.1422E+01  0.3056E+02
      7.551  0.1319E+01  0.3073E+02
      7.673  0.1180E+01  0.3088E+02
      7.795  0.1060E+01  0.3102E+02
      7.916  0.9856E+00  0.3114E+02
      8.038  0.9131E+00  0.3126E+02
      8.160  0.8811E+00  0.3137E+02
      8.282  0.7955E+00  0.3147E+02
      8.404  0.7022E+00  0.3156E+02
      8.526  0.6248E+00  0.3164E+02
      8.648  0.6022E+00  0.3172E+02
      8.770  0.5291E+00  0.3179E+02
      8.892  0.4120E+00  0.3184E+02
      9.014  0.3841E+00  0.3189E+02
      9.136  0.3269E+00  0.3194E+02
      9.258  0.2025E+00  0.3197E+02
      9.379  0.1519E+00  0.3199E+02
      9.501  0.1925E-01  0.3200E+02
      9.623  0.0000E+00  0.3200E+02
      9.745  0.0000E+00  0.3200E+02
      9.867  0.0000E+00  0.3200E+02
      9.989  0.0000E+00  0.3200E+02
     10.111  0.0000E+00  0.3200E+02
     10.233  0.0000E+00  0.3200E+02
     10.355  0.0000E+00  0.3200E+02
     10.477  0.0000E+00  0.3200E+02
     10.599  0.0000E+00  0.3200E+02
     10.721  0.0000E+00  0.3200E+02
     10.842  0.0000E+00  0.3200E+02
     10.964  0.0000E+00  0.3200E+02
     11.086  0.0000E+00  0.3200E+02
     11.208  0.0000E+00  0.3200E+02
     11.330  0.0000E+00  0.3200E+02
     11.452  0.0000E+00  0.3200E+02
     11.574  0.0000E+00  0.3200E+02
     11.696  0.0000E+00  0.3200E+02
     11.818  0.0000E+00  0.3200E+02
     11.940  0.0000E+00  0.3200E+02
     12.062  0.0000E+00  0.3200E+02
     12.184  0.0000E+00  0.3200E+02
     12.305  0.0000E+00  0.3200E+02
     12.427  0.0000E+00  0.3200E+02
     12.549  0.0000E+00  0.3200E+02
     12.671  0.0000E+00  0.3200E+02
     12.793  0.0000E+00  0.3200E+02
     12.915  0.0000E+00  0.3200E+02
     13.037  0.0000E+00  0.3200E+02
     13.159  0.0000E+00  0.3200E+02
     13.281  0.0000E+00  0.3200E+02
     13.403  0.0000E+00  0.3200E+02
     13.525  0.1357E+00  0.3200E+02
     13.647  0.5061E+00  0.3203E+02
     13.768  0.6076E+00  0.3210E+02
     13.890  0.6454E+00  0.3217E+02
     14.012  0.7637E+00  0.3226E+02
     14.134  0.8488E+00  0.3236E+02
     14.256  0.9715E+00  0.3247E+02
     14.378  0.1243E+01  0.3260E+02
     14.500  0.1305E+01  0.3275E+02
     14.622  0.1318E+01  0.3291E+02
     14.744  0.1374E+01  0.3308E+02
     14.866  0.1367E+01  0.3325E+02
     14.988  0.1341E+01  0.3341E+02
     15.110  0.1488E+01  0.3358E+02
     15.231  0.1627E+01  0.3377E+02
     15.353  0.1782E+01  0.3398E+02
     15.475  0.1810E+01  0.3420E+02
     15.597  0.1893E+01  0.3442E+02
     15.719  0.2019E+01  0.3466E+02
     15.841  0.2007E+01  0.3490E+02
     15.963  0.2108E+01  0.3515E+02
     16.085  0.2374E+01  0.3543E+02
     16.207  0.2582E+01  0.3573E+02
     16.329  0.2719E+01  0.3606E+02
     16.451  0.2748E+01  0.3638E+02
     16.573  0.2976E+01  0.3673E+02
     16.694  0.3716E+01  0.3714E+02
     16.816  0.3848E+01  0.3760E+02
     16.938  0.3505E+01  0.3805E+02
     17.060  0.2924E+01  0.3845E+02
     17.182  0.2426E+01  0.3877E+02
     17.304  0.2560E+01  0.3908E+02
     17.426  0.2629E+01  0.3940E+02
     17.548  0.2737E+01  0.3972E+02
     17.670  0.2792E+01  0.4007E+02
     17.792  0.2662E+01  0.4041E+02
     17.914  0.2946E+01  0.4074E+02
     18.036  0.3340E+01  0.4112E+02
     18.157  0.4413E+01  0.4159E+02
     18.279  0.4269E+01  0.4215E+02
     18.401  0.4731E+01  0.4268E+02
     18.523  0.3886E+01  0.4320E+02
     18.645  0.3510E+01  0.4364E+02
     18.767  0.3468E+01  0.4406E+02
     18.889  0.3401E+01  0.4449E+02
     19.011  0.3154E+01  0.4489E+02
     19.133  0.2887E+01  0.4525E+02
     19.255  0.2619E+01  0.4559E+02
     19.377  0.2570E+01  0.4591E+02
     19.499  0.2631E+01  0.4621E+02
     19.620  0.2967E+01  0.4656E+02
     19.742  0.2578E+01  0.4690E+02
     19.864  0.2134E+01  0.4719E+02
     19.986  0.1677E+01  0.4742E+02
     20.108  0.1473E+01  0.4761E+02
     20.230  0.9023E+00  0.4776E+02
     20.352  0.4705E+00  0.4784E+02
     20.474  0.3075E+00  0.4788E+02
     20.596  0.2473E+00  0.4792E+02
     20.718  0.1846E+00  0.4794E+02
     20.840  0.1304E+00  0.4796E+02
     20.962  0.9506E-01  0.4798E+02
     21.083  0.6800E-01  0.4799E+02
     21.205  0.4892E-01  0.4799E+02
     21.327  0.2444E-01  0.4800E+02
     21.449  0.1738E-02  0.4800E+02
     21.571  0.0000E+00  0.4800E+02
     21.693  0.0000E+00  0.4800E+02
     21.815  0.0000E+00  0.4800E+02
     21.937  0.0000E+00  0.4800E+02
     22.059  0.0000E+00  0.4800E+02
     22.181  0.0000E+00  0.4800E+02
     22.303  0.0000E+00  0.4800E+02
     22.425  0.0000E+00  0.4800E+02
     22.546  0.0000E+00  0.4800E+02
     22.668  0.0000E+00  0.4800E+02
     22.790  0.0000E+00  0.4800E+02
     22.912  0.0000E+00  0.4800E+02
     23.034  0.0000E+00  0.4800E+02
     23.156  0.0000E+00  0.4800E+02
