       N       E                     dE             d eps       ncg     rms          rms(c)
DAV:   1     0.560868822932E+02    0.56087E+02   -0.14365E+04  9072   0.105E+03
DAV:   2    -0.706586101753E+02   -0.12675E+03   -0.12022E+03 12400   0.220E+02
DAV:   3    -0.748058064626E+02   -0.41472E+01   -0.41269E+01 11912   0.372E+01
DAV:   4    -0.748467266941E+02   -0.40920E-01   -0.40890E-01 11408   0.409E+00
DAV:   5    -0.748475703002E+02   -0.84361E-03   -0.84313E-03 11880   0.523E-01    0.938E+00
DAV:   6    -0.730006265168E+02    0.18469E+01   -0.12390E+00 10440   0.637E+00    0.515E+00
DAV:   7    -0.723794141927E+02    0.62121E+00   -0.14188E+00 10776   0.701E+00    0.702E-01
DAV:   8    -0.723871306189E+02   -0.77164E-02   -0.34004E-02 11360   0.109E+00    0.761E-02
DAV:   9    -0.723873644144E+02   -0.23380E-03   -0.44876E-04 11296   0.144E-01    0.319E-02
DAV:  10    -0.723874249048E+02   -0.60490E-04   -0.45562E-05 11280   0.504E-02    0.314E-03
DAV:  11    -0.723874263530E+02   -0.14483E-05   -0.12942E-06  8576   0.850E-03    0.916E-04
DAV:  12    -0.723874263320E+02    0.21011E-07   -0.12858E-07  8192   0.255E-03
   1 F= -.72387426E+02 E0= -.72387426E+02  d E =0.000000E+00
