 vasp.5.4.4.18Apr17-6-g9f103f2a35 (build Mar 12 2022 03:36:41) complex          
  
 executed on IFC19.0.3.199_CrayMP date 2022.12.01  11:11:46
 running on   16 total cores
 distrk:  each k-point on   16 cores,    1 groups
 distr:  one band on NCORES_PER_BAND=   4 cores,    4 groups


--------------------------------------------------------------------------------------------------------


 INCAR:
 POTCAR:   PAW_PBE C 08Apr2002                    
 POTCAR:   PAW_PBE C 08Apr2002                    
   VRHFIN =C: s2p2                                                              
   LEXCH  = PE                                                                  
   EATOM  =   147.1560 eV,   10.8157 Ry                                         
                                                                                
   TITEL  = PAW_PBE C 08Apr2002                                                 
   LULTRA =        F    use ultrasoft PP ?                                      
   IUNSCR =        0    unscreen: 0-lin 1-nonlin 2-no                           
   RPACOR =     .000    partial core radius                                     
   POMASS =   12.011; ZVAL   =    4.000    mass and valenz                      
   RCORE  =    1.500    outmost cutoff radius                                   
   RWIGS  =    1.630; RWIGS  =     .863    wigner-seitz radius (au A)           
   ENMAX  =  400.000; ENMIN  =  300.000 eV                                      
   ICORE  =        2    local potential                                         
   LCOR   =        T    correct aug charges                                     
   LPAW   =        T    paw PP                                                  
   EAUG   =  644.873                                                            
   DEXC   =     .000                                                            
   RMAX   =    2.266    core radius for proj-oper                               
   RAUG   =    1.300    factor for augmentation sphere                          
   RDEP   =    1.501    radius for radial grids                                 
   RDEPT  =    1.300    core radius for aug-charge                              
   QCUT   =   -5.516; QGAM   =   11.032    optimization parameters              
                                                                                
   Description                                                                  
     l     E      TYP  RCUT    TYP  RCUT                                        
     0   .000     23  1.200                                                     
     0   .000     23  1.200                                                     
     1   .000     23  1.500                                                     
     1  2.500     23  1.500                                                     
     2   .000      7  1.500                                                     
  local pseudopotential read in
  atomic valenz-charges read in
  non local Contribution for L=           0  read in
    real space projection operators read in
  non local Contribution for L=           0  read in
    real space projection operators read in
  non local Contribution for L=           1  read in
    real space projection operators read in
  non local Contribution for L=           1  read in
    real space projection operators read in
    PAW grid and wavefunctions read in
 
   number of l-projection  operators is LMAX  =           4
   number of lm-projection operators is LMMAX =           8
 
 PAW_PBE C 08Apr2002                    :
 energy of atom  1       EATOM= -147.1560
 kinetic energy error for atom=    0.0288 (will be added to EATOM!!)
 
 
 POSCAR: C8                                      
  positions in direct lattice
  No initial velocities read in
 exchange correlation table for  LEXCH =        8
   RHO(1)=    0.500       N(1)  =     2000
   RHO(2)=  100.500       N(2)  =     4000
 


--------------------------------------------------------------------------------------------------------


 ion  position               nearest neighbor table
   1  0.250  0.750  0.250-   2 1.53   6 1.53   8 1.53   4 1.62
   2  0.000  0.000  0.500-   1 1.53   5 1.53   7 1.53   3 1.62
   3  0.250  0.250  0.750-   4 1.53   6 1.53   8 1.53   2 1.62
   4  0.000  0.500  0.000-   3 1.53   5 1.53   7 1.53   1 1.62
   5  0.750  0.750  0.750-   6 1.53   4 1.53   2 1.53   8 1.62
   6  0.500  0.000  0.000-   5 1.53   3 1.53   1 1.53   7 1.62
   7  0.750  0.250  0.250-   8 1.53   4 1.53   2 1.53   6 1.62
   8  0.500  0.500  0.500-   7 1.53   3 1.53   1 1.53   5 1.62
 
  LATTYP: Found a trigonal (rhomboedric) cell.
 ALAT       =     3.5899994558
 COS(alpha) =     0.0399998870
  
  Lattice vectors:
  
 A1 = (   3.5899993590,   0.0000000000,   0.0000000000)
 A2 = (   0.1435995725,   3.5871263228,   0.0000000000)
 A3 = (   0.1435995725,   0.1379660107,   3.5844722803)


Analysis of symmetry for initial positions (statically):
=====================================================================
 Subroutine PRICEL returns following result:
 
  LATTYP: Found a trigonal (rhomboedric) cell.
 ALAT       =     2.5887853218
 COS(alpha) =     0.5384614305
  
  Lattice vectors:
  
 A1 = (  -0.1435995725,  -1.8625461667,  -1.7922361401)
 A2 = (  -1.8667994658,  -1.7935631614,   0.0000000000)
 A3 = (  -1.8667994658,  -0.0689830053,  -1.7922361401)
 
   4 primitive cells build up your supercell.
 

 Routine SETGRP: Setting up the symmetry group for a 
 trigonal (rhombohedral) supercell.


 Subroutine GETGRP returns: Found 12 space group operations
 (whereof  6 operations were pure point group operations)
 out of a pool of 12 trial point group operations.


The static configuration has the point symmetry C_3v.
 The point group associated with its full space group is D_3d.


Analysis of symmetry for dynamics (positions and initial velocities):
=====================================================================
 Subroutine PRICEL returns following result:
 
  LATTYP: Found a trigonal (rhomboedric) cell.
 ALAT       =     2.5887853218
 COS(alpha) =     0.5384614305
  
  Lattice vectors:
  
 A1 = (  -0.1435995725,  -1.8625461667,  -1.7922361401)
 A2 = (  -1.8667994658,  -1.7935631614,   0.0000000000)
 A3 = (  -1.8667994658,  -0.0689830053,  -1.7922361401)
 
   4 primitive cells build up your supercell.
 

 Routine SETGRP: Setting up the symmetry group for a 
 trigonal (rhombohedral) supercell.


 Subroutine GETGRP returns: Found 12 space group operations
 (whereof  6 operations were pure point group operations)
 out of a pool of 12 trial point group operations.


The dynamic configuration has the point symmetry C_3v.
 The point group associated with its full space group is D_3d.


 Subroutine INISYM returns: Found 12 space group operations
 (whereof  6 operations are pure point group operations),
 and found     4 'primitive' translations

 
 
 KPOINTS: kpt_density=1000                        

Automatic generation of k-mesh.
Space group operators:
 irot       det(A)        alpha          n_x          n_y          n_z        tau_x        tau_y        tau_z
    1     1.000000     0.000000     1.000000     0.000000     0.000000     0.000000     0.000000     0.000000
    2    -1.000000   180.000000     0.000000    -0.693375     0.720577     0.000000     0.000000     0.000000
    3     1.000000   120.000000    -0.600000    -0.576461    -0.554700     0.000000     0.000000     0.000000
    4    -1.000000   180.000000    -0.692820     0.721110     0.000000     0.000000     0.000000     0.000000
    5     1.000000   120.000000     0.600000     0.576461     0.554700     0.000000     0.000000     0.000000
    6    -1.000000   180.000000    -0.692820     0.027735     0.720577     0.000000     0.000000     0.000000
    7    -1.000000     0.000000     1.000000     0.000000     0.000000    -0.750000    -0.750000    -0.750000
    8     1.000000   180.000000     0.000000    -0.693375     0.720577    -0.750000    -0.750000    -0.750000
    9    -1.000000   120.000000    -0.600000    -0.576461    -0.554700    -0.750000    -0.750000    -0.750000
   10     1.000000   180.000000    -0.692820     0.721110     0.000000    -0.750000    -0.750000    -0.750000
   11    -1.000000   120.000000     0.600000     0.576461     0.554700    -0.750000    -0.750000    -0.750000
   12     1.000000   180.000000    -0.692820     0.027735     0.720577    -0.750000    -0.750000    -0.750000
 
 Subroutine IBZKPT returns following result:
 ===========================================
 
 Found    189 irreducible k-points:
 
 Following reciprocal coordinates:
            Coordinates               Weight
  0.000000  0.000000  0.000000      1.000000
  0.083333 -0.000000 -0.000000      6.000000
  0.166667 -0.000000  0.000000      6.000000
  0.250000  0.000000 -0.000000      6.000000
  0.333333 -0.000000 -0.000000      6.000000
  0.416667 -0.000000 -0.000000      6.000000
  0.500000  0.000000 -0.000000      3.000000
  0.083333  0.083333 -0.000000      6.000000
  0.166667  0.083333 -0.000000     12.000000
  0.250000  0.083333 -0.000000     12.000000
  0.333333  0.083333 -0.000000     12.000000
  0.416667  0.083333 -0.000000     12.000000
  0.500000  0.083333  0.000000     12.000000
 -0.416667  0.083333 -0.000000     12.000000
 -0.333333  0.083333 -0.000000     12.000000
 -0.250000  0.083333  0.000000     12.000000
 -0.166667  0.083333 -0.000000     12.000000
 -0.083333  0.083333  0.000000      6.000000
  0.166667  0.166667  0.000000      6.000000
  0.250000  0.166667 -0.000000     12.000000
  0.333333  0.166667  0.000000     12.000000
  0.416667  0.166667  0.000000     12.000000
  0.500000  0.166667 -0.000000     12.000000
 -0.416667  0.166667 -0.000000     12.000000
 -0.333333  0.166667  0.000000     12.000000
 -0.250000  0.166667 -0.000000     12.000000
 -0.166667  0.166667 -0.000000      6.000000
  0.250000  0.250000  0.000000      6.000000
  0.333333  0.250000  0.000000     12.000000
  0.416667  0.250000 -0.000000     12.000000
  0.500000  0.250000  0.000000     12.000000
 -0.416667  0.250000  0.000000     12.000000
 -0.333333  0.250000  0.000000     12.000000
 -0.250000  0.250000  0.000000      6.000000
  0.333333  0.333333  0.000000      6.000000
  0.416667  0.333333  0.000000     12.000000
  0.500000  0.333333  0.000000     12.000000
 -0.416667  0.333333  0.000000     12.000000
 -0.333333  0.333333  0.000000      6.000000
  0.416667  0.416667  0.000000      6.000000
  0.500000  0.416667 -0.000000     12.000000
 -0.416667  0.416667  0.000000      6.000000
  0.500000  0.500000  0.000000      3.000000
  0.083333  0.083333  0.083333      2.000000
  0.166667  0.083333  0.083333      6.000000
  0.250000  0.083333  0.083333      6.000000
  0.333333  0.083333  0.083333      6.000000
  0.416667  0.083333  0.083333      6.000000
  0.500000  0.083333  0.083333      6.000000
 -0.416667  0.083333  0.083333      6.000000
 -0.333333  0.083333  0.083333      6.000000
 -0.250000  0.083333  0.083333      6.000000
 -0.166667  0.083333  0.083333      6.000000
 -0.083333  0.083333  0.083333      6.000000
  0.166667  0.166667  0.083333      6.000000
  0.250000  0.166667  0.083333     12.000000
  0.333333  0.166667  0.083333     12.000000
  0.416667  0.166667  0.083333     12.000000
  0.500000  0.166667  0.083333     12.000000
 -0.416667  0.166667  0.083333     12.000000
 -0.333333  0.166667  0.083333     12.000000
 -0.250000  0.166667  0.083333     12.000000
 -0.166667  0.166667  0.083333     12.000000
 -0.083333  0.166667  0.083333     12.000000
  0.250000  0.250000  0.083333      6.000000
  0.333333  0.250000  0.083333     12.000000
  0.416667  0.250000  0.083333     12.000000
  0.500000  0.250000  0.083333     12.000000
 -0.416667  0.250000  0.083333     12.000000
 -0.333333  0.250000  0.083333     12.000000
 -0.250000  0.250000  0.083333     12.000000
 -0.166667  0.250000  0.083333     12.000000
 -0.083333  0.250000  0.083333     12.000000
  0.333333  0.333333  0.083333      6.000000
  0.416667  0.333333  0.083333     12.000000
  0.500000  0.333333  0.083333     12.000000
 -0.416667  0.333333  0.083333     12.000000
 -0.333333  0.333333  0.083333     12.000000
 -0.250000  0.333333  0.083333     12.000000
 -0.166667  0.333333  0.083333     12.000000
 -0.083333  0.333333  0.083333     12.000000
  0.416667  0.416667  0.083333      6.000000
  0.500000  0.416667  0.083333     12.000000
 -0.416667  0.416667  0.083333     12.000000
 -0.333333  0.416667  0.083333     12.000000
 -0.250000  0.416667  0.083333     12.000000
 -0.166667  0.416667  0.083333     12.000000
 -0.083333  0.416667  0.083333     12.000000
  0.500000  0.500000  0.083333      6.000000
 -0.416667  0.500000  0.083333     12.000000
 -0.333333  0.500000  0.083333     12.000000
 -0.250000  0.500000  0.083333     12.000000
 -0.166667  0.500000  0.083333     12.000000
 -0.083333  0.500000  0.083333      6.000000
 -0.416667 -0.416667  0.083333      6.000000
 -0.333333 -0.416667  0.083333     12.000000
 -0.250000 -0.416667  0.083333     12.000000
 -0.166667 -0.416667  0.083333     12.000000
 -0.333333 -0.333333  0.083333      6.000000
 -0.250000 -0.333333  0.083333     12.000000
 -0.166667 -0.333333  0.083333     12.000000
 -0.250000 -0.250000  0.083333      6.000000
 -0.166667 -0.250000  0.083333     12.000000
 -0.166667 -0.166667  0.083333      6.000000
  0.166667  0.166667  0.166667      2.000000
  0.250000  0.166667  0.166667      6.000000
  0.333333  0.166667  0.166667      6.000000
  0.416667  0.166667  0.166667      6.000000
  0.500000  0.166667  0.166667      6.000000
 -0.416667  0.166667  0.166667      6.000000
 -0.333333  0.166667  0.166667      6.000000
 -0.250000  0.166667  0.166667      6.000000
 -0.166667  0.166667  0.166667      6.000000
  0.250000  0.250000  0.166667      6.000000
  0.333333  0.250000  0.166667     12.000000
  0.416667  0.250000  0.166667     12.000000
  0.500000  0.250000  0.166667     12.000000
 -0.416667  0.250000  0.166667     12.000000
 -0.333333  0.250000  0.166667     12.000000
 -0.250000  0.250000  0.166667     12.000000
 -0.166667  0.250000  0.166667     12.000000
  0.333333  0.333333  0.166667      6.000000
  0.416667  0.333333  0.166667     12.000000
  0.500000  0.333333  0.166667     12.000000
 -0.416667  0.333333  0.166667     12.000000
 -0.333333  0.333333  0.166667     12.000000
 -0.250000  0.333333  0.166667     12.000000
 -0.166667  0.333333  0.166667     12.000000
  0.416667  0.416667  0.166667      6.000000
  0.500000  0.416667  0.166667     12.000000
 -0.416667  0.416667  0.166667     12.000000
 -0.333333  0.416667  0.166667     12.000000
 -0.250000  0.416667  0.166667     12.000000
 -0.166667  0.416667  0.166667     12.000000
  0.500000  0.500000  0.166667      6.000000
 -0.416667  0.500000  0.166667     12.000000
 -0.333333  0.500000  0.166667     12.000000
 -0.250000  0.500000  0.166667     12.000000
 -0.166667  0.500000  0.166667      6.000000
 -0.416667 -0.416667  0.166667      6.000000
 -0.333333 -0.416667  0.166667     12.000000
 -0.250000 -0.416667  0.166667     12.000000
 -0.333333 -0.333333  0.166667      6.000000
 -0.250000 -0.333333  0.166667     12.000000
 -0.250000 -0.250000  0.166667      6.000000
  0.250000  0.250000  0.250000      2.000000
  0.333333  0.250000  0.250000      6.000000
  0.416667  0.250000  0.250000      6.000000
  0.500000  0.250000  0.250000      6.000000
 -0.416667  0.250000  0.250000      6.000000
 -0.333333  0.250000  0.250000      6.000000
 -0.250000  0.250000  0.250000      6.000000
  0.333333  0.333333  0.250000      6.000000
  0.416667  0.333333  0.250000     12.000000
  0.500000  0.333333  0.250000     12.000000
 -0.416667  0.333333  0.250000     12.000000
 -0.333333  0.333333  0.250000     12.000000
 -0.250000  0.333333  0.250000     12.000000
  0.416667  0.416667  0.250000      6.000000
  0.500000  0.416667  0.250000     12.000000
 -0.416667  0.416667  0.250000     12.000000
 -0.333333  0.416667  0.250000     12.000000
 -0.250000  0.416667  0.250000     12.000000
  0.500000  0.500000  0.250000      6.000000
 -0.416667  0.500000  0.250000     12.000000
 -0.333333  0.500000  0.250000     12.000000
 -0.250000  0.500000  0.250000      6.000000
 -0.416667 -0.416667  0.250000      6.000000
 -0.333333 -0.416667  0.250000     12.000000
 -0.333333 -0.333333  0.250000      6.000000
  0.333333  0.333333  0.333333      2.000000
  0.416667  0.333333  0.333333      6.000000
  0.500000  0.333333  0.333333      6.000000
 -0.416667  0.333333  0.333333      6.000000
 -0.333333  0.333333  0.333333      6.000000
  0.416667  0.416667  0.333333      6.000000
  0.500000  0.416667  0.333333     12.000000
 -0.416667  0.416667  0.333333     12.000000
 -0.333333  0.416667  0.333333     12.000000
  0.500000  0.500000  0.333333      6.000000
 -0.416667  0.500000  0.333333     12.000000
 -0.333333  0.500000  0.333333      6.000000
 -0.416667 -0.416667  0.333333      6.000000
  0.416667  0.416667  0.416667      2.000000
  0.500000  0.416667  0.416667      6.000000
 -0.416667  0.416667  0.416667      6.000000
  0.500000  0.500000  0.416667      6.000000
 -0.416667  0.500000  0.416667      6.000000
  0.500000  0.500000  0.500000      1.000000
 
 Following cartesian coordinates:
            Coordinates               Weight
  0.000000  0.000000  0.000000      1.000000
  0.023318 -0.000933 -0.000898      6.000000
  0.046637 -0.001867 -0.001796      6.000000
  0.069955 -0.002800 -0.002695      6.000000
  0.093274 -0.003734 -0.003593      6.000000
  0.116592 -0.004667 -0.004491      6.000000
  0.139911 -0.005601 -0.005389      3.000000
  0.023318  0.022404 -0.001796      6.000000
  0.046637  0.021470 -0.002695     12.000000
  0.069955  0.020537 -0.003593     12.000000
  0.093274  0.019603 -0.004491     12.000000
  0.116592  0.018670 -0.005389     12.000000
  0.139911  0.017736 -0.006288     12.000000
 -0.116592  0.028005  0.003593     12.000000
 -0.093274  0.027071  0.002695     12.000000
 -0.069955  0.026138  0.001796     12.000000
 -0.046637  0.025204  0.000898     12.000000
 -0.023318  0.024271  0.000000      6.000000
  0.046637  0.044807 -0.003593      6.000000
  0.069955  0.043874 -0.004491     12.000000
  0.093274  0.042940 -0.005389     12.000000
  0.116592  0.042007 -0.006288     12.000000
  0.139911  0.041073 -0.007186     12.000000
 -0.116592  0.051342  0.002695     12.000000
 -0.093274  0.050408  0.001796     12.000000
 -0.069955  0.049475  0.000898     12.000000
 -0.046637  0.048541  0.000000      6.000000
  0.069955  0.067211 -0.005389      6.000000
  0.093274  0.066277 -0.006288     12.000000
  0.116592  0.065344 -0.007186     12.000000
  0.139911  0.064410 -0.008084     12.000000
 -0.116592  0.074679  0.001796     12.000000
 -0.093274  0.073745  0.000898     12.000000
 -0.069955  0.072812  0.000000      6.000000
  0.093274  0.089615 -0.007186      6.000000
  0.116592  0.088681 -0.008084     12.000000
  0.139911  0.087748 -0.008982     12.000000
 -0.116592  0.098016  0.000898     12.000000
 -0.093274  0.097082  0.000000      6.000000
  0.116592  0.112018 -0.008982      6.000000
  0.139911  0.111085 -0.009881     12.000000
 -0.116592  0.121353  0.000000      6.000000
  0.139911  0.134422 -0.010779      3.000000
  0.023318  0.022404  0.021558      2.000000
  0.046637  0.021470  0.020660      6.000000
  0.069955  0.020537  0.019761      6.000000
  0.093274  0.019603  0.018863      6.000000
  0.116592  0.018670  0.017965      6.000000
  0.139911  0.017736  0.017067      6.000000
 -0.116592  0.028005  0.026947      6.000000
 -0.093274  0.027071  0.026049      6.000000
 -0.069955  0.026138  0.025151      6.000000
 -0.046637  0.025204  0.024253      6.000000
 -0.023318  0.024271  0.023354      6.000000
  0.046637  0.044807  0.019761      6.000000
  0.069955  0.043874  0.018863     12.000000
  0.093274  0.042940  0.017965     12.000000
  0.116592  0.042007  0.017067     12.000000
  0.139911  0.041073  0.016168     12.000000
 -0.116592  0.051342  0.026049     12.000000
 -0.093274  0.050408  0.025151     12.000000
 -0.069955  0.049475  0.024253     12.000000
 -0.046637  0.048541  0.023354     12.000000
 -0.023318  0.047608  0.022456     12.000000
  0.069955  0.067211  0.017965      6.000000
  0.093274  0.066277  0.017067     12.000000
  0.116592  0.065344  0.016168     12.000000
  0.139911  0.064410  0.015270     12.000000
 -0.116592  0.074679  0.025151     12.000000
 -0.093274  0.073745  0.024253     12.000000
 -0.069955  0.072812  0.023354     12.000000
 -0.046637  0.071878  0.022456     12.000000
 -0.023318  0.070945  0.021558     12.000000
  0.093274  0.089615  0.016168      6.000000
  0.116592  0.088681  0.015270     12.000000
  0.139911  0.087748  0.014372     12.000000
 -0.116592  0.098016  0.024253     12.000000
 -0.093274  0.097082  0.023354     12.000000
 -0.069955  0.096149  0.022456     12.000000
 -0.046637  0.095215  0.021558     12.000000
 -0.023318  0.094282  0.020660     12.000000
  0.116592  0.112018  0.014372      6.000000
  0.139911  0.111085  0.013474     12.000000
 -0.116592  0.121353  0.023354     12.000000
 -0.093274  0.120419  0.022456     12.000000
 -0.069955  0.119486  0.021558     12.000000
 -0.046637  0.118553  0.020660     12.000000
 -0.023318  0.117619  0.019761     12.000000
  0.139911  0.134422  0.012575      6.000000
 -0.116592  0.144690  0.022456     12.000000
 -0.093274  0.143757  0.021558     12.000000
 -0.069955  0.142823  0.020660     12.000000
 -0.046637  0.141890  0.019761     12.000000
 -0.023318  0.140956  0.018863      6.000000
 -0.116592 -0.112018  0.032337      6.000000
 -0.093274 -0.112952  0.031439     12.000000
 -0.069955 -0.113885  0.030540     12.000000
 -0.046637 -0.114819  0.029642     12.000000
 -0.093274 -0.089615  0.030540      6.000000
 -0.069955 -0.090548  0.029642     12.000000
 -0.046637 -0.091481  0.028744     12.000000
 -0.069955 -0.067211  0.028744      6.000000
 -0.046637 -0.068144  0.027846     12.000000
 -0.046637 -0.044807  0.026947      6.000000
  0.046637  0.044807  0.043116      2.000000
  0.069955  0.043874  0.042218      6.000000
  0.093274  0.042940  0.041319      6.000000
  0.116592  0.042007  0.040421      6.000000
  0.139911  0.041073  0.039523      6.000000
 -0.116592  0.051342  0.049404      6.000000
 -0.093274  0.050408  0.048505      6.000000
 -0.069955  0.049475  0.047607      6.000000
 -0.046637  0.048541  0.046709      6.000000
  0.069955  0.067211  0.041319      6.000000
  0.093274  0.066277  0.040421     12.000000
  0.116592  0.065344  0.039523     12.000000
  0.139911  0.064410  0.038625     12.000000
 -0.116592  0.074679  0.048505     12.000000
 -0.093274  0.073745  0.047607     12.000000
 -0.069955  0.072812  0.046709     12.000000
 -0.046637  0.071878  0.045811     12.000000
  0.093274  0.089615  0.039523      6.000000
  0.116592  0.088681  0.038625     12.000000
  0.139911  0.087748  0.037726     12.000000
 -0.116592  0.098016  0.047607     12.000000
 -0.093274  0.097082  0.046709     12.000000
 -0.069955  0.096149  0.045811     12.000000
 -0.046637  0.095215  0.044912     12.000000
  0.116592  0.112018  0.037726      6.000000
  0.139911  0.111085  0.036828     12.000000
 -0.116592  0.121353  0.046709     12.000000
 -0.093274  0.120419  0.045811     12.000000
 -0.069955  0.119486  0.044912     12.000000
 -0.046637  0.118553  0.044014     12.000000
  0.139911  0.134422  0.035930      6.000000
 -0.116592  0.144690  0.045811     12.000000
 -0.093274  0.143757  0.044912     12.000000
 -0.069955  0.142823  0.044014     12.000000
 -0.046637  0.141890  0.043116      6.000000
 -0.116592 -0.112018  0.055691      6.000000
 -0.093274 -0.112952  0.054793     12.000000
 -0.069955 -0.113885  0.053895     12.000000
 -0.093274 -0.089615  0.053895      6.000000
 -0.069955 -0.090548  0.052996     12.000000
 -0.069955 -0.067211  0.052098      6.000000
  0.069955  0.067211  0.064674      2.000000
  0.093274  0.066277  0.063775      6.000000
  0.116592  0.065344  0.062877      6.000000
  0.139911  0.064410  0.061979      6.000000
 -0.116592  0.074679  0.071860      6.000000
 -0.093274  0.073745  0.070961      6.000000
 -0.069955  0.072812  0.070063      6.000000
  0.093274  0.089615  0.062877      6.000000
  0.116592  0.088681  0.061979     12.000000
  0.139911  0.087748  0.061081     12.000000
 -0.116592  0.098016  0.070961     12.000000
 -0.093274  0.097082  0.070063     12.000000
 -0.069955  0.096149  0.069165     12.000000
  0.116592  0.112018  0.061081      6.000000
  0.139911  0.111085  0.060183     12.000000
 -0.116592  0.121353  0.070063     12.000000
 -0.093274  0.120419  0.069165     12.000000
 -0.069955  0.119486  0.068267     12.000000
  0.139911  0.134422  0.059284      6.000000
 -0.116592  0.144690  0.069165     12.000000
 -0.093274  0.143757  0.068267     12.000000
 -0.069955  0.142823  0.067368      6.000000
 -0.116592 -0.112018  0.079046      6.000000
 -0.093274 -0.112952  0.078147     12.000000
 -0.093274 -0.089615  0.077249      6.000000
  0.093274  0.089615  0.086232      2.000000
  0.116592  0.088681  0.085333      6.000000
  0.139911  0.087748  0.084435      6.000000
 -0.116592  0.098016  0.094316      6.000000
 -0.093274  0.097082  0.093418      6.000000
  0.116592  0.112018  0.084435      6.000000
  0.139911  0.111085  0.083537     12.000000
 -0.116592  0.121353  0.093418     12.000000
 -0.093274  0.120419  0.092519     12.000000
  0.139911  0.134422  0.082639      6.000000
 -0.116592  0.144690  0.092519     12.000000
 -0.093274  0.143757  0.091621      6.000000
 -0.116592 -0.112018  0.102400      6.000000
  0.116592  0.112018  0.107790      2.000000
  0.139911  0.111085  0.106891      6.000000
 -0.116592  0.121353  0.116772      6.000000
  0.139911  0.134422  0.105993      6.000000
 -0.116592  0.144690  0.115874      6.000000
  0.139911  0.134422  0.129347      1.000000
 
 TETIRR: Found    864 inequivalent tetrahedra from    10368


--------------------------------------------------------------------------------------------------------




 Dimension of arrays:
   k-points           NKPTS =    189   k-points in BZ     NKDIM =    189   number of bands    NBANDS=     24
   number of dos      NEDOS =    301   number of ions     NIONS =      8
   non local maximal  LDIM  =      4   non local SUM 2l+1 LMDIM =      8
   total plane-waves  NPLWV =  13824
   max r-space proj   IRMAX =      1   max aug-charges    IRDMAX=   3733
   dimension x,y,z NGX =    24 NGY =   24 NGZ =   24
   dimension x,y,z NGXF=    48 NGYF=   48 NGZF=   48
   support grid    NGXF=    48 NGYF=   48 NGZF=   48
   ions per type =               8
   NGX,Y,Z   is equivalent  to a cutoff of  11.11, 11.11, 11.11 a.u.
   NGXF,Y,Z  is equivalent  to a cutoff of  22.23, 22.23, 22.23 a.u.

 SYSTEM =  unknown system                          
 POSCAR =  C8                                      

 Startparameter for this run:
   NWRITE =      2    write-flag & timer
   PREC   = accura    normal or accurate (medium, high low for compatibility)
   ISTART =      0    job   : 0-new  1-cont  2-samecut
   ICHARG =      2    charge: 1-file 2-atom 10-const
   ISPIN  =      1    spin polarized calculation?
   LNONCOLLINEAR =      F non collinear calculations
   LSORBIT =      F    spin-orbit coupling
   INIWAV =      1    electr: 0-lowe 1-rand  2-diag
   LASPH  =      F    aspherical Exc in radial PAW
   METAGGA=      F    non-selfconsistent MetaGGA calc.

 Electronic Relaxation 1
   ENCUT  =  400.0 eV  29.40 Ry    5.42 a.u.   5.85  5.85  5.85*2*pi/ulx,y,z
   ENINI  =  400.0     initial cutoff
   ENAUG  =  644.9 eV  augmentation charge cutoff
   NELM   =     60;   NELMIN=  2; NELMDL= -5     # of ELM steps 
   EDIFF  = 0.1E-05   stopping-criterion for ELM
   LREAL  =      F    real-space projection
   NLSPLINE    = F    spline interpolate recip. space projectors
   LCOMPAT=      F    compatible to vasp.4.4
   GGA_COMPAT  = T    GGA compatible to vasp.4.4-vasp.4.6
   LMAXPAW     = -100 max onsite density
   LMAXMIX     =    2 max onsite mixed and CHGCAR
   VOSKOWN=      0    Vosko Wilk Nusair interpolation
   ROPT   =    0.00000
 Ionic relaxation
   EDIFFG = 0.1E-04   stopping-criterion for IOM
   NSW    =      0    number of steps for IOM
   NBLOCK =      1;   KBLOCK =      1    inner block; outer block 
   IBRION =     -1    ionic relax: 0-MD 1-quasi-New 2-CG
   NFREE  =      0    steps in history (QN), initial steepest desc. (CG)
   ISIF   =      2    stress and relaxation
   IWAVPR =     10    prediction:  0-non 1-charg 2-wave 3-comb
   ISYM   =      2    0-nonsym 1-usesym 2-fastsym
   LCORR  =      T    Harris-Foulkes like correction to forces

   POTIM  = 0.0200    time-step for ionic-motion
   TEIN   =    0.0    initial temperature
   TEBEG  =    0.0;   TEEND  =   0.0 temperature during run
   SMASS  =  -3.00    Nose mass-parameter (am)
   estimated Nose-frequenzy (Omega)   =  0.10E-29 period in steps =****** mass=  -0.295E-27a.u.
   SCALEE = 1.0000    scale energy and forces
   NPACO  =    256;   APACO  = 16.0  distance and # of slots for P.C.
   PSTRESS=    0.0 pullay stress

  Mass of Ions in am
   POMASS =  12.01
  Ionic Valenz
   ZVAL   =   4.00
  Atomic Wigner-Seitz radii
   RWIGS  =  -1.00
  virtual crystal weights 
   VCA    =   1.00
   NELECT =      32.0000    total number of electrons
   NUPDOWN=      -1.0000    fix difference up-down

 DOS related values:
   EMIN   =  10.00;   EMAX   =-10.00  energy-range for DOS
   EFERMI =   0.00
   ISMEAR =    -5;   SIGMA  =   0.06  broadening in eV -4-tet -1-fermi 0-gaus

 Electronic relaxation 2 (details)
   IALGO  =     38    algorithm
   LDIAG  =      T    sub-space diagonalisation (order eigenvalues)
   LSUBROT=      F    optimize rotation matrix (better conditioning)
   TURBO    =      0    0=normal 1=particle mesh
   IRESTART =      0    0=no restart 2=restart with 2 vectors
   NREBOOT  =      0    no. of reboots
   NMIN     =      0    reboot dimension
   EREF     =   0.00    reference energy to select bands
   IMIX   =      4    mixing-type and parameters
     AMIX     =   0.40;   BMIX     =  1.00
     AMIX_MAG =   1.60;   BMIX_MAG =  1.00
     AMIN     =   0.10
     WC   =   100.;   INIMIX=   1;  MIXPRE=   1;  MAXMIX= -45

 Intra band minimization:
   WEIMIN = 0.0000     energy-eigenvalue tresh-hold
   EBREAK =  0.10E-07  absolut break condition
   DEPER  =   0.30     relativ break condition  

   TIME   =   0.40     timestep for ELM

  volume/ion in A,a.u.               =       5.77        38.94
  Fermi-wavevector in a.u.,A,eV,Ry     =   1.448892  2.738009 28.562555  2.099289
  Thomas-Fermi vector in A             =   2.566681
 
 Write flags
   LWAVE        =      F    write WAVECAR
   LDOWNSAMPLE  =      F    k-point downsampling of WAVECAR
   LCHARG       =      F    write CHGCAR
   LVTOT        =      F    write LOCPOT, total local potential
   LVHAR        =      F    write LOCPOT, Hartree potential only
   LELF         =      F    write electronic localiz. function (ELF)
   LORBIT       =      0    0 simple, 1 ext, 2 COOP (PROOUT), +10 PAW based schemes


 Dipole corrections
   LMONO  =      F    monopole corrections only (constant potential shift)
   LDIPOL =      F    correct potential (dipole corrections)
   IDIPOL =      0    1-x, 2-y, 3-z, 4-all directions 
   EPSILON=  1.0000000 bulk dielectric constant

 Exchange correlation treatment:
   GGA     =    --    GGA type
   LEXCH   =     8    internal setting for exchange type
   VOSKOWN=      0    Vosko Wilk Nusair interpolation
   LHFCALC =     F    Hartree Fock is set to
   LHFONE  =     F    Hartree Fock one center treatment
   AEXX    =    0.0000 exact exchange contribution

 Linear response parameters
   LEPSILON=     F    determine dielectric tensor
   LRPA    =     F    only Hartree local field effects (RPA)
   LNABLA  =     F    use nabla operator in PAW spheres
   LVEL    =     F    velocity operator in full k-point grid
   LINTERFAST=   F  fast interpolation
   KINTER  =     0    interpolate to denser k-point grid
   CSHIFT  =0.1000    complex shift for real part using Kramers Kronig
   OMEGAMAX=  -1.0    maximum frequency
   DEG_THRESHOLD= 0.2000000E-02 threshold for treating states as degnerate
   RTIME   =   -0.100 relaxation time in fs
  (WPLASMAI=    0.000 imaginary part of plasma frequency in eV, 0.658/RTIME)
   DFIELD  = 0.0000000 0.0000000 0.0000000 field for delta impulse in time
 
 Orbital magnetization related:
   ORBITALMAG=     F  switch on orbital magnetization
   LCHIMAG   =     F  perturbation theory with respect to B field
   DQ        =  0.001000  dq finite difference perturbation B field
   LLRAUG    =     F  two centre corrections for induced B field



--------------------------------------------------------------------------------------------------------


 Static calculation
 charge density and potential will be updated during run
 non-spin polarized calculation
 Variant of blocked Davidson
 Davidson routine will perform the subspace rotation
 perform sub-space diagonalisation
    after iterative eigenvector-optimisation
 modified Broyden-mixing scheme, WC =      100.0
 initial mixing is a Kerker type mixing with AMIX =  0.4000 and BMIX =      1.0000
 Hartree-type preconditioning will be used
 using additional bands            8
 reciprocal scheme for non local part
 calculate Harris-corrections to forces 
   (improved forces if not selfconsistent)
 use gradient corrections 
 use of overlap-Matrix (Vanderbilt PP)
 Fermi weights with tetrahedron method with Bloechl corrections


--------------------------------------------------------------------------------------------------------


  energy-cutoff  :      400.00
  volume of cell :       46.16
      direct lattice vectors                 reciprocal lattice vectors
     3.589999359  0.000000000  0.000000000     0.278551582 -0.011150956 -0.010730013
     0.143599573  3.587126323  0.000000000     0.000000000  0.278774682 -0.010730012
     0.143599573  0.137966011  3.584472280     0.000000000  0.000000000  0.278981095

  length of vectors
     3.589999359  3.589999456  3.589999580     0.278981112  0.278981104  0.278981095


 
 k-points in units of 2pi/SCALE and weight: kpt_density=1000                        
   0.00000000  0.00000000  0.00000000       0.001
   0.02331844 -0.00093348 -0.00089824       0.003
   0.04663688 -0.00186696 -0.00179649       0.003
   0.06995531 -0.00280045 -0.00269473       0.003
   0.09327375 -0.00373393 -0.00359297       0.003
   0.11659219 -0.00466741 -0.00449122       0.003
   0.13991063 -0.00560089 -0.00538946       0.002
   0.02331844  0.02240363 -0.00179649       0.003
   0.04663688  0.02147015 -0.00269473       0.007
   0.06995531  0.02053667 -0.00359297       0.007
   0.09327375  0.01960319 -0.00449122       0.007
   0.11659219  0.01866970 -0.00538946       0.007
   0.13991063  0.01773622 -0.00628770       0.007
  -0.11659219  0.02800452  0.00359297       0.007
  -0.09327375  0.02707104  0.00269473       0.007
  -0.06995531  0.02613756  0.00179649       0.007
  -0.04663688  0.02520408  0.00089824       0.007
  -0.02331844  0.02427060  0.00000000       0.003
   0.04663688  0.04480726 -0.00359297       0.003
   0.06995531  0.04387378 -0.00449122       0.007
   0.09327375  0.04294030 -0.00538946       0.007
   0.11659219  0.04200682 -0.00628770       0.007
   0.13991063  0.04107334 -0.00718595       0.007
  -0.11659219  0.05134164  0.00269473       0.007
  -0.09327375  0.05040816  0.00179649       0.007
  -0.06995531  0.04947467  0.00089824       0.007
  -0.04663688  0.04854119  0.00000000       0.003
   0.06995531  0.06721090 -0.00538946       0.003
   0.09327375  0.06627741 -0.00628770       0.007
   0.11659219  0.06534393 -0.00718595       0.007
   0.13991063  0.06441045 -0.00808419       0.007
  -0.11659219  0.07467875  0.00179649       0.007
  -0.09327375  0.07374527  0.00089824       0.007
  -0.06995531  0.07281179  0.00000000       0.003
   0.09327375  0.08961453 -0.00718595       0.003
   0.11659219  0.08868105 -0.00808419       0.007
   0.13991063  0.08774756 -0.00898243       0.007
  -0.11659219  0.09801587  0.00089824       0.007
  -0.09327375  0.09708238  0.00000000       0.003
   0.11659219  0.11201816 -0.00898243       0.003
   0.13991063  0.11108468 -0.00988068       0.007
  -0.11659219  0.12135298  0.00000000       0.003
   0.13991063  0.13442179 -0.01077892       0.002
   0.02331844  0.02240363  0.02155791       0.001
   0.04663688  0.02147015  0.02065966       0.003
   0.06995531  0.02053667  0.01976142       0.003
   0.09327375  0.01960319  0.01886318       0.003
   0.11659219  0.01866970  0.01796493       0.003
   0.13991063  0.01773622  0.01706669       0.003
  -0.11659219  0.02800452  0.02694737       0.003
  -0.09327375  0.02707104  0.02604912       0.003
  -0.06995531  0.02613756  0.02515088       0.003
  -0.04663688  0.02520408  0.02425264       0.003
  -0.02331844  0.02427060  0.02335439       0.003
   0.04663688  0.04480726  0.01976142       0.003
   0.06995531  0.04387378  0.01886318       0.007
   0.09327375  0.04294030  0.01796493       0.007
   0.11659219  0.04200682  0.01706669       0.007
   0.13991063  0.04107334  0.01616845       0.007
  -0.11659219  0.05134164  0.02604912       0.007
  -0.09327375  0.05040816  0.02515088       0.007
  -0.06995531  0.04947467  0.02425264       0.007
  -0.04663688  0.04854119  0.02335439       0.007
  -0.02331844  0.04760771  0.02245615       0.007
   0.06995531  0.06721090  0.01796493       0.003
   0.09327375  0.06627741  0.01706669       0.007
   0.11659219  0.06534393  0.01616845       0.007
   0.13991063  0.06441045  0.01527020       0.007
  -0.11659219  0.07467875  0.02515088       0.007
  -0.09327375  0.07374527  0.02425264       0.007
  -0.06995531  0.07281179  0.02335439       0.007
  -0.04663688  0.07187831  0.02245615       0.007
  -0.02331844  0.07094482  0.02155791       0.007
   0.09327375  0.08961453  0.01616845       0.003
   0.11659219  0.08868105  0.01527020       0.007
   0.13991063  0.08774756  0.01437196       0.007
  -0.11659219  0.09801587  0.02425264       0.007
  -0.09327375  0.09708238  0.02335439       0.007
  -0.06995531  0.09614890  0.02245615       0.007
  -0.04663688  0.09521542  0.02155791       0.007
  -0.02331844  0.09428194  0.02065966       0.007
   0.11659219  0.11201816  0.01437196       0.003
   0.13991063  0.11108468  0.01347372       0.007
  -0.11659219  0.12135298  0.02335439       0.007
  -0.09327375  0.12041950  0.02245615       0.007
  -0.06995531  0.11948602  0.02155791       0.007
  -0.04663688  0.11855253  0.02065966       0.007
  -0.02331844  0.11761905  0.01976142       0.007
   0.13991063  0.13442179  0.01257547       0.003
  -0.11659219  0.14469009  0.02245615       0.007
  -0.09327375  0.14375661  0.02155791       0.007
  -0.06995531  0.14282313  0.02065966       0.007
  -0.04663688  0.14188965  0.01976142       0.007
  -0.02331844  0.14095617  0.01886318       0.003
  -0.11659219 -0.11201816  0.03233683       0.003
  -0.09327375 -0.11295164  0.03143858       0.007
  -0.06995531 -0.11388512  0.03054034       0.007
  -0.04663688 -0.11481861  0.02964210       0.007
  -0.09327375 -0.08961453  0.03054034       0.003
  -0.06995531 -0.09054801  0.02964210       0.007
  -0.04663688 -0.09148149  0.02874385       0.007
  -0.06995531 -0.06721090  0.02874385       0.003
  -0.04663688 -0.06814438  0.02784561       0.007
  -0.04663688 -0.04480726  0.02694737       0.003
   0.04663688  0.04480726  0.04311581       0.001
   0.06995531  0.04387378  0.04221757       0.003
   0.09327375  0.04294030  0.04131933       0.003
   0.11659219  0.04200682  0.04042108       0.003
   0.13991063  0.04107334  0.03952284       0.003
  -0.11659219  0.05134164  0.04940352       0.003
  -0.09327375  0.05040816  0.04850527       0.003
  -0.06995531  0.04947467  0.04760703       0.003
  -0.04663688  0.04854119  0.04670879       0.003
   0.06995531  0.06721090  0.04131933       0.003
   0.09327375  0.06627741  0.04042108       0.007
   0.11659219  0.06534393  0.03952284       0.007
   0.13991063  0.06441045  0.03862460       0.007
  -0.11659219  0.07467875  0.04850527       0.007
  -0.09327375  0.07374527  0.04760703       0.007
  -0.06995531  0.07281179  0.04670879       0.007
  -0.04663688  0.07187831  0.04581054       0.007
   0.09327375  0.08961453  0.03952284       0.003
   0.11659219  0.08868105  0.03862460       0.007
   0.13991063  0.08774756  0.03772635       0.007
  -0.11659219  0.09801587  0.04760703       0.007
  -0.09327375  0.09708238  0.04670879       0.007
  -0.06995531  0.09614890  0.04581054       0.007
  -0.04663688  0.09521542  0.04491230       0.007
   0.11659219  0.11201816  0.03772635       0.003
   0.13991063  0.11108468  0.03682811       0.007
  -0.11659219  0.12135298  0.04670879       0.007
  -0.09327375  0.12041950  0.04581054       0.007
  -0.06995531  0.11948602  0.04491230       0.007
  -0.04663688  0.11855253  0.04401406       0.007
   0.13991063  0.13442179  0.03592987       0.003
  -0.11659219  0.14469009  0.04581054       0.007
  -0.09327375  0.14375661  0.04491230       0.007
  -0.06995531  0.14282313  0.04401406       0.007
  -0.04663688  0.14188965  0.04311581       0.003
  -0.11659219 -0.11201816  0.05569122       0.003
  -0.09327375 -0.11295164  0.05479298       0.007
  -0.06995531 -0.11388512  0.05389473       0.007
  -0.09327375 -0.08961453  0.05389473       0.003
  -0.06995531 -0.09054801  0.05299649       0.007
  -0.06995531 -0.06721090  0.05209825       0.003
   0.06995531  0.06721090  0.06467372       0.001
   0.09327375  0.06627741  0.06377548       0.003
   0.11659219  0.06534393  0.06287723       0.003
   0.13991063  0.06441045  0.06197899       0.003
  -0.11659219  0.07467875  0.07185967       0.003
  -0.09327375  0.07374527  0.07096142       0.003
  -0.06995531  0.07281179  0.07006318       0.003
   0.09327375  0.08961453  0.06287723       0.003
   0.11659219  0.08868105  0.06197899       0.007
   0.13991063  0.08774756  0.06108075       0.007
  -0.11659219  0.09801587  0.07096142       0.007
  -0.09327375  0.09708238  0.07006318       0.007
  -0.06995531  0.09614890  0.06916494       0.007
   0.11659219  0.11201816  0.06108075       0.003
   0.13991063  0.11108468  0.06018250       0.007
  -0.11659219  0.12135298  0.07006318       0.007
  -0.09327375  0.12041950  0.06916494       0.007
  -0.06995531  0.11948602  0.06826669       0.007
   0.13991063  0.13442179  0.05928426       0.003
  -0.11659219  0.14469009  0.06916494       0.007
  -0.09327375  0.14375661  0.06826669       0.007
  -0.06995531  0.14282313  0.06736845       0.003
  -0.11659219 -0.11201816  0.07904561       0.003
  -0.09327375 -0.11295164  0.07814737       0.007
  -0.09327375 -0.08961453  0.07724913       0.003
   0.09327375  0.08961453  0.08623163       0.001
   0.11659219  0.08868105  0.08533338       0.003
   0.13991063  0.08774756  0.08443514       0.003
  -0.11659219  0.09801587  0.09431582       0.003
  -0.09327375  0.09708238  0.09341757       0.003
   0.11659219  0.11201816  0.08443514       0.003
   0.13991063  0.11108468  0.08353690       0.007
  -0.11659219  0.12135298  0.09341757       0.007
  -0.09327375  0.12041950  0.09251933       0.007
   0.13991063  0.13442179  0.08263865       0.003
  -0.11659219  0.14469009  0.09251933       0.007
  -0.09327375  0.14375661  0.09162109       0.003
  -0.11659219 -0.11201816  0.10240001       0.003
   0.11659219  0.11201816  0.10778953       0.001
   0.13991063  0.11108468  0.10689129       0.003
  -0.11659219  0.12135298  0.11677197       0.003
   0.13991063  0.13442179  0.10599305       0.003
  -0.11659219  0.14469009  0.11587372       0.003
   0.13991063  0.13442179  0.12934744       0.001
 
 k-points in reciprocal lattice and weights: kpt_density=1000                        
   0.00000000  0.00000000  0.00000000       0.001
   0.08333333 -0.00000000 -0.00000000       0.003
   0.16666667 -0.00000000  0.00000000       0.003
   0.25000000  0.00000000 -0.00000000       0.003
   0.33333333 -0.00000000 -0.00000000       0.003
   0.41666667 -0.00000000 -0.00000000       0.003
   0.50000000  0.00000000 -0.00000000       0.002
   0.08333333  0.08333333 -0.00000000       0.003
   0.16666667  0.08333333 -0.00000000       0.007
   0.25000000  0.08333333 -0.00000000       0.007
   0.33333333  0.08333333 -0.00000000       0.007
   0.41666667  0.08333333 -0.00000000       0.007
   0.50000000  0.08333333  0.00000000       0.007
  -0.41666667  0.08333333 -0.00000000       0.007
  -0.33333333  0.08333333 -0.00000000       0.007
  -0.25000000  0.08333333  0.00000000       0.007
  -0.16666667  0.08333333 -0.00000000       0.007
  -0.08333333  0.08333333  0.00000000       0.003
   0.16666667  0.16666667  0.00000000       0.003
   0.25000000  0.16666667 -0.00000000       0.007
   0.33333333  0.16666667  0.00000000       0.007
   0.41666667  0.16666667  0.00000000       0.007
   0.50000000  0.16666667 -0.00000000       0.007
  -0.41666667  0.16666667 -0.00000000       0.007
  -0.33333333  0.16666667  0.00000000       0.007
  -0.25000000  0.16666667 -0.00000000       0.007
  -0.16666667  0.16666667 -0.00000000       0.003
   0.25000000  0.25000000  0.00000000       0.003
   0.33333333  0.25000000  0.00000000       0.007
   0.41666667  0.25000000 -0.00000000       0.007
   0.50000000  0.25000000  0.00000000       0.007
  -0.41666667  0.25000000  0.00000000       0.007
  -0.33333333  0.25000000  0.00000000       0.007
  -0.25000000  0.25000000  0.00000000       0.003
   0.33333333  0.33333333  0.00000000       0.003
   0.41666667  0.33333333  0.00000000       0.007
   0.50000000  0.33333333  0.00000000       0.007
  -0.41666667  0.33333333  0.00000000       0.007
  -0.33333333  0.33333333  0.00000000       0.003
   0.41666667  0.41666667  0.00000000       0.003
   0.50000000  0.41666667 -0.00000000       0.007
  -0.41666667  0.41666667  0.00000000       0.003
   0.50000000  0.50000000  0.00000000       0.002
   0.08333333  0.08333333  0.08333333       0.001
   0.16666667  0.08333333  0.08333333       0.003
   0.25000000  0.08333333  0.08333333       0.003
   0.33333333  0.08333333  0.08333333       0.003
   0.41666667  0.08333333  0.08333333       0.003
   0.50000000  0.08333333  0.08333333       0.003
  -0.41666667  0.08333333  0.08333333       0.003
  -0.33333333  0.08333333  0.08333333       0.003
  -0.25000000  0.08333333  0.08333333       0.003
  -0.16666667  0.08333333  0.08333333       0.003
  -0.08333333  0.08333333  0.08333333       0.003
   0.16666667  0.16666667  0.08333333       0.003
   0.25000000  0.16666667  0.08333333       0.007
   0.33333333  0.16666667  0.08333333       0.007
   0.41666667  0.16666667  0.08333333       0.007
   0.50000000  0.16666667  0.08333333       0.007
  -0.41666667  0.16666667  0.08333333       0.007
  -0.33333333  0.16666667  0.08333333       0.007
  -0.25000000  0.16666667  0.08333333       0.007
  -0.16666667  0.16666667  0.08333333       0.007
  -0.08333333  0.16666667  0.08333333       0.007
   0.25000000  0.25000000  0.08333333       0.003
   0.33333333  0.25000000  0.08333333       0.007
   0.41666667  0.25000000  0.08333333       0.007
   0.50000000  0.25000000  0.08333333       0.007
  -0.41666667  0.25000000  0.08333333       0.007
  -0.33333333  0.25000000  0.08333333       0.007
  -0.25000000  0.25000000  0.08333333       0.007
  -0.16666667  0.25000000  0.08333333       0.007
  -0.08333333  0.25000000  0.08333333       0.007
   0.33333333  0.33333333  0.08333333       0.003
   0.41666667  0.33333333  0.08333333       0.007
   0.50000000  0.33333333  0.08333333       0.007
  -0.41666667  0.33333333  0.08333333       0.007
  -0.33333333  0.33333333  0.08333333       0.007
  -0.25000000  0.33333333  0.08333333       0.007
  -0.16666667  0.33333333  0.08333333       0.007
  -0.08333333  0.33333333  0.08333333       0.007
   0.41666667  0.41666667  0.08333333       0.003
   0.50000000  0.41666667  0.08333333       0.007
  -0.41666667  0.41666667  0.08333333       0.007
  -0.33333333  0.41666667  0.08333333       0.007
  -0.25000000  0.41666667  0.08333333       0.007
  -0.16666667  0.41666667  0.08333333       0.007
  -0.08333333  0.41666667  0.08333333       0.007
   0.50000000  0.50000000  0.08333333       0.003
  -0.41666667  0.50000000  0.08333333       0.007
  -0.33333333  0.50000000  0.08333333       0.007
  -0.25000000  0.50000000  0.08333333       0.007
  -0.16666667  0.50000000  0.08333333       0.007
  -0.08333333  0.50000000  0.08333333       0.003
  -0.41666667 -0.41666667  0.08333333       0.003
  -0.33333333 -0.41666667  0.08333333       0.007
  -0.25000000 -0.41666667  0.08333333       0.007
  -0.16666667 -0.41666667  0.08333333       0.007
  -0.33333333 -0.33333333  0.08333333       0.003
  -0.25000000 -0.33333333  0.08333333       0.007
  -0.16666667 -0.33333333  0.08333333       0.007
  -0.25000000 -0.25000000  0.08333333       0.003
  -0.16666667 -0.25000000  0.08333333       0.007
  -0.16666667 -0.16666667  0.08333333       0.003
   0.16666667  0.16666667  0.16666667       0.001
   0.25000000  0.16666667  0.16666667       0.003
   0.33333333  0.16666667  0.16666667       0.003
   0.41666667  0.16666667  0.16666667       0.003
   0.50000000  0.16666667  0.16666667       0.003
  -0.41666667  0.16666667  0.16666667       0.003
  -0.33333333  0.16666667  0.16666667       0.003
  -0.25000000  0.16666667  0.16666667       0.003
  -0.16666667  0.16666667  0.16666667       0.003
   0.25000000  0.25000000  0.16666667       0.003
   0.33333333  0.25000000  0.16666667       0.007
   0.41666667  0.25000000  0.16666667       0.007
   0.50000000  0.25000000  0.16666667       0.007
  -0.41666667  0.25000000  0.16666667       0.007
  -0.33333333  0.25000000  0.16666667       0.007
  -0.25000000  0.25000000  0.16666667       0.007
  -0.16666667  0.25000000  0.16666667       0.007
   0.33333333  0.33333333  0.16666667       0.003
   0.41666667  0.33333333  0.16666667       0.007
   0.50000000  0.33333333  0.16666667       0.007
  -0.41666667  0.33333333  0.16666667       0.007
  -0.33333333  0.33333333  0.16666667       0.007
  -0.25000000  0.33333333  0.16666667       0.007
  -0.16666667  0.33333333  0.16666667       0.007
   0.41666667  0.41666667  0.16666667       0.003
   0.50000000  0.41666667  0.16666667       0.007
  -0.41666667  0.41666667  0.16666667       0.007
  -0.33333333  0.41666667  0.16666667       0.007
  -0.25000000  0.41666667  0.16666667       0.007
  -0.16666667  0.41666667  0.16666667       0.007
   0.50000000  0.50000000  0.16666667       0.003
  -0.41666667  0.50000000  0.16666667       0.007
  -0.33333333  0.50000000  0.16666667       0.007
  -0.25000000  0.50000000  0.16666667       0.007
  -0.16666667  0.50000000  0.16666667       0.003
  -0.41666667 -0.41666667  0.16666667       0.003
  -0.33333333 -0.41666667  0.16666667       0.007
  -0.25000000 -0.41666667  0.16666667       0.007
  -0.33333333 -0.33333333  0.16666667       0.003
  -0.25000000 -0.33333333  0.16666667       0.007
  -0.25000000 -0.25000000  0.16666667       0.003
   0.25000000  0.25000000  0.25000000       0.001
   0.33333333  0.25000000  0.25000000       0.003
   0.41666667  0.25000000  0.25000000       0.003
   0.50000000  0.25000000  0.25000000       0.003
  -0.41666667  0.25000000  0.25000000       0.003
  -0.33333333  0.25000000  0.25000000       0.003
  -0.25000000  0.25000000  0.25000000       0.003
   0.33333333  0.33333333  0.25000000       0.003
   0.41666667  0.33333333  0.25000000       0.007
   0.50000000  0.33333333  0.25000000       0.007
  -0.41666667  0.33333333  0.25000000       0.007
  -0.33333333  0.33333333  0.25000000       0.007
  -0.25000000  0.33333333  0.25000000       0.007
   0.41666667  0.41666667  0.25000000       0.003
   0.50000000  0.41666667  0.25000000       0.007
  -0.41666667  0.41666667  0.25000000       0.007
  -0.33333333  0.41666667  0.25000000       0.007
  -0.25000000  0.41666667  0.25000000       0.007
   0.50000000  0.50000000  0.25000000       0.003
  -0.41666667  0.50000000  0.25000000       0.007
  -0.33333333  0.50000000  0.25000000       0.007
  -0.25000000  0.50000000  0.25000000       0.003
  -0.41666667 -0.41666667  0.25000000       0.003
  -0.33333333 -0.41666667  0.25000000       0.007
  -0.33333333 -0.33333333  0.25000000       0.003
   0.33333333  0.33333333  0.33333333       0.001
   0.41666667  0.33333333  0.33333333       0.003
   0.50000000  0.33333333  0.33333333       0.003
  -0.41666667  0.33333333  0.33333333       0.003
  -0.33333333  0.33333333  0.33333333       0.003
   0.41666667  0.41666667  0.33333333       0.003
   0.50000000  0.41666667  0.33333333       0.007
  -0.41666667  0.41666667  0.33333333       0.007
  -0.33333333  0.41666667  0.33333333       0.007
   0.50000000  0.50000000  0.33333333       0.003
  -0.41666667  0.50000000  0.33333333       0.007
  -0.33333333  0.50000000  0.33333333       0.003
  -0.41666667 -0.41666667  0.33333333       0.003
   0.41666667  0.41666667  0.41666667       0.001
   0.50000000  0.41666667  0.41666667       0.003
  -0.41666667  0.41666667  0.41666667       0.003
   0.50000000  0.50000000  0.41666667       0.003
  -0.41666667  0.50000000  0.41666667       0.003
   0.50000000  0.50000000  0.50000000       0.001
 
 position of ions in fractional coordinates (direct lattice) 
   0.25000000  0.75000000  0.25000000
   0.00000000  0.00000000  0.50000000
   0.25000000  0.25000000  0.75000000
   0.00000000  0.50000000  0.00000000
   0.75000000  0.75000000  0.75000000
   0.50000000  0.00000000  0.00000000
   0.75000000  0.25000000  0.25000000
   0.50000000  0.50000000  0.50000000
 
 position of ions in cartesian coordinates  (Angst):
   1.04109941  2.72483624  0.89611807
   0.07179979  0.06898301  1.79223614
   1.04109941  1.00025609  2.68835421
   0.07179979  1.79356316  0.00000000
   2.90789888  2.79381925  2.68835421
   1.79499968  0.00000000  0.00000000
   2.76429931  0.93127308  0.89611807
   1.93859925  1.86254617  1.79223614
 


--------------------------------------------------------------------------------------------------------


 k-point  1 :   0.0000 0.0000 0.0000  plane waves:     817
 k-point  2 :   0.0833-0.0000-0.0000  plane waves:     832
 k-point  3 :   0.1667-0.0000 0.0000  plane waves:     834
 k-point  4 :   0.2500 0.0000-0.0000  plane waves:     836
 k-point  5 :   0.3333-0.0000-0.0000  plane waves:     839
 k-point  6 :   0.4167-0.0000-0.0000  plane waves:     843
 k-point  7 :   0.5000 0.0000-0.0000  plane waves:     840
 k-point  8 :   0.0833 0.0833-0.0000  plane waves:     824
 k-point  9 :   0.1667 0.0833-0.0000  plane waves:     828
 k-point 10 :   0.2500 0.0833-0.0000  plane waves:     834
 k-point 11 :   0.3333 0.0833-0.0000  plane waves:     837
 k-point 12 :   0.4167 0.0833-0.0000  plane waves:     834
 k-point 13 :   0.5000 0.0833 0.0000  plane waves:     838
 k-point 14 :  -0.4167 0.0833-0.0000  plane waves:     837
 k-point 15 :  -0.3333 0.0833-0.0000  plane waves:     843
 k-point 16 :  -0.2500 0.0833 0.0000  plane waves:     840
 k-point 17 :  -0.1667 0.0833-0.0000  plane waves:     834
 k-point 18 :  -0.0833 0.0833 0.0000  plane waves:     836
 k-point 19 :   0.1667 0.1667 0.0000  plane waves:     826
 k-point 20 :   0.2500 0.1667-0.0000  plane waves:     831
 k-point 21 :   0.3333 0.1667 0.0000  plane waves:     834
 k-point 22 :   0.4167 0.1667 0.0000  plane waves:     834
 k-point 23 :   0.5000 0.1667-0.0000  plane waves:     839
 k-point 24 :  -0.4167 0.1667-0.0000  plane waves:     836
 k-point 25 :  -0.3333 0.1667 0.0000  plane waves:     843
 k-point 26 :  -0.2500 0.1667-0.0000  plane waves:     839
 k-point 27 :  -0.1667 0.1667-0.0000  plane waves:     832
 k-point 28 :   0.2500 0.2500 0.0000  plane waves:     825
 k-point 29 :   0.3333 0.2500 0.0000  plane waves:     837
 k-point 30 :   0.4167 0.2500-0.0000  plane waves:     846
 k-point 31 :   0.5000 0.2500 0.0000  plane waves:     840
 k-point 32 :  -0.4167 0.2500 0.0000  plane waves:     835
 k-point 33 :  -0.3333 0.2500 0.0000  plane waves:     840
 k-point 34 :  -0.2500 0.2500 0.0000  plane waves:     836
 k-point 35 :   0.3333 0.3333 0.0000  plane waves:     838
 k-point 36 :   0.4167 0.3333 0.0000  plane waves:     838
 k-point 37 :   0.5000 0.3333 0.0000  plane waves:     840
 k-point 38 :  -0.4167 0.3333 0.0000  plane waves:     841
 k-point 39 :  -0.3333 0.3333 0.0000  plane waves:     842
 k-point 40 :   0.4167 0.4167 0.0000  plane waves:     833
 k-point 41 :   0.5000 0.4167-0.0000  plane waves:     837
 k-point 42 :  -0.4167 0.4167 0.0000  plane waves:     838
 k-point 43 :   0.5000 0.5000 0.0000  plane waves:     834
 k-point 44 :   0.0833 0.0833 0.0833  plane waves:     835
 k-point 45 :   0.1667 0.0833 0.0833  plane waves:     828
 k-point 46 :   0.2500 0.0833 0.0833  plane waves:     832
 k-point 47 :   0.3333 0.0833 0.0833  plane waves:     836
 k-point 48 :   0.4167 0.0833 0.0833  plane waves:     832
 k-point 49 :   0.5000 0.0833 0.0833  plane waves:     835
 k-point 50 :  -0.4167 0.0833 0.0833  plane waves:     839
 k-point 51 :  -0.3333 0.0833 0.0833  plane waves:     843
 k-point 52 :  -0.2500 0.0833 0.0833  plane waves:     840
 k-point 53 :  -0.1667 0.0833 0.0833  plane waves:     840
 k-point 54 :  -0.0833 0.0833 0.0833  plane waves:     828
 k-point 55 :   0.1667 0.1667 0.0833  plane waves:     826
 k-point 56 :   0.2500 0.1667 0.0833  plane waves:     824
 k-point 57 :   0.3333 0.1667 0.0833  plane waves:     828
 k-point 58 :   0.4167 0.1667 0.0833  plane waves:     834
 k-point 59 :   0.5000 0.1667 0.0833  plane waves:     834
 k-point 60 :  -0.4167 0.1667 0.0833  plane waves:     840
 k-point 61 :  -0.3333 0.1667 0.0833  plane waves:     842
 k-point 62 :  -0.2500 0.1667 0.0833  plane waves:     840
 k-point 63 :  -0.1667 0.1667 0.0833  plane waves:     840
 k-point 64 :  -0.0833 0.1667 0.0833  plane waves:     831
 k-point 65 :   0.2500 0.2500 0.0833  plane waves:     824
 k-point 66 :   0.3333 0.2500 0.0833  plane waves:     832
 k-point 67 :   0.4167 0.2500 0.0833  plane waves:     839
 k-point 68 :   0.5000 0.2500 0.0833  plane waves:     839
 k-point 69 :  -0.4167 0.2500 0.0833  plane waves:     840
 k-point 70 :  -0.3333 0.2500 0.0833  plane waves:     841
 k-point 71 :  -0.2500 0.2500 0.0833  plane waves:     842
 k-point 72 :  -0.1667 0.2500 0.0833  plane waves:     840
 k-point 73 :  -0.0833 0.2500 0.0833  plane waves:     839
 k-point 74 :   0.3333 0.3333 0.0833  plane waves:     835
 k-point 75 :   0.4167 0.3333 0.0833  plane waves:     840
 k-point 76 :   0.5000 0.3333 0.0833  plane waves:     838
 k-point 77 :  -0.4167 0.3333 0.0833  plane waves:     840
 k-point 78 :  -0.3333 0.3333 0.0833  plane waves:     843
 k-point 79 :  -0.2500 0.3333 0.0833  plane waves:     839
 k-point 80 :  -0.1667 0.3333 0.0833  plane waves:     841
 k-point 81 :  -0.0833 0.3333 0.0833  plane waves:     841
 k-point 82 :   0.4167 0.4167 0.0833  plane waves:     841
 k-point 83 :   0.5000 0.4167 0.0833  plane waves:     836
 k-point 84 :  -0.4167 0.4167 0.0833  plane waves:     840
 k-point 85 :  -0.3333 0.4167 0.0833  plane waves:     845
 k-point 86 :  -0.2500 0.4167 0.0833  plane waves:     837
 k-point 87 :  -0.1667 0.4167 0.0833  plane waves:     838
 k-point 88 :  -0.0833 0.4167 0.0833  plane waves:     842
 k-point 89 :   0.5000 0.5000 0.0833  plane waves:     837
 k-point 90 :  -0.4167 0.5000 0.0833  plane waves:     839
 k-point 91 :  -0.3333 0.5000 0.0833  plane waves:     845
 k-point 92 :  -0.2500 0.5000 0.0833  plane waves:     839
 k-point 93 :  -0.1667 0.5000 0.0833  plane waves:     838
 k-point 94 :  -0.0833 0.5000 0.0833  plane waves:     838
 k-point 95 :  -0.4167-0.4167 0.0833  plane waves:     834
 k-point 96 :  -0.3333-0.4167 0.0833  plane waves:     837
 k-point 97 :  -0.2500-0.4167 0.0833  plane waves:     835
 k-point 98 :  -0.1667-0.4167 0.0833  plane waves:     838
 k-point 99 :  -0.3333-0.3333 0.0833  plane waves:     836
 k-point ** :  -0.2500-0.3333 0.0833  plane waves:     837
 k-point ** :  -0.1667-0.3333 0.0833  plane waves:     841
 k-point ** :  -0.2500-0.2500 0.0833  plane waves:     836
 k-point ** :  -0.1667-0.2500 0.0833  plane waves:     840
 k-point ** :  -0.1667-0.1667 0.0833  plane waves:     834
 k-point ** :   0.1667 0.1667 0.1667  plane waves:     817
 k-point ** :   0.2500 0.1667 0.1667  plane waves:     822
 k-point ** :   0.3333 0.1667 0.1667  plane waves:     822
 k-point ** :   0.4167 0.1667 0.1667  plane waves:     830
 k-point ** :   0.5000 0.1667 0.1667  plane waves:     838
 k-point ** :  -0.4167 0.1667 0.1667  plane waves:     842
 k-point ** :  -0.3333 0.1667 0.1667  plane waves:     846
 k-point ** :  -0.2500 0.1667 0.1667  plane waves:     845
 k-point ** :  -0.1667 0.1667 0.1667  plane waves:     843
 k-point ** :   0.2500 0.2500 0.1667  plane waves:     827
 k-point ** :   0.3333 0.2500 0.1667  plane waves:     827
 k-point ** :   0.4167 0.2500 0.1667  plane waves:     833
 k-point ** :   0.5000 0.2500 0.1667  plane waves:     838
 k-point ** :  -0.4167 0.2500 0.1667  plane waves:     840
 k-point ** :  -0.3333 0.2500 0.1667  plane waves:     843
 k-point ** :  -0.2500 0.2500 0.1667  plane waves:     842
 k-point ** :  -0.1667 0.2500 0.1667  plane waves:     841
 k-point ** :   0.3333 0.3333 0.1667  plane waves:     831
 k-point ** :   0.4167 0.3333 0.1667  plane waves:     839
 k-point ** :   0.5000 0.3333 0.1667  plane waves:     833
 k-point ** :  -0.4167 0.3333 0.1667  plane waves:     843
 k-point ** :  -0.3333 0.3333 0.1667  plane waves:     839
 k-point ** :  -0.2500 0.3333 0.1667  plane waves:     840
 k-point ** :  -0.1667 0.3333 0.1667  plane waves:     839
 k-point ** :   0.4167 0.4167 0.1667  plane waves:     840
 k-point ** :   0.5000 0.4167 0.1667  plane waves:     840
 k-point ** :  -0.4167 0.4167 0.1667  plane waves:     840
 k-point ** :  -0.3333 0.4167 0.1667  plane waves:     842
 k-point ** :  -0.2500 0.4167 0.1667  plane waves:     833
 k-point ** :  -0.1667 0.4167 0.1667  plane waves:     836
 k-point ** :   0.5000 0.5000 0.1667  plane waves:     843
 k-point ** :  -0.4167 0.5000 0.1667  plane waves:     843
 k-point ** :  -0.3333 0.5000 0.1667  plane waves:     844
 k-point ** :  -0.2500 0.5000 0.1667  plane waves:     837
 k-point ** :  -0.1667 0.5000 0.1667  plane waves:     834
 k-point ** :  -0.4167-0.4167 0.1667  plane waves:     841
 k-point ** :  -0.3333-0.4167 0.1667  plane waves:     842
 k-point ** :  -0.2500-0.4167 0.1667  plane waves:     836
 k-point ** :  -0.3333-0.3333 0.1667  plane waves:     840
 k-point ** :  -0.2500-0.3333 0.1667  plane waves:     836
 k-point ** :  -0.2500-0.2500 0.1667  plane waves:     841
 k-point ** :   0.2500 0.2500 0.2500  plane waves:     826
 k-point ** :   0.3333 0.2500 0.2500  plane waves:     828
 k-point ** :   0.4167 0.2500 0.2500  plane waves:     834
 k-point ** :   0.5000 0.2500 0.2500  plane waves:     840
 k-point ** :  -0.4167 0.2500 0.2500  plane waves:     843
 k-point ** :  -0.3333 0.2500 0.2500  plane waves:     843
 k-point ** :  -0.2500 0.2500 0.2500  plane waves:     843
 k-point ** :   0.3333 0.3333 0.2500  plane waves:     832
 k-point ** :   0.4167 0.3333 0.2500  plane waves:     844
 k-point ** :   0.5000 0.3333 0.2500  plane waves:     839
 k-point ** :  -0.4167 0.3333 0.2500  plane waves:     839
 k-point ** :  -0.3333 0.3333 0.2500  plane waves:     837
 k-point ** :  -0.2500 0.3333 0.2500  plane waves:     842
 k-point ** :   0.4167 0.4167 0.2500  plane waves:     850
 k-point ** :   0.5000 0.4167 0.2500  plane waves:     842
 k-point ** :  -0.4167 0.4167 0.2500  plane waves:     846
 k-point ** :  -0.3333 0.4167 0.2500  plane waves:     839
 k-point ** :  -0.2500 0.4167 0.2500  plane waves:     842
 k-point ** :   0.5000 0.5000 0.2500  plane waves:     848
 k-point ** :  -0.4167 0.5000 0.2500  plane waves:     845
 k-point ** :  -0.3333 0.5000 0.2500  plane waves:     844
 k-point ** :  -0.2500 0.5000 0.2500  plane waves:     840
 k-point ** :  -0.4167-0.4167 0.2500  plane waves:     845
 k-point ** :  -0.3333-0.4167 0.2500  plane waves:     845
 k-point ** :  -0.3333-0.3333 0.2500  plane waves:     845
 k-point ** :   0.3333 0.3333 0.3333  plane waves:     835
 k-point ** :   0.4167 0.3333 0.3333  plane waves:     843
 k-point ** :   0.5000 0.3333 0.3333  plane waves:     843
 k-point ** :  -0.4167 0.3333 0.3333  plane waves:     841
 k-point ** :  -0.3333 0.3333 0.3333  plane waves:     841
 k-point ** :   0.4167 0.4167 0.3333  plane waves:     851
 k-point ** :   0.5000 0.4167 0.3333  plane waves:     842
 k-point ** :  -0.4167 0.4167 0.3333  plane waves:     845
 k-point ** :  -0.3333 0.4167 0.3333  plane waves:     842
 k-point ** :   0.5000 0.5000 0.3333  plane waves:     846
 k-point ** :  -0.4167 0.5000 0.3333  plane waves:     848
 k-point ** :  -0.3333 0.5000 0.3333  plane waves:     850
 k-point ** :  -0.4167-0.4167 0.3333  plane waves:     851
 k-point ** :   0.4167 0.4167 0.4167  plane waves:     868
 k-point ** :   0.5000 0.4167 0.4167  plane waves:     844
 k-point ** :  -0.4167 0.4167 0.4167  plane waves:     842
 k-point ** :   0.5000 0.5000 0.4167  plane waves:     853
 k-point ** :  -0.4167 0.5000 0.4167  plane waves:     844
 k-point ** :   0.5000 0.5000 0.5000  plane waves:     860

 maximum and minimum number of plane-waves per node :       230      190

 maximum number of plane-waves:       868
 maximum index in each direction: 
   IXMAX=    6   IYMAX=    6   IZMAX=    5
   IXMIN=   -6   IYMIN=   -6   IZMIN=   -6


 parallel 3D FFT for wavefunctions:
    minimum data exchange during FFTs selected (reduces bandwidth)
 parallel 3D FFT for charge:
    minimum data exchange during FFTs selected (reduces bandwidth)


 total amount of memory used by VASP MPI-rank0    37803. kBytes
=======================================================================

   base      :      30000. kBytes
   nonl-proj :       2689. kBytes
   fftplans  :        346. kBytes
   grid      :        481. kBytes
   one-center:          6. kBytes
   wavefun   :       4281. kBytes
 
     INWAV:  cpu time    0.0004: real time    0.0006
 Broyden mixing: mesh for mixing (old mesh)
   NGX = 11   NGY = 11   NGZ = 11
  (NGX  = 48   NGY  = 48   NGZ  = 48)
  gives a total of   1331 points

 initial charge density was supplied:
 charge density of overlapping atoms calculated
 number of electron      32.0000000 magnetization 
 keeping initial charge density in first step


--------------------------------------------------------------------------------------------------------


 Maximum index for augmentation-charges          277 (set IRDMAX)


--------------------------------------------------------------------------------------------------------


 First call to EWALD:  gamma=   0.494
 Maximum number of real-space cells 3x 3x 3
 Maximum number of reciprocal cells 3x 3x 3

    FEWALD:  cpu time    0.0055: real time    0.0055


--------------------------------------- Iteration      1(   1)  ---------------------------------------


    POTLOK:  cpu time    0.0258: real time    0.0300
    SETDIJ:  cpu time    0.0065: real time    0.0065
     EDDAV:  cpu time    9.2940: real time    9.3043
 BZINTS: Fermi energy: 18.203600; 32.000000 electrons
         Band energy: 116.589255;  BLOECHL correction: -0.136434
       DOS:  cpu time    0.1633: real time    0.1633
    --------------------------------------------
      LOOP:  cpu time    9.4896: real time    9.5040

 eigenvalue-minimisations  :  9072
 total energy-change (2. order) : 0.5608688E+02  (-0.1436458E+04)
 number of electron      32.0000000 magnetization 
 augmentation part       32.0000000 magnetization 

 Free energy of the ion-electron system (eV)
  ---------------------------------------------------
  alpha Z        PSCENC =       112.97064291
  Ewald energy   TEWEN  =     -1382.71057194
  -Hartree energ DENC   =       -72.54979902
  -exchange      EXHF   =         0.00000000
  -V(xc)+E(xc)   XCENC  =       113.97340159
  PAW double counting   =       302.65154477     -311.85538214
  entropy T*S    EENTRO =         0.00000000
  eigenvalues    EBANDS =       116.58925515
  atomic energy  EATOM  =      1177.01779097
  Solvation  Ediel_sol  =         0.00000000
  ---------------------------------------------------
  free energy    TOTEN  =        56.08688229 eV

  energy without entropy =       56.08688229  energy(sigma->0) =       56.08688229


--------------------------------------------------------------------------------------------------------




--------------------------------------- Iteration      1(   2)  ---------------------------------------


     EDDAV:  cpu time   11.4745: real time   11.4755
 BZINTS: Fermi energy:  8.849877; 32.000000 electrons
         Band energy: -10.156237;  BLOECHL correction:  0.000000
       DOS:  cpu time    0.0468: real time    0.0468
    --------------------------------------------
      LOOP:  cpu time   11.5214: real time   11.5223

 eigenvalue-minimisations  : 12400
 total energy-change (2. order) :-0.1267455E+03  (-0.1202153E+03)
 number of electron      32.0000000 magnetization 
 augmentation part       32.0000000 magnetization 

 Free energy of the ion-electron system (eV)
  ---------------------------------------------------
  alpha Z        PSCENC =       112.97064291
  Ewald energy   TEWEN  =     -1382.71057194
  -Hartree energ DENC   =       -72.54979902
  -exchange      EXHF   =         0.00000000
  -V(xc)+E(xc)   XCENC  =       113.97340159
  PAW double counting   =       302.65154477     -311.85538214
  entropy T*S    EENTRO =         0.00000000
  eigenvalues    EBANDS =       -10.15623732
  atomic energy  EATOM  =      1177.01779097
  Solvation  Ediel_sol  =         0.00000000
  ---------------------------------------------------
  free energy    TOTEN  =       -70.65861018 eV

  energy without entropy =      -70.65861018  energy(sigma->0) =      -70.65861018


--------------------------------------------------------------------------------------------------------




--------------------------------------- Iteration      1(   3)  ---------------------------------------


     EDDAV:  cpu time   11.1465: real time   11.1493
 BZINTS: Fermi energy:  8.262417; 32.000000 electrons
         Band energy: -14.303434;  BLOECHL correction:  0.000000
       DOS:  cpu time    0.0423: real time    0.0423
    --------------------------------------------
      LOOP:  cpu time   11.1888: real time   11.1916

 eigenvalue-minimisations  : 11912
 total energy-change (2. order) :-0.4147196E+01  (-0.4126880E+01)
 number of electron      32.0000000 magnetization 
 augmentation part       32.0000000 magnetization 

 Free energy of the ion-electron system (eV)
  ---------------------------------------------------
  alpha Z        PSCENC =       112.97064291
  Ewald energy   TEWEN  =     -1382.71057194
  -Hartree energ DENC   =       -72.54979902
  -exchange      EXHF   =         0.00000000
  -V(xc)+E(xc)   XCENC  =       113.97340159
  PAW double counting   =       302.65154477     -311.85538214
  entropy T*S    EENTRO =         0.00000000
  eigenvalues    EBANDS =       -14.30343361
  atomic energy  EATOM  =      1177.01779097
  Solvation  Ediel_sol  =         0.00000000
  ---------------------------------------------------
  free energy    TOTEN  =       -74.80580646 eV

  energy without entropy =      -74.80580646  energy(sigma->0) =      -74.80580646


--------------------------------------------------------------------------------------------------------




--------------------------------------- Iteration      1(   4)  ---------------------------------------


     EDDAV:  cpu time   11.0524: real time   11.0532
 BZINTS: Fermi energy:  8.207602; 32.000000 electrons
         Band energy: -14.344354;  BLOECHL correction:  0.000000
       DOS:  cpu time    0.0371: real time    0.0371
    --------------------------------------------
      LOOP:  cpu time   11.0895: real time   11.0903

 eigenvalue-minimisations  : 11408
 total energy-change (2. order) :-0.4092023E-01  (-0.4089009E-01)
 number of electron      32.0000000 magnetization 
 augmentation part       32.0000000 magnetization 

 Free energy of the ion-electron system (eV)
  ---------------------------------------------------
  alpha Z        PSCENC =       112.97064291
  Ewald energy   TEWEN  =     -1382.71057194
  -Hartree energ DENC   =       -72.54979902
  -exchange      EXHF   =         0.00000000
  -V(xc)+E(xc)   XCENC  =       113.97340159
  PAW double counting   =       302.65154477     -311.85538214
  entropy T*S    EENTRO =         0.00000000
  eigenvalues    EBANDS =       -14.34435384
  atomic energy  EATOM  =      1177.01779097
  Solvation  Ediel_sol  =         0.00000000
  ---------------------------------------------------
  free energy    TOTEN  =       -74.84672669 eV

  energy without entropy =      -74.84672669  energy(sigma->0) =      -74.84672669


--------------------------------------------------------------------------------------------------------




--------------------------------------- Iteration      1(   5)  ---------------------------------------


     EDDAV:  cpu time   11.2723: real time   11.2732
 BZINTS: Fermi energy:  8.196551; 32.000000 electrons
         Band energy: -14.345197;  BLOECHL correction:  0.000000
       DOS:  cpu time    0.0371: real time    0.0371
    CHARGE:  cpu time    0.3531: real time    0.3531
    MIXING:  cpu time    0.0017: real time    0.0017
    --------------------------------------------
      LOOP:  cpu time   11.6642: real time   11.6651

 eigenvalue-minimisations  : 11880
 total energy-change (2. order) :-0.8436062E-03  (-0.8431270E-03)
 number of electron      32.0000021 magnetization 
 augmentation part        0.7762580 magnetization 

 Broyden mixing:
  rms(total) = 0.93769E+00    rms(broyden)= 0.93750E+00
  rms(prec ) = 0.22123E+01
  weight for this iteration     100.00

 Free energy of the ion-electron system (eV)
  ---------------------------------------------------
  alpha Z        PSCENC =       112.97064291
  Ewald energy   TEWEN  =     -1382.71057194
  -Hartree energ DENC   =       -72.54979902
  -exchange      EXHF   =         0.00000000
  -V(xc)+E(xc)   XCENC  =       113.97340159
  PAW double counting   =       302.65154477     -311.85538214
  entropy T*S    EENTRO =         0.00000000
  eigenvalues    EBANDS =       -14.34519745
  atomic energy  EATOM  =      1177.01779097
  Solvation  Ediel_sol  =         0.00000000
  ---------------------------------------------------
  free energy    TOTEN  =       -74.84757030 eV

  energy without entropy =      -74.84757030  energy(sigma->0) =      -74.84757030


--------------------------------------------------------------------------------------------------------




--------------------------------------- Iteration      1(   6)  ---------------------------------------


    POTLOK:  cpu time    0.0212: real time    0.0216
    SETDIJ:  cpu time    0.0059: real time    0.0059
     EDDAV:  cpu time   10.1417: real time   10.1423
 BZINTS: Fermi energy:  8.821280; 32.000000 electrons
         Band energy:   1.723310;  BLOECHL correction:  0.000000
       DOS:  cpu time    0.0375: real time    0.0375
    CHARGE:  cpu time    0.2735: real time    0.2735
    MIXING:  cpu time    0.0019: real time    0.0019
    --------------------------------------------
      LOOP:  cpu time   10.4817: real time   10.4827

 eigenvalue-minimisations  : 10440
 total energy-change (2. order) : 0.1846944E+01  (-0.1239037E+00)
 number of electron      32.0000020 magnetization 
 augmentation part        0.7587066 magnetization 

 Broyden mixing:
  rms(total) = 0.51475E+00    rms(broyden)= 0.51473E+00
  rms(prec ) = 0.11964E+01
  weight for this iteration     100.00

 eigenvalues of (default mixing * dielectric matrix)
  average eigenvalue GAMMA=   2.1693
  2.1693

 Free energy of the ion-electron system (eV)
  ---------------------------------------------------
  alpha Z        PSCENC =       112.97064291
  Ewald energy   TEWEN  =     -1382.71057194
  -Hartree energ DENC   =       -87.65010609
  -exchange      EXHF   =         0.00000000
  -V(xc)+E(xc)   XCENC  =       115.37698881
  PAW double counting   =       391.35025489     -401.07893617
  entropy T*S    EENTRO =         0.00000000
  eigenvalues    EBANDS =         1.72331010
  atomic energy  EATOM  =      1177.01779097
  Solvation  Ediel_sol  =         0.00000000
  ---------------------------------------------------
  free energy    TOTEN  =       -73.00062652 eV

  energy without entropy =      -73.00062652  energy(sigma->0) =      -73.00062652


--------------------------------------------------------------------------------------------------------




--------------------------------------- Iteration      1(   7)  ---------------------------------------


    POTLOK:  cpu time    0.0213: real time    0.0216
    SETDIJ:  cpu time    0.0058: real time    0.0058
     EDDAV:  cpu time   10.4788: real time   10.4793
 BZINTS: Fermi energy:  9.645702; 32.000000 electrons
         Band energy:  20.266815;  BLOECHL correction:  0.000000
       DOS:  cpu time    0.0373: real time    0.0373
    CHARGE:  cpu time    0.2763: real time    0.2764
    MIXING:  cpu time    0.0022: real time    0.0022
    --------------------------------------------
      LOOP:  cpu time   10.8217: real time   10.8225

 eigenvalue-minimisations  : 10776
 total energy-change (2. order) : 0.6212123E+00  (-0.1418755E+00)
 number of electron      32.0000020 magnetization 
 augmentation part        0.7398899 magnetization 

 Broyden mixing:
  rms(total) = 0.70230E-01    rms(broyden)= 0.69892E-01
  rms(prec ) = 0.12301E+00
  weight for this iteration     100.00

 eigenvalues of (default mixing * dielectric matrix)
  average eigenvalue GAMMA=   2.2737
  2.0238  2.5236

 Free energy of the ion-electron system (eV)
  ---------------------------------------------------
  alpha Z        PSCENC =       112.97064291
  Ewald energy   TEWEN  =     -1382.71057194
  -Hartree energ DENC   =      -106.88575153
  -exchange      EXHF   =         0.00000000
  -V(xc)+E(xc)   XCENC  =       117.18749461
  PAW double counting   =       511.49362972     -521.71946380
  entropy T*S    EENTRO =         0.00000000
  eigenvalues    EBANDS =        20.26681486
  atomic energy  EATOM  =      1177.01779097
  Solvation  Ediel_sol  =         0.00000000
  ---------------------------------------------------
  free energy    TOTEN  =       -72.37941419 eV

  energy without entropy =      -72.37941419  energy(sigma->0) =      -72.37941419


--------------------------------------------------------------------------------------------------------




--------------------------------------- Iteration      1(   8)  ---------------------------------------


    POTLOK:  cpu time    0.0214: real time    0.0218
    SETDIJ:  cpu time    0.0058: real time    0.0058
     EDDAV:  cpu time   10.9339: real time   10.9344
 BZINTS: Fermi energy:  9.645885; 32.000000 electrons
         Band energy:  20.511612;  BLOECHL correction:  0.000000
       DOS:  cpu time    0.0371: real time    0.0371
    CHARGE:  cpu time    0.2595: real time    0.2595
    MIXING:  cpu time    0.0022: real time    0.0022
    --------------------------------------------
      LOOP:  cpu time   11.2598: real time   11.2607

 eigenvalue-minimisations  : 11360
 total energy-change (2. order) :-0.7716426E-02  (-0.3400434E-02)
 number of electron      32.0000020 magnetization 
 augmentation part        0.7403974 magnetization 

 Broyden mixing:
  rms(total) = 0.76079E-02    rms(broyden)= 0.75000E-02
  rms(prec ) = 0.12967E-01
  weight for this iteration     100.00

 eigenvalues of (default mixing * dielectric matrix)
  average eigenvalue GAMMA=   2.0591
  1.4094  2.6516  2.1162

 Free energy of the ion-electron system (eV)
  ---------------------------------------------------
  alpha Z        PSCENC =       112.97064291
  Ewald energy   TEWEN  =     -1382.71057194
  -Hartree energ DENC   =      -107.31248159
  -exchange      EXHF   =         0.00000000
  -V(xc)+E(xc)   XCENC  =       117.23265004
  PAW double counting   =       520.34435924     -530.44113249
[...]

 k-point   177 :       0.5000    0.4167    0.3333
  band No.  band energies     occupation 
      1      -7.6023      2.00000
      2      -6.9030      2.00000
      3      -5.8420      2.00000
      4      -5.7205      2.00000
      5      -3.2546      2.00000
      6      -3.1296      2.00000
      7      -2.3395      2.00000
      8      -2.1084      2.00000
      9       5.3410      2.00000
     10       5.4336      2.00000
     11       6.1253      2.00000
     12       6.1607      2.00000
     13       6.1886      2.00000
     14       6.6783      2.00000
     15       6.7251      2.00000
     16       7.2335      2.00000
     17      16.7579      0.00000
     18      16.9601      0.00000
     19      17.3184      0.00000
     20      18.0320      0.00000
     21      18.2784      0.00000
     22      18.4815      0.00000
     23      18.6124      0.00000
     24      18.6510      0.00000

 k-point   178 :      -0.4167    0.4167    0.3333
  band No.  band energies     occupation 
      1      -7.5720      2.00000
      2      -7.0301      2.00000
      3      -6.3105      2.00000
      4      -5.4640      2.00000
      5      -3.3590      2.00000
      6      -2.7584      2.00000
      7      -2.5288      2.00000
      8      -1.3192      2.00000
      9       5.0564      2.00000
     10       5.5539      2.00000
     11       6.0043      2.00000
     12       6.0385      2.00000
     13       6.1324      2.00000
     14       6.4554      2.00000
     15       6.7261      2.00000
     16       6.9694      2.00000
     17      16.5627      0.00000
     18      16.6594      0.00000
     19      16.9014      0.00000
     20      17.8485      0.00000
     21      18.2903      0.00000
     22      18.4800      0.00000
     23      18.6438      0.00000
     24      18.8518      0.00000

 k-point   179 :      -0.3333    0.4167    0.3333
  band No.  band energies     occupation 
      1      -8.1470      2.00000
      2      -6.7571      2.00000
      3      -6.4818      2.00000
      4      -5.5381      2.00000
      5      -2.9259      2.00000
      6      -2.9250      2.00000
      7      -1.7435      2.00000
      8      -0.4127      2.00000
      9       4.5111      2.00000
     10       5.2071      2.00000
     11       5.4800      2.00000
     12       5.7983      2.00000
     13       5.8013      2.00000
     14       6.2841      2.00000
     15       6.6460      2.00000
     16       6.9075      2.00000
     17      16.4111      0.00000
     18      16.4998      0.00000
     19      16.6421      0.00000
     20      17.6268      0.00000
     21      18.2912      0.00000
     22      18.3941      0.00000
     23      18.4307      0.00000
     24      18.9475      0.00000

 k-point   180 :       0.5000    0.5000    0.3333
  band No.  band energies     occupation 
      1      -7.1517      2.00000
      2      -6.4326      2.00000
      3      -6.3195      2.00000
      4      -6.3195      2.00000
      5      -2.8767      2.00000
      6      -2.7566      2.00000
      7      -2.7566      2.00000
      8      -2.6384      2.00000
      9       5.7062      2.00000
     10       5.7589      2.00000
     11       5.7589      2.00000
     12       6.4112      2.00000
     13       6.5337      2.00000
     14       6.5961      2.00000
     15       6.5961      2.00000
     16       7.1719      2.00000
     17      16.7746      0.00000
     18      16.7746      0.00000
     19      17.2976      0.00000
     20      18.2107      0.00000
     21      18.3439      0.00000
     22      18.3439      0.00000
     23      18.3572      0.00000
     24      18.5868      0.00000

 k-point   181 :      -0.4167    0.5000    0.3333
  band No.  band energies     occupation 
      1      -7.0047      2.00000
      2      -6.9426      2.00000
      3      -6.7205      2.00000
      4      -5.7367      2.00000
      5      -3.1903      2.00000
      6      -3.1665      2.00000
      7      -2.0191      2.00000
      8      -1.9532      2.00000
      9       5.2397      2.00000
     10       5.9657      2.00000
     11       6.0122      2.00000
     12       6.0246      2.00000
     13       6.3095      2.00000
     14       6.5606      2.00000
     15       6.6719      2.00000
     16       6.8148      2.00000
     17      16.6669      0.00000
     18      16.8523      0.00000
     19      17.0214      0.00000
     20      17.9640      0.00000
     21      18.1091      0.00000
     22      18.2113      0.00000
     23      18.4740      0.00000
     24      18.5904      0.00000

 k-point   182 :      -0.3333    0.5000    0.3333
  band No.  band energies     occupation 
      1      -7.4995      2.00000
      2      -7.4995      2.00000
      3      -6.4026      2.00000
      4      -5.3347      2.00000
      5      -3.2326      2.00000
      6      -3.1164      2.00000
      7      -1.1364      2.00000
      8      -1.1364      2.00000
      9       4.5342      2.00000
     10       5.3049      2.00000
     11       5.9389      2.00000
     12       6.1813      2.00000
     13       6.1813      2.00000
     14       6.3411      2.00000
     15       6.3741      2.00000
     16       6.3741      2.00000
     17      16.6370      0.00000
     18      16.6370      0.00000
     19      17.0417      0.00000
     20      17.6444      0.00000
     21      18.1228      0.00000
     22      18.4982      0.00000
     23      18.4983      0.00000
     24      19.0036      0.00000

 k-point   183 :      -0.4167   -0.4167    0.3333
  band No.  band energies     occupation 
      1      -7.6249      2.00000
      2      -6.5205      2.00000
      3      -6.2423      2.00000
      4      -6.2423      2.00000
      5      -3.2395      2.00000
      6      -2.5762      2.00000
      7      -2.5762      2.00000
      8      -1.2384      2.00000
      9       5.3811      2.00000
     10       5.3811      2.00000
     11       5.6592      2.00000
     12       6.2252      2.00000
     13       6.2252      2.00000
     14       6.4088      2.00000
     15       6.6543      2.00000
     16       6.8652      2.00000
     17      16.6813      0.00000
     18      16.6813      0.00000
     19      16.9004      0.00000
     20      17.7605      0.00000
     21      18.1588      0.00000
     22      18.1588      0.00000
     23      18.2852      0.00000
     24      18.3550      0.00000

 k-point   184 :       0.4167    0.4167    0.4167
  band No.  band energies     occupation 
      1      -7.7255      2.00000
      2      -5.8380      2.00000
      3      -5.8380      2.00000
      4      -5.8380      2.00000
      5      -3.3741      2.00000
      6      -3.3741      2.00000
      7      -3.3741      2.00000
      8      -2.4578      2.00000
      9       6.0264      2.00000
     10       6.0264      2.00000
     11       6.0264      2.00000
     12       6.2653      2.00000
     13       6.2653      2.00000
     14       6.2653      2.00000
     15       7.3878      2.00000
     16       7.3878      2.00000
     17      17.0141      0.00000
     18      17.0141      0.00000
     19      17.0141      0.00000
     20      18.1871      0.00000
     21      18.1871      0.00000
     22      18.2930      0.00000
     23      18.2930      0.00000
     24      18.2930      0.00000

 k-point   185 :       0.5000    0.4167    0.4167
  band No.  band energies     occupation 
      1      -7.2725      2.00000
      2      -6.4400      2.00000
      3      -5.6978      2.00000
      4      -5.6978      2.00000
      5      -3.5964      2.00000
      6      -3.5964      2.00000
      7      -2.9993      2.00000
      8      -2.8721      2.00000
      9       6.1023      2.00000
     10       6.1023      2.00000
     11       6.3417      2.00000
     12       6.3417      2.00000
     13       6.4605      2.00000
     14       6.6420      2.00000
     15       7.1740      2.00000
     16       7.2011      2.00000
     17      16.6864      0.00000
     18      16.9310      0.00000
     19      16.9310      0.00000
     20      18.0948      0.00000
     21      18.2074      0.00000
     22      18.4171      0.00000
     23      18.4173      0.00000
     24      18.4375      0.00000

 k-point   186 :      -0.4167    0.4167    0.4167
  band No.  band energies     occupation 
      1      -7.0659      2.00000
      2      -6.8391      2.00000
      3      -5.8944      2.00000
      4      -5.8944      2.00000
      5      -3.2911      2.00000
      6      -3.2680      2.00000
      7      -3.2680      2.00000
      8      -2.1291      2.00000
      9       5.9184      2.00000
     10       5.9184      2.00000
     11       6.2819      2.00000
     12       6.2819      2.00000
     13       6.5922      2.00000
     14       6.6664      2.00000
     15       6.7808      2.00000
     16       6.9212      2.00000
     17      16.6039      0.00000
     18      16.7565      0.00000
     19      16.7565      0.00000
     20      17.9575      0.00000
     21      18.2432      0.00000
     22      18.4017      0.00000
     23      18.4019      0.00000
     24      18.4245      0.00000

 k-point   187 :       0.5000    0.5000    0.4167
  band No.  band energies     occupation 
      1      -6.9587      2.00000
      2      -6.0136      2.00000
      3      -5.9732      2.00000
      4      -5.9732      2.00000
      5      -3.4269      2.00000
      6      -3.4269      2.00000
      7      -3.4148      2.00000
      8      -3.3855      2.00000
      9       6.3375      2.00000
     10       6.3375      2.00000
     11       6.4101      2.00000
     12       6.5304      2.00000
     13       6.6397      2.00000
     14       6.6397      2.00000
     15       7.0516      2.00000
     16       7.2515      2.00000
     17      16.6678      0.00000
     18      16.6678      0.00000
     19      16.8218      0.00000
     20      18.2438      0.00000
     21      18.2940      0.00000
     22      18.3251      0.00000
     23      18.3914      0.00000
     24      18.4036      0.00000

 k-point   188 :      -0.4167    0.5000    0.4167
  band No.  band energies     occupation 
      1      -6.7568      2.00000
      2      -6.4850      2.00000
      3      -6.4850      2.00000
      4      -5.6849      2.00000
      5      -3.5863      2.00000
      6      -3.4882      2.00000
      7      -2.8019      2.00000
      8      -2.8019      2.00000
      9       5.9429      2.00000
     10       6.4547      2.00000
     11       6.4547      2.00000
     12       6.4906      2.00000
     13       6.5664      2.00000
     14       6.5664      2.00000
     15       6.7008      2.00000
     16       7.0415      2.00000
     17      16.7028      0.00000
     18      16.7028      0.00000
     19      16.7345      0.00000
     20      18.1500      0.00000
     21      18.1712      0.00000
     22      18.3703      0.00000
     23      18.3761      0.00000
     24      18.4841      0.00000

 k-point   189 :       0.5000    0.5000    0.5000
  band No.  band energies     occupation 
      1      -6.8752      2.00000
      2      -5.8020      2.00000
      3      -5.8020      2.00000
      4      -5.8020      2.00000
      5      -3.7072      2.00000
      6      -3.7072      2.00000
      7      -3.7072      2.00000
      8      -3.6140      2.00000
      9       6.5323      2.00000
     10       6.5323      2.00000
     11       6.5323      2.00000
     12       6.6709      2.00000
     13       6.6709      2.00000
     14       6.6709      2.00000
     15       7.2797      2.00000
     16       7.2797      2.00000
     17      16.6215      0.00000
     18      16.6215      0.00000
     19      16.6215      0.00000
     20      18.2280      0.00000
     21      18.2287      0.00000
     22      18.2934      0.00000
     23      18.2935      0.00000
     24      18.2940      0.00000


--------------------------------------------------------------------------------------------------------


 soft charge-density along one line, spin component           1
         0         1         2         3         4         5         6         7         8         9
 total charge-density along one line
 
 pseudopotential strength for first ion, spin component:           1
  9.453  -0.004   0.000   0.000   0.000  -0.000  -0.000  -0.000
 -0.004  -0.002   0.000   0.000   0.000  -0.000  -0.000  -0.000
  0.000   0.000  -3.673  -0.000  -0.000  -0.008   0.000   0.000
  0.000   0.000  -0.000  -3.673  -0.000   0.000  -0.008   0.000
  0.000   0.000  -0.000  -0.000  -3.673   0.000   0.000  -0.008
 -0.000  -0.000  -0.008   0.000   0.000  -0.757  -0.000  -0.000
 -0.000  -0.000   0.000  -0.008   0.000  -0.000  -0.757  -0.000
 -0.000  -0.000   0.000   0.000  -0.008  -0.000  -0.000  -0.757
 total augmentation occupancy for first ion, spin component:           1
  1.424  -1.014   0.011   0.011   0.012   0.006   0.006   0.007
 -1.014   1.004  -0.033  -0.031  -0.034  -0.010  -0.010  -0.011
  0.011  -0.033   1.091  -0.025  -0.027   0.182  -0.004  -0.004
  0.011  -0.031  -0.025   1.093  -0.026  -0.004   0.182  -0.004
  0.012  -0.034  -0.027  -0.026   1.089  -0.004  -0.004   0.182
  0.006  -0.010   0.182  -0.004  -0.004   0.036  -0.001  -0.001
  0.006  -0.010  -0.004   0.182  -0.004  -0.001   0.036  -0.001
  0.007  -0.011  -0.004  -0.004   0.182  -0.001  -0.001   0.036


------------------------ aborting loop because EDIFF is reached ----------------------------------------


    CHARGE:  cpu time    0.2670: real time    0.2670
    FORLOC:  cpu time    0.0017: real time    0.0017
    FORNL :  cpu time    0.4465: real time    0.4465
    STRESS:  cpu time    1.0489: real time    1.0491
    FORHAR:  cpu time    0.0055: real time    0.0055
    MIXING:  cpu time    0.0023: real time    0.0023
    OFIELD:  cpu time    0.0001: real time    0.0001

  FORCE on cell =-STRESS in cart. coord.  units (eV):
  Direction    XX          YY          ZZ          XY          YZ          ZX
  --------------------------------------------------------------------------------------
  Alpha Z   112.97064   112.97064   112.97064
  Ewald    -462.55561  -460.84080  -459.31652   -21.41786   -19.80082   -20.60935
  Hartree    35.31020    35.78792    36.21256    -5.96669    -5.51620    -5.74145
  E(xc)    -119.27928  -119.27717  -119.27529    -0.02642    -0.02442    -0.02542
  Local     -46.40459   -48.45873   -50.28465    25.65602    23.71900    24.68752
  n-local   -27.51841   -27.89152   -27.61342     0.87950     1.28408     0.49485
  augment    -2.78601    -2.78606    -2.78610     0.00058     0.00054     0.00056
  Kinetic   502.24162   507.61758   514.76009    -5.06485    -8.32312    -1.77206
  Fock        0.00000     0.00000     0.00000     0.00000     0.00000     0.00000
  -------------------------------------------------------------------------------------
  Total      -2.55551    -2.05904    -1.61773    -6.20098    -5.73281    -5.96690
  in kB     -88.69966   -71.46744   -56.14991  -215.23098  -198.98117  -207.10614
  external pressure =      -72.11 kB  Pullay stress =        0.00 kB


 VOLUME and BASIS-vectors are now :
 -----------------------------------------------------------------------------
  energy-cutoff  :      400.00
  volume of cell :       46.16
      direct lattice vectors                 reciprocal lattice vectors
     3.589999359  0.000000000  0.000000000     0.278551582 -0.011150956 -0.010730013
     0.143599573  3.587126323  0.000000000     0.000000000  0.278774682 -0.010730012
     0.143599573  0.137966011  3.584472280     0.000000000  0.000000000  0.278981095

  length of vectors
     3.589999359  3.589999456  3.589999580     0.278981112  0.278981104  0.278981095


 FORCES acting on ions
    electron-ion (+dipol)            ewald-force                    non-local-force                 convergence-correction
 -----------------------------------------------------------------------------------------------
   0.723E+01 0.695E+01 0.669E+01   -.731E+01 -.702E+01 -.676E+01   0.104E+00 0.998E-01 0.960E-01   0.208E-04 0.200E-04 0.192E-04
   -.723E+01 -.695E+01 -.669E+01   0.731E+01 0.702E+01 0.676E+01   -.104E+00 -.998E-01 -.960E-01   -.208E-04 -.200E-04 -.192E-04
   0.723E+01 0.695E+01 0.669E+01   -.731E+01 -.702E+01 -.676E+01   0.104E+00 0.998E-01 0.960E-01   0.208E-04 0.200E-04 0.192E-04
   -.723E+01 -.695E+01 -.669E+01   0.731E+01 0.702E+01 0.676E+01   -.104E+00 -.998E-01 -.960E-01   -.208E-04 -.200E-04 -.192E-04
   0.723E+01 0.695E+01 0.669E+01   -.731E+01 -.702E+01 -.676E+01   0.104E+00 0.998E-01 0.960E-01   0.208E-04 0.200E-04 0.192E-04
   -.723E+01 -.695E+01 -.669E+01   0.731E+01 0.702E+01 0.676E+01   -.104E+00 -.998E-01 -.960E-01   -.208E-04 -.200E-04 -.192E-04
   0.723E+01 0.695E+01 0.669E+01   -.731E+01 -.702E+01 -.676E+01   0.104E+00 0.998E-01 0.960E-01   0.208E-04 0.200E-04 0.192E-04
   -.723E+01 -.695E+01 -.669E+01   0.731E+01 0.702E+01 0.676E+01   -.104E+00 -.998E-01 -.960E-01   -.208E-04 -.200E-04 -.192E-04
 -----------------------------------------------------------------------------------------------
   0.260E-12 0.152E-12 0.186E-12   0.266E-14 -.888E-15 -.178E-14   -.694E-16 -.833E-16 0.000E+00   0.132E-13 -.154E-14 0.467E-14
 
 
 POSITION                                       TOTAL-FORCE (eV/Angst)
 -----------------------------------------------------------------------------------
      1.04110      2.72484      0.89612         0.027368      0.026295      0.025302
      0.07180      0.06898      1.79224        -0.027368     -0.026295     -0.025302
      1.04110      1.00026      2.68835         0.027368      0.026295      0.025302
      0.07180      1.79356      0.00000        -0.027368     -0.026295     -0.025302
      2.90790      2.79382      2.68835         0.027368      0.026295      0.025302
      1.79500      0.00000      0.00000        -0.027368     -0.026295     -0.025302
      2.76430      0.93127      0.89612         0.027368      0.026295      0.025302
      1.93860      1.86255      1.79224        -0.027368     -0.026295     -0.025302
 -----------------------------------------------------------------------------------
    total drift:                                0.000000      0.000000      0.000000


--------------------------------------------------------------------------------------------------------



  FREE ENERGIE OF THE ION-ELECTRON SYSTEM (eV)
  ---------------------------------------------------
  free  energy   TOTEN  =       -72.38742633 eV

  energy  without entropy=      -72.38742633  energy(sigma->0) =      -72.38742633
 


--------------------------------------------------------------------------------------------------------


    POTLOK:  cpu time    0.0302: real time    0.0302


--------------------------------------------------------------------------------------------------------


     LOOP+:  cpu time  130.4345: real time  130.5667
    4ORBIT:  cpu time    0.0000: real time    0.0000
 BZINTS: Fermi energy:  9.638569; 32.000000 electrons
         Band energy:  20.501532;  BLOECHL correction:  0.000000

 total amount of memory used by VASP MPI-rank0    37803. kBytes
=======================================================================

   base      :      30000. kBytes
   nonl-proj :       2689. kBytes
   fftplans  :        346. kBytes
   grid      :        481. kBytes
   one-center:          6. kBytes
   wavefun   :       4281. kBytes
 
  
  
 General timing and accounting informations for this job:
 ========================================================
  
                  Total CPU time used (sec):      134.099
                            User time (sec):      130.022
                          System time (sec):        4.077
                         Elapsed time (sec):      134.366
  
                   Maximum memory used (kb):      193692.
                   Average memory used (kb):           0.
  
                          Minor page faults:        36893
                          Major page faults:           36
                 Voluntary context switches:          784
