   8   8   0   0
  0.6130545E+01  0.3696131E-09  0.3696131E-09  0.3589999E-09  0.2000000E-16
  1.000000000000000E-004
  CAR 
 unknown system                          
     21.53786024    -13.38637854  301      8.97241016      1.00000000
    -13.386  0.0000E+00  0.0000E+00
    -13.270  0.0000E+00  0.0000E+00
    -13.154  0.0000E+00  0.0000E+00
    -13.037  0.0000E+00  0.0000E+00
    -12.921  0.0000E+00  0.0000E+00
    -12.804  0.0000E+00  0.0000E+00
    -12.688  0.0000E+00  0.0000E+00
    -12.571  0.0000E+00  0.0000E+00
    -12.455  0.0000E+00  0.0000E+00
    -12.339  0.0000E+00  0.0000E+00
    -12.222  0.0000E+00  0.0000E+00
    -12.106  0.0000E+00  0.0000E+00
    -11.989  0.0000E+00  0.0000E+00
    -11.873  0.0000E+00  0.0000E+00
    -11.757  0.3699E-01  0.5220E-03
    -11.640  0.1623E+00  0.1506E-01
    -11.524  0.2541E+00  0.3934E-01
    -11.407  0.2879E+00  0.7055E-01
    -11.291  0.3382E+00  0.1070E+00
    -11.175  0.3801E+00  0.1493E+00
    -11.058  0.4110E+00  0.1952E+00
    -10.942  0.4444E+00  0.2449E+00
    -10.825  0.4845E+00  0.2990E+00
    -10.709  0.5090E+00  0.3569E+00
    -10.592  0.5337E+00  0.4176E+00
    -10.476  0.5616E+00  0.4813E+00
    -10.360  0.5918E+00  0.5485E+00
    -10.243  0.6184E+00  0.6190E+00
    -10.127  0.6404E+00  0.6923E+00
    -10.010  0.6622E+00  0.7681E+00
     -9.894  0.6855E+00  0.8466E+00
     -9.778  0.7101E+00  0.9278E+00
     -9.661  0.7363E+00  0.1012E+01
     -9.545  0.7580E+00  0.1099E+01
     -9.428  0.7771E+00  0.1188E+01
     -9.312  0.7970E+00  0.1280E+01
     -9.195  0.8187E+00  0.1374E+01
     -9.079  0.8412E+00  0.1471E+01
     -8.963  0.8647E+00  0.1570E+01
     -8.846  0.8864E+00  0.1672E+01
     -8.730  0.9069E+00  0.1776E+01
     -8.613  0.9264E+00  0.1883E+01
     -8.497  0.9473E+00  0.1992E+01
     -8.381  0.9690E+00  0.2104E+01
     -8.264  0.9914E+00  0.2218E+01
     -8.148  0.1040E+01  0.2336E+01
     -8.031  0.1091E+01  0.2460E+01
     -7.915  0.1136E+01  0.2590E+01
     -7.799  0.1168E+01  0.2725E+01
     -7.682  0.1158E+01  0.2861E+01
     -7.566  0.1131E+01  0.2994E+01
     -7.449  0.1121E+01  0.3125E+01
     -7.333  0.1148E+01  0.3257E+01
     -7.216  0.1153E+01  0.3391E+01
     -7.100  0.1166E+01  0.3525E+01
     -6.984  0.1218E+01  0.3664E+01
     -6.867  0.1294E+01  0.3809E+01
     -6.751  0.1364E+01  0.3964E+01
     -6.634  0.1482E+01  0.4129E+01
     -6.518  0.1631E+01  0.4308E+01
     -6.402  0.1732E+01  0.4506E+01
     -6.285  0.1635E+01  0.4702E+01
     -6.169  0.1655E+01  0.4894E+01
     -6.052  0.1567E+01  0.5085E+01
     -5.936  0.1510E+01  0.5262E+01
     -5.819  0.1498E+01  0.5436E+01
     -5.703  0.1508E+01  0.5611E+01
     -5.587  0.1407E+01  0.5780E+01
     -5.470  0.1371E+01  0.5944E+01
     -5.354  0.1305E+01  0.6099E+01
     -5.237  0.1282E+01  0.6250E+01
     -5.121  0.1282E+01  0.6398E+01
     -5.005  0.1237E+01  0.6544E+01
     -4.888  0.1193E+01  0.6683E+01
     -4.772  0.1137E+01  0.6817E+01
     -4.655  0.1090E+01  0.6948E+01
     -4.539  0.1056E+01  0.7073E+01
     -4.422  0.1041E+01  0.7194E+01
     -4.306  0.1017E+01  0.7314E+01
     -4.190  0.9682E+00  0.7430E+01
     -4.073  0.8933E+00  0.7539E+01
     -3.957  0.8046E+00  0.7638E+01
     -3.840  0.7259E+00  0.7727E+01
     -3.724  0.8507E+00  0.7814E+01
     -3.608  0.8049E+00  0.7915E+01
     -3.491  0.8700E+00  0.8012E+01
     -3.375  0.8282E+00  0.8111E+01
     -3.258  0.8105E+00  0.8207E+01
     -3.142  0.9493E+00  0.8308E+01
     -3.026  0.1035E+01  0.8423E+01
     -2.909  0.1152E+01  0.8550E+01
     -2.793  0.1342E+01  0.8694E+01
     -2.676  0.1620E+01  0.8867E+01
     -2.560  0.1905E+01  0.9072E+01
     -2.443  0.2316E+01  0.9317E+01
     -2.327  0.3204E+01  0.9640E+01
     -2.211  0.3139E+01  0.1001E+02
     -2.094  0.2531E+01  0.1033E+02
     -1.978  0.2107E+01  0.1060E+02
     -1.861  0.1877E+01  0.1083E+02
     -1.745  0.1741E+01  0.1104E+02
     -1.629  0.1630E+01  0.1124E+02
     -1.512  0.1550E+01  0.1142E+02
     -1.396  0.1515E+01  0.1160E+02
     -1.279  0.1491E+01  0.1178E+02
     -1.163  0.1435E+01  0.1195E+02
     -1.046  0.1289E+01  0.1211E+02
     -0.930  0.1221E+01  0.1225E+02
     -0.814  0.1183E+01  0.1239E+02
     -0.697  0.1145E+01  0.1253E+02
     -0.581  0.1121E+01  0.1266E+02
     -0.464  0.1100E+01  0.1279E+02
     -0.348  0.1061E+01  0.1292E+02
     -0.232  0.9839E+00  0.1303E+02
     -0.115  0.1012E+01  0.1315E+02
      0.001  0.1202E+01  0.1328E+02
      0.118  0.1369E+01  0.1343E+02
      0.234  0.1521E+01  0.1360E+02
      0.350  0.1688E+01  0.1378E+02
      0.467  0.2014E+01  0.1400E+02
      0.583  0.2427E+01  0.1426E+02
      0.700  0.2451E+01  0.1455E+02
      0.816  0.2462E+01  0.1483E+02
      0.933  0.2359E+01  0.1512E+02
      1.049  0.2095E+01  0.1538E+02
      1.165  0.1651E+01  0.1560E+02
      1.282  0.1535E+01  0.1578E+02
      1.398  0.1845E+01  0.1597E+02
      1.515  0.2077E+01  0.1620E+02
      1.631  0.2307E+01  0.1646E+02
      1.747  0.2512E+01  0.1674E+02
      1.864  0.2512E+01  0.1703E+02
      1.980  0.2445E+01  0.1732E+02
      2.097  0.2392E+01  0.1761E+02
      2.213  0.2446E+01  0.1788E+02
      2.330  0.2782E+01  0.1819E+02
      2.446  0.3348E+01  0.1854E+02
      2.562  0.3254E+01  0.1894E+02
      2.679  0.2767E+01  0.1929E+02
      2.795  0.2582E+01  0.1959E+02
      2.912  0.2517E+01  0.1990E+02
      3.028  0.2982E+01  0.2021E+02
      3.144  0.3507E+01  0.2059E+02
      3.261  0.3925E+01  0.2103E+02
      3.377  0.3624E+01  0.2148E+02
      3.494  0.3393E+01  0.2190E+02
      3.610  0.3106E+01  0.2228E+02
      3.726  0.2806E+01  0.2262E+02
      3.843  0.2889E+01  0.2294E+02
      3.959  0.3137E+01  0.2330E+02
      4.076  0.2963E+01  0.2365E+02
      4.192  0.3213E+01  0.2402E+02
      4.309  0.3181E+01  0.2439E+02
      4.425  0.3121E+01  0.2475E+02
      4.541  0.3205E+01  0.2512E+02
      4.658  0.3247E+01  0.2550E+02
      4.774  0.2981E+01  0.2587E+02
      4.891  0.2695E+01  0.2620E+02
      5.007  0.2599E+01  0.2650E+02
      5.123  0.2621E+01  0.2681E+02
      5.240  0.2740E+01  0.2712E+02
      5.356  0.2803E+01  0.2744E+02
      5.473  0.2975E+01  0.2778E+02
      5.589  0.2822E+01  0.2812E+02
      5.706  0.2873E+01  0.2845E+02
      5.822  0.2685E+01  0.2877E+02
      5.938  0.2584E+01  0.2908E+02
      6.055  0.2369E+01  0.2937E+02
      6.171  0.2332E+01  0.2964E+02
      6.288  0.1986E+01  0.2992E+02
      6.404  0.1752E+01  0.3014E+02
      6.520  0.1605E+01  0.3033E+02
      6.637  0.1468E+01  0.3051E+02
      6.753  0.1351E+01  0.3067E+02
      6.870  0.1269E+01  0.3083E+02
      6.986  0.1170E+01  0.3097E+02
      7.103  0.1073E+01  0.3110E+02
      7.219  0.9951E+00  0.3122E+02
      7.335  0.8991E+00  0.3133E+02
      7.452  0.8314E+00  0.3143E+02
      7.568  0.7836E+00  0.3152E+02
      7.685  0.6907E+00  0.3161E+02
      7.801  0.6333E+00  0.3169E+02
      7.917  0.5522E+00  0.3175E+02
      8.034  0.4960E+00  0.3182E+02
      8.150  0.4046E+00  0.3187E+02
      8.267  0.3377E+00  0.3191E+02
      8.383  0.2698E+00  0.3195E+02
      8.499  0.1510E+00  0.3197E+02
      8.616  0.9311E-01  0.3199E+02
      8.732  0.7143E-01  0.3200E+02
      8.849  0.9671E-02  0.3200E+02
      8.965  0.0000E+00  0.3200E+02
      9.082  0.0000E+00  0.3200E+02
      9.198  0.0000E+00  0.3200E+02
      9.314  0.0000E+00  0.3200E+02
      9.431  0.0000E+00  0.3200E+02
      9.547  0.0000E+00  0.3200E+02
      9.664  0.0000E+00  0.3200E+02
      9.780  0.0000E+00  0.3200E+02
      9.896  0.0000E+00  0.3200E+02
     10.013  0.0000E+00  0.3200E+02
     10.129  0.0000E+00  0.3200E+02
     10.246  0.0000E+00  0.3200E+02
     10.362  0.0000E+00  0.3200E+02
     10.479  0.0000E+00  0.3200E+02
     10.595  0.0000E+00  0.3200E+02
     10.711  0.0000E+00  0.3200E+02
     10.828  0.0000E+00  0.3200E+02
     10.944  0.0000E+00  0.3200E+02
     11.061  0.0000E+00  0.3200E+02
     11.177  0.0000E+00  0.3200E+02
     11.293  0.0000E+00  0.3200E+02
     11.410  0.0000E+00  0.3200E+02
     11.526  0.0000E+00  0.3200E+02
     11.643  0.0000E+00  0.3200E+02
     11.759  0.0000E+00  0.3200E+02
     11.875  0.0000E+00  0.3200E+02
     11.992  0.0000E+00  0.3200E+02
     12.108  0.0000E+00  0.3200E+02
     12.225  0.3129E-02  0.3200E+02
     12.341  0.4534E-01  0.3200E+02
     12.458  0.1139E+00  0.3201E+02
     12.574  0.1669E+00  0.3203E+02
     12.690  0.1878E+00  0.3205E+02
     12.807  0.2270E+00  0.3207E+02
     12.923  0.3339E+00  0.3210E+02
     13.040  0.4839E+00  0.3215E+02
     13.156  0.6801E+00  0.3222E+02
     13.272  0.7523E+00  0.3231E+02
     13.389  0.8637E+00  0.3240E+02
     13.505  0.9377E+00  0.3251E+02
     13.622  0.1089E+01  0.3263E+02
     13.738  0.1293E+01  0.3277E+02
     13.855  0.1610E+01  0.3293E+02
     13.971  0.1739E+01  0.3314E+02
     14.087  0.1627E+01  0.3334E+02
     14.204  0.1723E+01  0.3353E+02
     14.320  0.1848E+01  0.3374E+02
     14.437  0.1885E+01  0.3396E+02
     14.553  0.2027E+01  0.3418E+02
     14.669  0.2265E+01  0.3443E+02
     14.786  0.2278E+01  0.3469E+02
     14.902  0.2327E+01  0.3496E+02
     15.019  0.2470E+01  0.3524E+02
     15.135  0.2418E+01  0.3552E+02
     15.251  0.2482E+01  0.3581E+02
     15.368  0.2614E+01  0.3610E+02
     15.484  0.2756E+01  0.3642E+02
     15.601  0.2906E+01  0.3675E+02
     15.717  0.3091E+01  0.3710E+02
     15.834  0.3290E+01  0.3747E+02
     15.950  0.3446E+01  0.3787E+02
     16.066  0.3766E+01  0.3829E+02
     16.183  0.4527E+01  0.3877E+02
     16.299  0.4999E+01  0.3934E+02
     16.416  0.4673E+01  0.3994E+02
     16.532  0.3968E+01  0.4043E+02
     16.648  0.3834E+01  0.4090E+02
     16.765  0.3946E+01  0.4135E+02
     16.881  0.3896E+01  0.4181E+02
     16.998  0.4024E+01  0.4227E+02
     17.114  0.4020E+01  0.4274E+02
     17.231  0.3823E+01  0.4320E+02
     17.347  0.3540E+01  0.4363E+02
     17.463  0.3375E+01  0.4403E+02
     17.580  0.3096E+01  0.4441E+02
     17.696  0.2865E+01  0.4476E+02
     17.813  0.2704E+01  0.4508E+02
     17.929  0.2756E+01  0.4540E+02
     18.045  0.2834E+01  0.4572E+02
     18.162  0.2831E+01  0.4605E+02
     18.278  0.2767E+01  0.4638E+02
     18.395  0.2633E+01  0.4669E+02
     18.511  0.2654E+01  0.4700E+02
     18.628  0.2353E+01  0.4729E+02
     18.744  0.1702E+01  0.4753E+02
     18.860  0.1143E+01  0.4769E+02
     18.977  0.7644E+00  0.4780E+02
     19.093  0.5287E+00  0.4788E+02
     19.210  0.3246E+00  0.4793E+02
     19.326  0.2154E+00  0.4796E+02
     19.442  0.1232E+00  0.4798E+02
     19.559  0.7053E-01  0.4799E+02
     19.675  0.4332E-01  0.4800E+02
     19.792  0.1469E-01  0.4800E+02
     19.908  0.1045E-02  0.4800E+02
     20.024  0.0000E+00  0.4800E+02
     20.141  0.0000E+00  0.4800E+02
     20.257  0.0000E+00  0.4800E+02
     20.374  0.0000E+00  0.4800E+02
     20.490  0.0000E+00  0.4800E+02
     20.607  0.0000E+00  0.4800E+02
     20.723  0.0000E+00  0.4800E+02
     20.839  0.0000E+00  0.4800E+02
     20.956  0.0000E+00  0.4800E+02
     21.072  0.0000E+00  0.4800E+02
     21.189  0.0000E+00  0.4800E+02
     21.305  0.0000E+00  0.4800E+02
     21.421  0.0000E+00  0.4800E+02
     21.538  0.0000E+00  0.4800E+02
