<?xml version="1.0" encoding="ISO-8859-1"?>
<modeling>
 <generator>
  <i name="program" type="string">vasp </i>
  <i name="version" type="string">5.4.4.18Apr17-6-g9f103f2a35  </i>
  <i name="subversion" type="string">(build Mar 12 2022 03:36:41) complex            parallel </i>
  <i name="platform" type="string">IFC19.0.3.199_CrayMPICH7.7.19 </i>
  <i name="date" type="string">2022 12 01 </i>
  <i name="time" type="string">10:29:40 </i>
 </generator>
 <incar>
  <i type="int" name="ISTART">     0</i>
  <i type="string" name="PREC">accurate</i>
  <i name="EDIFF">      0.00000100</i>
  <i name="POTIM">      0.02000000</i>
  <i type="int" name="ISMEAR">    -5</i>
  <i name="SIGMA">      0.06000000</i>
  <i type="logical" name="LWAVE"> F  </i>
  <i type="logical" name="LCHARG"> F  </i>
  <v type="int" name="KPOINT_BSE">    -1     0     0     0</v>
 </incar>
 <structure name="primitive_cell" >
  <crystal>
   <varray name="basis" >
    <v>       1.84806546       0.00000000       1.79499968 </v>
    <v>      -1.84806546       0.00000000       1.79499968 </v>
    <v>       0.00000000      -1.84806546      -1.79499968 </v>
   </varray>
   <i name="volume">     12.26108977 </i>
   <varray name="rec_basis" >
    <v>       0.27055319      -0.27055319       0.27855158 </v>
    <v>      -0.27055319      -0.27055319       0.27855158 </v>
    <v>       0.00000000      -0.54110637       0.00000000 </v>
   </varray>
  </crystal>
  <varray name="positions" >
   <v>      -0.25000000       0.25000000      -0.50000000 </v>
   <v>      -0.50000000      -0.50000000       0.00000000 </v>
  </varray>
 </structure>
 <varray name="primitive_index" >
  <v type="int" >        1 </v>
  <v type="int" >        2 </v>
 </varray>
 <kpoints>
  <generation param="Gamma">
   <v type="int" name="divisions">      12       12       12 </v>
   <v name="usershift">      0.00000000       0.00000000       0.00000000 </v>
   <v name="genvec1">      0.08333333       0.00000000       0.00000000 </v>
   <v name="genvec2">      0.00000000       0.08333333       0.00000000 </v>
   <v name="genvec3">      0.00000000       0.00000000       0.08333333 </v>
   <v name="shift">      0.00000000       0.00000000       0.00000000 </v>
  </generation>
  <varray name="kpointlist" >
   <v>       0.00000000       0.00000000       0.00000000 </v>
   <v>       0.08333333       0.00000000       0.00000000 </v>
   <v>       0.16666667       0.00000000       0.00000000 </v>
   <v>       0.25000000       0.00000000       0.00000000 </v>
   <v>       0.33333333       0.00000000       0.00000000 </v>
   <v>       0.41666667       0.00000000       0.00000000 </v>
   <v>       0.50000000       0.00000000       0.00000000 </v>
   <v>       0.08333333       0.08333333       0.00000000 </v>
   <v>       0.16666667       0.08333333       0.00000000 </v>
   <v>       0.25000000       0.08333333       0.00000000 </v>
   <v>       0.33333333       0.08333333       0.00000000 </v>
   <v>       0.41666667       0.08333333       0.00000000 </v>
   <v>       0.50000000       0.08333333       0.00000000 </v>
   <v>       0.16666667       0.16666667       0.00000000 </v>
   <v>       0.25000000       0.16666667       0.00000000 </v>
   <v>       0.33333333       0.16666667       0.00000000 </v>
   <v>       0.41666667       0.16666667       0.00000000 </v>
   <v>       0.50000000       0.16666667       0.00000000 </v>
   <v>       0.25000000       0.25000000       0.00000000 </v>
   <v>       0.33333333       0.25000000       0.00000000 </v>
   <v>       0.41666667       0.25000000       0.00000000 </v>
   <v>       0.50000000       0.25000000       0.00000000 </v>
   <v>       0.33333333       0.33333333       0.00000000 </v>
   <v>       0.41666667       0.33333333       0.00000000 </v>
   <v>       0.50000000       0.33333333       0.00000000 </v>
   <v>       0.41666667       0.41666667       0.00000000 </v>
   <v>       0.50000000       0.41666667       0.00000000 </v>
   <v>       0.50000000       0.50000000       0.00000000 </v>
   <v>       0.00000000       0.00000000       0.08333333 </v>
   <v>       0.08333333       0.00000000       0.08333333 </v>
   <v>       0.16666667       0.00000000       0.08333333 </v>
   <v>       0.25000000       0.00000000       0.08333333 </v>
   <v>       0.33333333       0.00000000       0.08333333 </v>
   <v>       0.41666667       0.00000000       0.08333333 </v>
   <v>       0.50000000       0.00000000       0.08333333 </v>
   <v>       0.08333333       0.08333333       0.08333333 </v>
   <v>       0.16666667       0.08333333       0.08333333 </v>
   <v>       0.25000000       0.08333333       0.08333333 </v>
   <v>       0.33333333       0.08333333       0.08333333 </v>
   <v>       0.41666667       0.08333333       0.08333333 </v>
   <v>       0.50000000       0.08333333       0.08333333 </v>
   <v>       0.16666667       0.16666667       0.08333333 </v>
   <v>       0.25000000       0.16666667       0.08333333 </v>
   <v>       0.33333333       0.16666667       0.08333333 </v>
   <v>       0.41666667       0.16666667       0.08333333 </v>
   <v>       0.50000000       0.16666667       0.08333333 </v>
   <v>       0.25000000       0.25000000       0.08333333 </v>
   <v>       0.33333333       0.25000000       0.08333333 </v>
   <v>       0.41666667       0.25000000       0.08333333 </v>
   <v>       0.50000000       0.25000000       0.08333333 </v>
   <v>       0.33333333       0.33333333       0.08333333 </v>
   <v>       0.41666667       0.33333333       0.08333333 </v>
   <v>       0.50000000       0.33333333       0.08333333 </v>
   <v>       0.41666667       0.41666667       0.08333333 </v>
   <v>       0.50000000       0.41666667       0.08333333 </v>
   <v>       0.50000000       0.50000000       0.08333333 </v>
   <v>       0.00000000       0.00000000       0.16666667 </v>
   <v>       0.08333333       0.00000000       0.16666667 </v>
   <v>       0.16666667       0.00000000       0.16666667 </v>
   <v>       0.25000000       0.00000000       0.16666667 </v>
   <v>       0.33333333       0.00000000       0.16666667 </v>
   <v>       0.41666667       0.00000000       0.16666667 </v>
   <v>       0.50000000       0.00000000       0.16666667 </v>
   <v>       0.08333333       0.08333333       0.16666667 </v>
   <v>       0.16666667       0.08333333       0.16666667 </v>
   <v>       0.25000000       0.08333333       0.16666667 </v>
   <v>       0.33333333       0.08333333       0.16666667 </v>
   <v>       0.41666667       0.08333333       0.16666667 </v>
   <v>       0.50000000       0.08333333       0.16666667 </v>
   <v>       0.16666667       0.16666667       0.16666667 </v>
   <v>       0.25000000       0.16666667       0.16666667 </v>
   <v>       0.33333333       0.16666667       0.16666667 </v>
   <v>       0.41666667       0.16666667       0.16666667 </v>
   <v>       0.50000000       0.16666667       0.16666667 </v>
   <v>       0.25000000       0.25000000       0.16666667 </v>
   <v>       0.33333333       0.25000000       0.16666667 </v>
   <v>       0.41666667       0.25000000       0.16666667 </v>
   <v>       0.50000000       0.25000000       0.16666667 </v>
   <v>       0.33333333       0.33333333       0.16666667 </v>
   <v>       0.41666667       0.33333333       0.16666667 </v>
   <v>       0.50000000       0.33333333       0.16666667 </v>
   <v>       0.41666667       0.41666667       0.16666667 </v>
   <v>       0.50000000       0.41666667       0.16666667 </v>
   <v>       0.50000000       0.50000000       0.16666667 </v>
   <v>       0.00000000       0.00000000       0.25000000 </v>
   <v>       0.08333333       0.00000000       0.25000000 </v>
   <v>       0.16666667       0.00000000       0.25000000 </v>
   <v>       0.25000000       0.00000000       0.25000000 </v>
   <v>       0.33333333       0.00000000       0.25000000 </v>
   <v>       0.41666667       0.00000000       0.25000000 </v>
   <v>       0.50000000       0.00000000       0.25000000 </v>
   <v>       0.08333333       0.08333333       0.25000000 </v>
   <v>       0.16666667       0.08333333       0.25000000 </v>
   <v>       0.25000000       0.08333333       0.25000000 </v>
   <v>       0.33333333       0.08333333       0.25000000 </v>
   <v>       0.41666667       0.08333333       0.25000000 </v>
   <v>       0.50000000       0.08333333       0.25000000 </v>
   <v>       0.16666667       0.16666667       0.25000000 </v>
   <v>       0.25000000       0.16666667       0.25000000 </v>
   <v>       0.33333333       0.16666667       0.25000000 </v>
   <v>       0.41666667       0.16666667       0.25000000 </v>
   <v>       0.50000000       0.16666667       0.25000000 </v>
   <v>       0.25000000       0.25000000       0.25000000 </v>
   <v>       0.33333333       0.25000000       0.25000000 </v>
   <v>       0.41666667       0.25000000       0.25000000 </v>
   <v>       0.50000000       0.25000000       0.25000000 </v>
   <v>       0.33333333       0.33333333       0.25000000 </v>
   <v>       0.41666667       0.33333333       0.25000000 </v>
   <v>       0.50000000       0.33333333       0.25000000 </v>
   <v>       0.41666667       0.41666667       0.25000000 </v>
   <v>       0.50000000       0.41666667       0.25000000 </v>
   <v>       0.50000000       0.50000000       0.25000000 </v>
   <v>       0.00000000       0.00000000       0.33333333 </v>
   <v>       0.08333333       0.00000000       0.33333333 </v>
   <v>       0.16666667       0.00000000       0.33333333 </v>
   <v>       0.25000000       0.00000000       0.33333333 </v>
   <v>       0.33333333       0.00000000       0.33333333 </v>
   <v>       0.41666667       0.00000000       0.33333333 </v>
   <v>       0.50000000       0.00000000       0.33333333 </v>
   <v>       0.08333333       0.08333333       0.33333333 </v>
   <v>       0.16666667       0.08333333       0.33333333 </v>
   <v>       0.25000000       0.08333333       0.33333333 </v>
   <v>       0.33333333       0.08333333       0.33333333 </v>
   <v>       0.41666667       0.08333333       0.33333333 </v>
   <v>       0.50000000       0.08333333       0.33333333 </v>
   <v>       0.16666667       0.16666667       0.33333333 </v>
   <v>       0.25000000       0.16666667       0.33333333 </v>
   <v>       0.33333333       0.16666667       0.33333333 </v>
   <v>       0.41666667       0.16666667       0.33333333 </v>
   <v>       0.50000000       0.16666667       0.33333333 </v>
   <v>       0.25000000       0.25000000       0.33333333 </v>
   <v>       0.33333333       0.25000000       0.33333333 </v>
   <v>       0.41666667       0.25000000       0.33333333 </v>
   <v>       0.50000000       0.25000000       0.33333333 </v>
   <v>       0.33333333       0.33333333       0.33333333 </v>
   <v>       0.41666667       0.33333333       0.33333333 </v>
   <v>       0.50000000       0.33333333       0.33333333 </v>
   <v>       0.41666667       0.41666667       0.33333333 </v>
   <v>       0.50000000       0.41666667       0.33333333 </v>
   <v>       0.50000000       0.50000000       0.33333333 </v>
   <v>       0.00000000       0.00000000       0.41666667 </v>
   <v>       0.08333333       0.00000000       0.41666667 </v>
   <v>       0.16666667       0.00000000       0.41666667 </v>
   <v>       0.25000000       0.00000000       0.41666667 </v>
   <v>       0.33333333       0.00000000       0.41666667 </v>
   <v>       0.41666667       0.00000000       0.41666667 </v>
   <v>       0.50000000       0.00000000       0.41666667 </v>
   <v>       0.08333333       0.08333333       0.41666667 </v>
   <v>       0.16666667       0.08333333       0.41666667 </v>
   <v>       0.25000000       0.08333333       0.41666667 </v>
   <v>       0.33333333       0.08333333       0.41666667 </v>
   <v>       0.41666667       0.08333333       0.41666667 </v>
   <v>       0.50000000       0.08333333       0.41666667 </v>
   <v>       0.16666667       0.16666667       0.41666667 </v>
   <v>       0.25000000       0.16666667       0.41666667 </v>
   <v>       0.33333333       0.16666667       0.41666667 </v>
   <v>       0.41666667       0.16666667       0.41666667 </v>
   <v>       0.50000000       0.16666667       0.41666667 </v>
   <v>       0.25000000       0.25000000       0.41666667 </v>
   <v>       0.33333333       0.25000000       0.41666667 </v>
   <v>       0.41666667       0.25000000       0.41666667 </v>
   <v>       0.50000000       0.25000000       0.41666667 </v>
   <v>       0.33333333       0.33333333       0.41666667 </v>
   <v>       0.41666667       0.33333333       0.41666667 </v>
   <v>       0.50000000       0.33333333       0.41666667 </v>
   <v>       0.41666667       0.41666667       0.41666667 </v>
   <v>       0.50000000       0.41666667       0.41666667 </v>
   <v>       0.50000000       0.50000000       0.41666667 </v>
   <v>       0.00000000       0.00000000       0.50000000 </v>
   <v>       0.08333333       0.00000000       0.50000000 </v>
   <v>       0.16666667       0.00000000       0.50000000 </v>
   <v>       0.25000000       0.00000000       0.50000000 </v>
   <v>       0.33333333       0.00000000       0.50000000 </v>
   <v>       0.41666667       0.00000000       0.50000000 </v>
   <v>       0.50000000       0.00000000       0.50000000 </v>
   <v>       0.08333333       0.08333333       0.50000000 </v>
   <v>       0.16666667       0.08333333       0.50000000 </v>
   <v>       0.25000000       0.08333333       0.50000000 </v>
   <v>       0.33333333       0.08333333       0.50000000 </v>
   <v>       0.41666667       0.08333333       0.50000000 </v>
   <v>       0.50000000       0.08333333       0.50000000 </v>
   <v>       0.16666667       0.16666667       0.50000000 </v>
   <v>       0.25000000       0.16666667       0.50000000 </v>
   <v>       0.33333333       0.16666667       0.50000000 </v>
   <v>       0.41666667       0.16666667       0.50000000 </v>
   <v>       0.50000000       0.16666667       0.50000000 </v>
   <v>       0.25000000       0.25000000       0.50000000 </v>
   <v>       0.33333333       0.25000000       0.50000000 </v>
   <v>       0.41666667       0.25000000       0.50000000 </v>
   <v>       0.50000000       0.25000000       0.50000000 </v>
   <v>       0.33333333       0.33333333       0.50000000 </v>
   <v>       0.41666667       0.33333333       0.50000000 </v>
   <v>       0.50000000       0.33333333       0.50000000 </v>
   <v>       0.41666667       0.41666667       0.50000000 </v>
   <v>       0.50000000       0.41666667       0.50000000 </v>
   <v>       0.50000000       0.50000000       0.50000000 </v>
  </varray>
  <varray name="weights" >
   <v>       0.00057870 </v>
   <v>       0.00231481 </v>
   <v>       0.00231481 </v>
   <v>       0.00231481 </v>
   <v>       0.00231481 </v>
   <v>       0.00231481 </v>
   <v>       0.00115741 </v>
   <v>       0.00231481 </v>
   <v>       0.00462963 </v>
   <v>       0.00462963 </v>
   <v>       0.00462963 </v>
   <v>       0.00462963 </v>
   <v>       0.00231481 </v>
   <v>       0.00231481 </v>
   <v>       0.00462963 </v>
   <v>       0.00462963 </v>
   <v>       0.00462963 </v>
   <v>       0.00231481 </v>
   <v>       0.00231481 </v>
   <v>       0.00462963 </v>
   <v>       0.00462963 </v>
   <v>       0.00231481 </v>
   <v>       0.00231481 </v>
   <v>       0.00462963 </v>
   <v>       0.00231481 </v>
   <v>       0.00231481 </v>
   <v>       0.00231481 </v>
   <v>       0.00057870 </v>
   <v>       0.00115741 </v>
   <v>       0.00462963 </v>
   <v>       0.00462963 </v>
   <v>       0.00462963 </v>
   <v>       0.00462963 </v>
   <v>       0.00462963 </v>
   <v>       0.00231481 </v>
   <v>       0.00462963 </v>
   <v>       0.00925926 </v>
   <v>       0.00925926 </v>
   <v>       0.00925926 </v>
   <v>       0.00925926 </v>
   <v>       0.00462963 </v>
   <v>       0.00462963 </v>
   <v>       0.00925926 </v>
   <v>       0.00925926 </v>
   <v>       0.00925926 </v>
   <v>       0.00462963 </v>
   <v>       0.00462963 </v>
   <v>       0.00925926 </v>
   <v>       0.00925926 </v>
   <v>       0.00462963 </v>
   <v>       0.00462963 </v>
   <v>       0.00925926 </v>
   <v>       0.00462963 </v>
   <v>       0.00462963 </v>
   <v>       0.00462963 </v>
   <v>       0.00115741 </v>
   <v>       0.00115741 </v>
   <v>       0.00462963 </v>
   <v>       0.00462963 </v>
   <v>       0.00462963 </v>
   <v>       0.00462963 </v>
   <v>       0.00462963 </v>
   <v>       0.00231481 </v>
   <v>       0.00462963 </v>
   <v>       0.00925926 </v>
   <v>       0.00925926 </v>
   <v>       0.00925926 </v>
   <v>       0.00925926 </v>
   <v>       0.00462963 </v>
   <v>       0.00462963 </v>
   <v>       0.00925926 </v>
   <v>       0.00925926 </v>
   <v>       0.00925926 </v>
   <v>       0.00462963 </v>
   <v>       0.00462963 </v>
   <v>       0.00925926 </v>
   <v>       0.00925926 </v>
   <v>       0.00462963 </v>
   <v>       0.00462963 </v>
   <v>       0.00925926 </v>
   <v>       0.00462963 </v>
   <v>       0.00462963 </v>
   <v>       0.00462963 </v>
   <v>       0.00115741 </v>
   <v>       0.00115741 </v>
   <v>       0.00462963 </v>
   <v>       0.00462963 </v>
   <v>       0.00462963 </v>
   <v>       0.00462963 </v>
   <v>       0.00462963 </v>
   <v>       0.00231481 </v>
   <v>       0.00462963 </v>
   <v>       0.00925926 </v>
   <v>       0.00925926 </v>
   <v>       0.00925926 </v>
   <v>       0.00925926 </v>
   <v>       0.00462963 </v>
   <v>       0.00462963 </v>
   <v>       0.00925926 </v>
   <v>       0.00925926 </v>
   <v>       0.00925926 </v>
   <v>       0.00462963 </v>
   <v>       0.00462963 </v>
   <v>       0.00925926 </v>
   <v>       0.00925926 </v>
   <v>       0.00462963 </v>
   <v>       0.00462963 </v>
   <v>       0.00925926 </v>
   <v>       0.00462963 </v>
   <v>       0.00462963 </v>
   <v>       0.00462963 </v>
   <v>       0.00115741 </v>
   <v>       0.00115741 </v>
   <v>       0.00462963 </v>
   <v>       0.00462963 </v>
   <v>       0.00462963 </v>
   <v>       0.00462963 </v>
   <v>       0.00462963 </v>
   <v>       0.00231481 </v>
   <v>       0.00462963 </v>
   <v>       0.00925926 </v>
   <v>       0.00925926 </v>
   <v>       0.00925926 </v>
   <v>       0.00925926 </v>
   <v>       0.00462963 </v>
   <v>       0.00462963 </v>
   <v>       0.00925926 </v>
   <v>       0.00925926 </v>
   <v>       0.00925926 </v>
   <v>       0.00462963 </v>
   <v>       0.00462963 </v>
   <v>       0.00925926 </v>
   <v>       0.00925926 </v>
   <v>       0.00462963 </v>
   <v>       0.00462963 </v>
   <v>       0.00925926 </v>
   <v>       0.00462963 </v>
   <v>       0.00462963 </v>
   <v>       0.00462963 </v>
   <v>       0.00115741 </v>
   <v>       0.00115741 </v>
   <v>       0.00462963 </v>
   <v>       0.00462963 </v>
   <v>       0.00462963 </v>
   <v>       0.00462963 </v>
   <v>       0.00462963 </v>
   <v>       0.00231481 </v>
   <v>       0.00462963 </v>
   <v>       0.00925926 </v>
   <v>       0.00925926 </v>
   <v>       0.00925926 </v>
   <v>       0.00925926 </v>
   <v>       0.00462963 </v>
   <v>       0.00462963 </v>
   <v>       0.00925926 </v>
   <v>       0.00925926 </v>
   <v>       0.00925926 </v>
   <v>       0.00462963 </v>
   <v>       0.00462963 </v>
   <v>       0.00925926 </v>
   <v>       0.00925926 </v>
   <v>       0.00462963 </v>
   <v>       0.00462963 </v>
   <v>       0.00925926 </v>
   <v>       0.00462963 </v>
   <v>       0.00462963 </v>
   <v>       0.00462963 </v>
   <v>       0.00115741 </v>
   <v>       0.00057870 </v>
   <v>       0.00231481 </v>
   <v>       0.00231481 </v>
   <v>       0.00231481 </v>
   <v>       0.00231481 </v>
   <v>       0.00231481 </v>
   <v>       0.00115741 </v>
   <v>       0.00231481 </v>
   <v>       0.00462963 </v>
   <v>       0.00462963 </v>
   <v>       0.00462963 </v>
   <v>       0.00462963 </v>
   <v>       0.00231481 </v>
   <v>       0.00231481 </v>
   <v>       0.00462963 </v>
   <v>       0.00462963 </v>
   <v>       0.00462963 </v>
   <v>       0.00231481 </v>
   <v>       0.00231481 </v>
   <v>       0.00462963 </v>
   <v>       0.00462963 </v>
   <v>       0.00231481 </v>
   <v>       0.00231481 </v>
   <v>       0.00462963 </v>
   <v>       0.00231481 </v>
   <v>       0.00231481 </v>
   <v>       0.00231481 </v>
   <v>       0.00057870 </v>
  </varray>
  <varray name="tetrahedronlist"  type="int" >
   <v type="int" >        4        1        2        8       29 </v>
   <v type="int" >        4        2        8       29       30 </v>
   <v type="int" >        4        8       29       30       36 </v>
   <v type="int" >        4        2        3        9       30 </v>
   <v type="int" >        4        2        8        9       30 </v>
   <v type="int" >        4        8        9       30       36 </v>
   <v type="int" >        4        3        9       30       31 </v>
   <v type="int" >        4        9       30       31       37 </v>
   <v type="int" >        4        9       30       36       37 </v>
   <v type="int" >        4        3        4       10       31 </v>
   <v type="int" >        4        3        9       10       31 </v>
   <v type="int" >        4        9       10       31       37 </v>
   <v type="int" >        4        4       10       31       32 </v>
   <v type="int" >        4       10       31       32       38 </v>
   <v type="int" >        4       10       31       37       38 </v>
   <v type="int" >        4        4        5       11       32 </v>
   <v type="int" >        4        4       10       11       32 </v>
   <v type="int" >        4       10       11       32       38 </v>
   <v type="int" >        4        5       11       32       33 </v>
   <v type="int" >        4       11       32       33       39 </v>
   <v type="int" >        4       11       32       38       39 </v>
   <v type="int" >        4        5        6       12       33 </v>
   <v type="int" >        4        5       11       12       33 </v>
   <v type="int" >        4       11       12       33       39 </v>
   <v type="int" >        4        6       12       33       34 </v>
   <v type="int" >        4       12       33       34       40 </v>
   <v type="int" >        4       12       33       39       40 </v>
   <v type="int" >        4        6        7       13       34 </v>
   <v type="int" >        4        6       12       13       34 </v>
   <v type="int" >        4       12       13       34       40 </v>
   <v type="int" >        4        7       13       34       35 </v>
   <v type="int" >        4       13       34       35       41 </v>
   <v type="int" >        4       13       34       40       41 </v>
   <v type="int" >        4        6        7       12       35 </v>
   <v type="int" >        4        7       12       13       35 </v>
   <v type="int" >        4       12       13       35       41 </v>
   <v type="int" >        4        6       12       34       35 </v>
   <v type="int" >        4       12       34       35       40 </v>
   <v type="int" >        4       12       35       40       41 </v>
   <v type="int" >        4        5        6       11       34 </v>
   <v type="int" >        4        6       11       12       34 </v>
   <v type="int" >        4       11       12       34       40 </v>
   <v type="int" >        4        5       11       33       34 </v>
   <v type="int" >        4       11       33       34       39 </v>
   <v type="int" >        4       11       34       39       40 </v>
   <v type="int" >        4        4        5       10       33 </v>
   <v type="int" >        4        5       10       11       33 </v>
   <v type="int" >        4       10       11       33       39 </v>
   <v type="int" >        4        4       10       32       33 </v>
   <v type="int" >        4       10       32       33       38 </v>
   <v type="int" >        4       10       33       38       39 </v>
   <v type="int" >        4        3        4        9       32 </v>
   <v type="int" >        4        4        9       10       32 </v>
   <v type="int" >        4        9       10       32       38 </v>
   <v type="int" >        4        3        9       31       32 </v>
   <v type="int" >        4        9       31       32       37 </v>
   <v type="int" >        4        9       32       37       38 </v>
   <v type="int" >        4        2        3        8       31 </v>
   <v type="int" >        4        3        8        9       31 </v>
   <v type="int" >        4        8        9       31       37 </v>
   <v type="int" >        4        2        8       30       31 </v>
   <v type="int" >        4        8       30       31       36 </v>
   <v type="int" >        4        8       31       36       37 </v>
   <v type="int" >        4        1        2        2       30 </v>
   <v type="int" >        4        2        2        8       30 </v>
   <v type="int" >        4        2        8       30       36 </v>
   <v type="int" >        4        1        2       29       30 </v>
   <v type="int" >        4        2       29       30       30 </v>
   <v type="int" >        4        2       30       30       36 </v>
   <v type="int" >        4        8        9       14       36 </v>
   <v type="int" >        4        9       14       36       37 </v>
   <v type="int" >        4       14       36       37       42 </v>
   <v type="int" >        4        9       10       15       37 </v>
   <v type="int" >        4        9       14       15       37 </v>
   <v type="int" >        4       14       15       37       42 </v>
   <v type="int" >        4       10       15       37       38 </v>
   <v type="int" >        4       15       37       38       43 </v>
   <v type="int" >        4       15       37       42       43 </v>
   <v type="int" >        4       10       11       16       38 </v>
   <v type="int" >        4       10       15       16       38 </v>
   <v type="int" >        4       15       16       38       43 </v>
   <v type="int" >        4       11       16       38       39 </v>
   <v type="int" >        4       16       38       39       44 </v>
   <v type="int" >        4       16       38       43       44 </v>
   <v type="int" >        4       11       12       17       39 </v>
   <v type="int" >        4       11       16       17       39 </v>
   <v type="int" >        4       16       17       39       44 </v>
   <v type="int" >        4       12       17       39       40 </v>
   <v type="int" >        4       17       39       40       45 </v>
   <v type="int" >        4       17       39       44       45 </v>
   <v type="int" >        4       12       13       18       40 </v>
   <v type="int" >        4       12       17       18       40 </v>
   <v type="int" >        4       17       18       40       45 </v>
   <v type="int" >        4       13       18       40       41 </v>
   <v type="int" >        4       18       40       41       46 </v>
   <v type="int" >        4       18       40       45       46 </v>
   <v type="int" >        4       12       13       17       41 </v>
   <v type="int" >        4       13       17       18       41 </v>
   <v type="int" >        4       17       18       41       46 </v>
   <v type="int" >        4       12       17       40       41 </v>
   <v type="int" >        4       17       40       41       45 </v>
   <v type="int" >        4       17       41       45       46 </v>
   <v type="int" >        4       11       12       16       40 </v>
   <v type="int" >        4       12       16       17       40 </v>
   <v type="int" >        4       16       17       40       45 </v>
   <v type="int" >        4       11       16       39       40 </v>
   <v type="int" >        4       16       39       40       44 </v>
   <v type="int" >        4       16       40       44       45 </v>
   <v type="int" >        4       10       11       15       39 </v>
   <v type="int" >        4       11       15       16       39 </v>
   <v type="int" >        4       15       16       39       44 </v>
   <v type="int" >        4       10       15       38       39 </v>
   <v type="int" >        4       15       38       39       43 </v>
   <v type="int" >        4       15       39       43       44 </v>
   <v type="int" >        4        9       10       14       38 </v>
   <v type="int" >        4       10       14       15       38 </v>
   <v type="int" >        4       14       15       38       43 </v>
   <v type="int" >        4        9       14       37       38 </v>
   <v type="int" >        4       14       37       38       42 </v>
   <v type="int" >        4       14       38       42       43 </v>
   <v type="int" >        4        8        9        9       37 </v>
   <v type="int" >        4        9        9       14       37 </v>
   <v type="int" >        4        9       14       37       42 </v>
   <v type="int" >        4        8        9       36       37 </v>
   <v type="int" >        4        9       36       37       37 </v>
   <v type="int" >        4        9       37       37       42 </v>
   <v type="int" >        4        2        3        8       36 </v>
   <v type="int" >        4        3        8        9       36 </v>
   <v type="int" >        4        3        9       36       37 </v>
   <v type="int" >        4        2        3       30       36 </v>
   <v type="int" >        4        3       30       31       36 </v>
   <v type="int" >        4        3       31       36       37 </v>
   <v type="int" >        4       14       15       19       42 </v>
   <v type="int" >        4       15       19       42       43 </v>
   <v type="int" >        4       19       42       43       47 </v>
   <v type="int" >        4       15       16       20       43 </v>
   <v type="int" >        4       15       19       20       43 </v>
   <v type="int" >        4       19       20       43       47 </v>
   <v type="int" >        4       16       20       43       44 </v>
   <v type="int" >        4       20       43       44       48 </v>
   <v type="int" >        4       20       43       47       48 </v>
   <v type="int" >        4       16       17       21       44 </v>
   <v type="int" >        4       16       20       21       44 </v>
   <v type="int" >        4       20       21       44       48 </v>
   <v type="int" >        4       17       21       44       45 </v>
   <v type="int" >        4       21       44       45       49 </v>
   <v type="int" >        4       21       44       48       49 </v>
   <v type="int" >        4       17       18       22       45 </v>
   <v type="int" >        4       17       21       22       45 </v>
   <v type="int" >        4       21       22       45       49 </v>
   <v type="int" >        4       18       22       45       46 </v>
   <v type="int" >        4       22       45       46       50 </v>
   <v type="int" >        4       22       45       49       50 </v>
   <v type="int" >        4       17       18       21       46 </v>
   <v type="int" >        4       18       21       22       46 </v>
   <v type="int" >        4       21       22       46       50 </v>
   <v type="int" >        4       17       21       45       46 </v>
   <v type="int" >        4       21       45       46       49 </v>
   <v type="int" >        4       21       46       49       50 </v>
   <v type="int" >        4       16       17       20       45 </v>
   <v type="int" >        4       17       20       21       45 </v>
   <v type="int" >        4       20       21       45       49 </v>
   <v type="int" >        4       16       20       44       45 </v>
   <v type="int" >        4       20       44       45       48 </v>
   <v type="int" >        4       20       45       48       49 </v>
   <v type="int" >        4       15       16       19       44 </v>
   <v type="int" >        4       16       19       20       44 </v>
   <v type="int" >        4       19       20       44       48 </v>
   <v type="int" >        4       15       19       43       44 </v>
   <v type="int" >        4       19       43       44       47 </v>
   <v type="int" >        4       19       44       47       48 </v>
   <v type="int" >        4       14       15       15       43 </v>
   <v type="int" >        4       15       15       19       43 </v>
   <v type="int" >        4       15       19       43       47 </v>
   <v type="int" >        4       14       15       42       43 </v>
   <v type="int" >        4       15       42       43       43 </v>
   <v type="int" >        4       15       43       43       47 </v>
   <v type="int" >        4        9       10       14       42 </v>
   <v type="int" >        4       10       14       15       42 </v>
   <v type="int" >        4       10       15       42       43 </v>
   <v type="int" >        4        9       10       37       42 </v>
   <v type="int" >        4       10       37       38       42 </v>
   <v type="int" >        4       10       38       42       43 </v>
   <v type="int" >        4        3        4        9       37 </v>
   <v type="int" >        4        4        9       10       37 </v>
   <v type="int" >        4        4       10       37       38 </v>
   <v type="int" >        4        3        4       31       37 </v>
   <v type="int" >        4        4       31       32       37 </v>
   <v type="int" >        4        4       32       37       38 </v>
   <v type="int" >        4       19       20       23       47 </v>
   <v type="int" >        4       20       23       47       48 </v>
   <v type="int" >        4       23       47       48       51 </v>
   <v type="int" >        4       20       21       24       48 </v>
   <v type="int" >        4       20       23       24       48 </v>
   <v type="int" >        4       23       24       48       51 </v>
   <v type="int" >        4       21       24       48       49 </v>
   <v type="int" >        4       24       48       49       52 </v>
   <v type="int" >        4       24       48       51       52 </v>
   <v type="int" >        4       21       22       25       49 </v>
   <v type="int" >        4       21       24       25       49 </v>
   <v type="int" >        4       24       25       49       52 </v>
   <v type="int" >        4       22       25       49       50 </v>
   <v type="int" >        4       25       49       50       53 </v>
   <v type="int" >        4       25       49       52       53 </v>
   <v type="int" >        4       21       22       24       50 </v>
   <v type="int" >        4       22       24       25       50 </v>
   <v type="int" >        4       24       25       50       53 </v>
   <v type="int" >        4       21       24       49       50 </v>
   <v type="int" >        4       24       49       50       52 </v>
   <v type="int" >        4       24       50       52       53 </v>
   <v type="int" >        4       20       21       23       49 </v>
   <v type="int" >        4       21       23       24       49 </v>
   <v type="int" >        4       23       24       49       52 </v>
   <v type="int" >        4       20       23       48       49 </v>
   <v type="int" >        4       23       48       49       51 </v>
   <v type="int" >        4       23       49       51       52 </v>
   <v type="int" >        4       19       20       20       48 </v>
   <v type="int" >        4       20       20       23       48 </v>
   <v type="int" >        4       20       23       48       51 </v>
   <v type="int" >        4       19       20       47       48 </v>
   <v type="int" >        4       20       47       48       48 </v>
   <v type="int" >        4       20       48       48       51 </v>
   <v type="int" >        4       15       16       19       47 </v>
   <v type="int" >        4       16       19       20       47 </v>
   <v type="int" >        4       16       20       47       48 </v>
   <v type="int" >        4       15       16       43       47 </v>
   <v type="int" >        4       16       43       44       47 </v>
   <v type="int" >        4       16       44       47       48 </v>
   <v type="int" >        4       10       11       15       43 </v>
   <v type="int" >        4       11       15       16       43 </v>
   <v type="int" >        4       11       16       43       44 </v>
   <v type="int" >        4       10       11       38       43 </v>
   <v type="int" >        4       11       38       39       43 </v>
   <v type="int" >        4       11       39       43       44 </v>
   <v type="int" >        4        4        5       10       38 </v>
   <v type="int" >        4        5       10       11       38 </v>
   <v type="int" >        4        5       11       38       39 </v>
   <v type="int" >        4        4        5       32       38 </v>
   <v type="int" >        4        5       32       33       38 </v>
   <v type="int" >        4        5       33       38       39 </v>
   <v type="int" >        4       23       24       26       51 </v>
   <v type="int" >        4       24       26       51       52 </v>
   <v type="int" >        4       26       51       52       54 </v>
   <v type="int" >        4       24       25       27       52 </v>
   <v type="int" >        4       24       26       27       52 </v>
   <v type="int" >        4       26       27       52       54 </v>
   <v type="int" >        4       25       27       52       53 </v>
   <v type="int" >        4       27       52       53       55 </v>
   <v type="int" >        4       27       52       54       55 </v>
   <v type="int" >        4       24       25       26       53 </v>
   <v type="int" >        4       25       26       27       53 </v>
   <v type="int" >        4       26       27       53       55 </v>
   <v type="int" >        4       24       26       52       53 </v>
   <v type="int" >        4       26       52       53       54 </v>
   <v type="int" >        4       26       53       54       55 </v>
   <v type="int" >        4       23       24       24       52 </v>
   <v type="int" >        4       24       24       26       52 </v>
   <v type="int" >        4       24       26       52       54 </v>
   <v type="int" >        4       23       24       51       52 </v>
   <v type="int" >        4       24       51       52       52 </v>
   <v type="int" >        4       24       52       52       54 </v>
   <v type="int" >        4       20       21       23       51 </v>
   <v type="int" >        4       21       23       24       51 </v>
   <v type="int" >        4       21       24       51       52 </v>
   <v type="int" >        4       20       21       48       51 </v>
   <v type="int" >        4       21       48       49       51 </v>
   <v type="int" >        4       21       49       51       52 </v>
   <v type="int" >        4       16       17       20       48 </v>
   <v type="int" >        4       17       20       21       48 </v>
   <v type="int" >        4       17       21       48       49 </v>
   <v type="int" >        4       16       17       44       48 </v>
   <v type="int" >        4       17       44       45       48 </v>
   <v type="int" >        4       17       45       48       49 </v>
   <v type="int" >        4       11       12       16       44 </v>
   <v type="int" >        4       12       16       17       44 </v>
   <v type="int" >        4       12       17       44       45 </v>
   <v type="int" >        4       11       12       39       44 </v>
   <v type="int" >        4       12       39       40       44 </v>
   <v type="int" >        4       12       40       44       45 </v>
   <v type="int" >        4        5        6       11       39 </v>
   <v type="int" >        4        6       11       12       39 </v>
   <v type="int" >        4        6       12       39       40 </v>
   <v type="int" >        4        5        6       33       39 </v>
   <v type="int" >        4        6       33       34       39 </v>
   <v type="int" >        4        6       34       39       40 </v>
   <v type="int" >        4       26       27       28       54 </v>
   <v type="int" >        4       27       28       54       55 </v>
   <v type="int" >        4       28       54       55       56 </v>
   <v type="int" >        4       26       27       27       55 </v>
   <v type="int" >        4       27       27       28       55 </v>
   <v type="int" >        4       27       28       55       56 </v>
   <v type="int" >        4       26       27       54       55 </v>
   <v type="int" >        4       27       54       55       55 </v>
   <v type="int" >        4       27       55       55       56 </v>
   <v type="int" >        4       24       25       26       54 </v>
   <v type="int" >        4       25       26       27       54 </v>
   <v type="int" >        4       25       27       54       55 </v>
   <v type="int" >        4       24       25       52       54 </v>
   <v type="int" >        4       25       52       53       54 </v>
   <v type="int" >        4       25       53       54       55 </v>
   <v type="int" >        4       21       22       24       52 </v>
   <v type="int" >        4       22       24       25       52 </v>
   <v type="int" >        4       22       25       52       53 </v>
   <v type="int" >        4       21       22       49       52 </v>
   <v type="int" >        4       22       49       50       52 </v>
   <v type="int" >        4       22       50       52       53 </v>
   <v type="int" >        4       17       18       21       49 </v>
   <v type="int" >        4       18       21       22       49 </v>
   <v type="int" >        4       18       22       49       50 </v>
   <v type="int" >        4       17       18       45       49 </v>
   <v type="int" >        4       18       45       46       49 </v>
   <v type="int" >        4       18       46       49       50 </v>
   <v type="int" >        4       12       13       17       45 </v>
   <v type="int" >        4       13       17       18       45 </v>
   <v type="int" >        4       13       18       45       46 </v>
   <v type="int" >        4       12       13       40       45 </v>
   <v type="int" >        4       13       40       41       45 </v>
   <v type="int" >        4       13       41       45       46 </v>
   <v type="int" >        4        6        7       12       40 </v>
   <v type="int" >        4        7       12       13       40 </v>
   <v type="int" >        4        7       13       40       41 </v>
   <v type="int" >        4        6        7       34       40 </v>
   <v type="int" >        4        7       34       35       40 </v>
   <v type="int" >        4        7       35       40       41 </v>
   <v type="int" >        4       26       27       28       56 </v>
   <v type="int" >        4       26       27       55       56 </v>
   <v type="int" >        4       26       54       55       56 </v>
   <v type="int" >        4       24       25       27       55 </v>
   <v type="int" >        4       24       26       27       55 </v>
   <v type="int" >        4       24       26       54       55 </v>
   <v type="int" >        4       24       25       53       55 </v>
   <v type="int" >        4       24       52       53       55 </v>
   <v type="int" >        4       24       52       54       55 </v>
   <v type="int" >        4       21       22       25       53 </v>
   <v type="int" >        4       21       24       25       53 </v>
   <v type="int" >        4       21       24       52       53 </v>
   <v type="int" >        4       21       22       50       53 </v>
   <v type="int" >        4       21       49       50       53 </v>
   <v type="int" >        4       21       49       52       53 </v>
   <v type="int" >        4       17       18       22       50 </v>
   <v type="int" >        4       17       21       22       50 </v>
   <v type="int" >        4       17       21       49       50 </v>
   <v type="int" >        4       17       18       46       50 </v>
   <v type="int" >        4       17       45       46       50 </v>
   <v type="int" >        4       17       45       49       50 </v>
   <v type="int" >        4       12       13       18       46 </v>
   <v type="int" >        4       12       17       18       46 </v>
   <v type="int" >        4       12       17       45       46 </v>
   <v type="int" >        4       12       13       41       46 </v>
   <v type="int" >        4       12       40       41       46 </v>
   <v type="int" >        4       12       40       45       46 </v>
   <v type="int" >        4        6        7       13       41 </v>
   <v type="int" >        4        6       12       13       41 </v>
   <v type="int" >        4        6       12       40       41 </v>
   <v type="int" >        4        6        7       35       41 </v>
   <v type="int" >        4        6       34       35       41 </v>
   <v type="int" >        4        6       34       40       41 </v>
   <v type="int" >        4       23       24       26       54 </v>
   <v type="int" >        4       23       24       52       54 </v>
   <v type="int" >        4       23       51       52       54 </v>
   <v type="int" >        4       20       21       24       52 </v>
   <v type="int" >        4       20       23       24       52 </v>
   <v type="int" >        4       20       23       51       52 </v>
   <v type="int" >        4       20       21       49       52 </v>
   <v type="int" >        4       20       48       49       52 </v>
   <v type="int" >        4       20       48       51       52 </v>
   <v type="int" >        4       16       17       21       49 </v>
   <v type="int" >        4       16       20       21       49 </v>
   <v type="int" >        4       16       20       48       49 </v>
   <v type="int" >        4       16       17       45       49 </v>
   <v type="int" >        4       16       44       45       49 </v>
   <v type="int" >        4       16       44       48       49 </v>
   <v type="int" >        4       11       12       17       45 </v>
   <v type="int" >        4       11       16       17       45 </v>
   <v type="int" >        4       11       16       44       45 </v>
   <v type="int" >        4       11       12       40       45 </v>
   <v type="int" >        4       11       39       40       45 </v>
   <v type="int" >        4       11       39       44       45 </v>
   <v type="int" >        4        5        6       12       40 </v>
   <v type="int" >        4        5       11       12       40 </v>
   <v type="int" >        4        5       11       39       40 </v>
   <v type="int" >        4        5        6       34       40 </v>
   <v type="int" >        4        5       33       34       40 </v>
   <v type="int" >        4        5       33       39       40 </v>
   <v type="int" >        4       19       20       23       51 </v>
   <v type="int" >        4       19       20       48       51 </v>
   <v type="int" >        4       19       47       48       51 </v>
   <v type="int" >        4       15       16       20       48 </v>
   <v type="int" >        4       15       19       20       48 </v>
   <v type="int" >        4       15       19       47       48 </v>
   <v type="int" >        4       15       16       44       48 </v>
   <v type="int" >        4       15       43       44       48 </v>
   <v type="int" >        4       15       43       47       48 </v>
   <v type="int" >        4       10       11       16       44 </v>
   <v type="int" >        4       10       15       16       44 </v>
   <v type="int" >        4       10       15       43       44 </v>
   <v type="int" >        4       10       11       39       44 </v>
   <v type="int" >        4       10       38       39       44 </v>
   <v type="int" >        4       10       38       43       44 </v>
   <v type="int" >        4        4        5       11       39 </v>
   <v type="int" >        4        4       10       11       39 </v>
   <v type="int" >        4        4       10       38       39 </v>
   <v type="int" >        4        4        5       33       39 </v>
   <v type="int" >        4        4       32       33       39 </v>
   <v type="int" >        4        4       32       38       39 </v>
   <v type="int" >        4       14       15       19       47 </v>
   <v type="int" >        4       14       15       43       47 </v>
   <v type="int" >        4       14       42       43       47 </v>
   <v type="int" >        4        9       10       15       43 </v>
   <v type="int" >        4        9       14       15       43 </v>
   <v type="int" >        4        9       14       42       43 </v>
   <v type="int" >        4        9       10       38       43 </v>
   <v type="int" >        4        9       37       38       43 </v>
   <v type="int" >        4        9       37       42       43 </v>
   <v type="int" >        4        3        4       10       38 </v>
   <v type="int" >        4        3        9       10       38 </v>
   <v type="int" >        4        3        9       37       38 </v>
   <v type="int" >        4        3        4       32       38 </v>
   <v type="int" >        4        3       31       32       38 </v>
   <v type="int" >        4        3       31       37       38 </v>
   <v type="int" >        4        8        9       14       42 </v>
   <v type="int" >        4        8        9       37       42 </v>
   <v type="int" >        4        8       36       37       42 </v>
   <v type="int" >        4        2        3        9       37 </v>
   <v type="int" >        4        2        8        9       37 </v>
   <v type="int" >        4        2        8       36       37 </v>
   <v type="int" >        4        2        3       31       37 </v>
   <v type="int" >        4        2       30       31       37 </v>
   <v type="int" >        4        2       30       36       37 </v>
   <v type="int" >        4        1        2        8       36 </v>
   <v type="int" >        4        1        2       30       36 </v>
   <v type="int" >        4        1       29       30       36 </v>
   <v type="int" >        4       29       30       36       57 </v>
   <v type="int" >        4       30       36       57       58 </v>
   <v type="int" >        4       36       57       58       64 </v>
   <v type="int" >        4       30       31       37       58 </v>
   <v type="int" >        4       30       36       37       58 </v>
   <v type="int" >        4       36       37       58       64 </v>
   <v type="int" >        4       31       37       58       59 </v>
   <v type="int" >        4       37       58       59       65 </v>
   <v type="int" >        4       37       58       64       65 </v>
   <v type="int" >        4       31       32       38       59 </v>
   <v type="int" >        4       31       37       38       59 </v>
   <v type="int" >        4       37       38       59       65 </v>
   <v type="int" >        4       32       38       59       60 </v>
   <v type="int" >        4       38       59       60       66 </v>
   <v type="int" >        4       38       59       65       66 </v>
   <v type="int" >        4       32       33       39       60 </v>
   <v type="int" >        4       32       38       39       60 </v>
   <v type="int" >        4       38       39       60       66 </v>
   <v type="int" >        4       33       39       60       61 </v>
   <v type="int" >        4       39       60       61       67 </v>
   <v type="int" >        4       39       60       66       67 </v>
   <v type="int" >        4       33       34       40       61 </v>
   <v type="int" >        4       33       39       40       61 </v>
   <v type="int" >        4       39       40       61       67 </v>
   <v type="int" >        4       34       40       61       62 </v>
   <v type="int" >        4       40       61       62       68 </v>
   <v type="int" >        4       40       61       67       68 </v>
   <v type="int" >        4       34       35       41       62 </v>
   <v type="int" >        4       34       40       41       62 </v>
   <v type="int" >        4       40       41       62       68 </v>
   <v type="int" >        4       35       41       62       63 </v>
   <v type="int" >        4       41       62       63       69 </v>
   <v type="int" >        4       41       62       68       69 </v>
   <v type="int" >        4       34       35       40       63 </v>
   <v type="int" >        4       35       40       41       63 </v>
   <v type="int" >        4       40       41       63       69 </v>
   <v type="int" >        4       34       40       62       63 </v>
   <v type="int" >        4       40       62       63       68 </v>
   <v type="int" >        4       40       63       68       69 </v>
   <v type="int" >        4       33       34       39       62 </v>
   <v type="int" >        4       34       39       40       62 </v>
   <v type="int" >        4       39       40       62       68 </v>
   <v type="int" >        4       33       39       61       62 </v>
   <v type="int" >        4       39       61       62       67 </v>
   <v type="int" >        4       39       62       67       68 </v>
   <v type="int" >        4       32       33       38       61 </v>
   <v type="int" >        4       33       38       39       61 </v>
   <v type="int" >        4       38       39       61       67 </v>
   <v type="int" >        4       32       38       60       61 </v>
   <v type="int" >        4       38       60       61       66 </v>
   <v type="int" >        4       38       61       66       67 </v>
   <v type="int" >        4       31       32       37       60 </v>
   <v type="int" >        4       32       37       38       60 </v>
   <v type="int" >        4       37       38       60       66 </v>
   <v type="int" >        4       31       37       59       60 </v>
   <v type="int" >        4       37       59       60       65 </v>
   <v type="int" >        4       37       60       65       66 </v>
   <v type="int" >        4       30       31       36       59 </v>
   <v type="int" >        4       31       36       37       59 </v>
   <v type="int" >        4       36       37       59       65 </v>
   <v type="int" >        4       30       36       58       59 </v>
   <v type="int" >        4       36       58       59       64 </v>
   <v type="int" >        4       36       59       64       65 </v>
   <v type="int" >        4       29       30       30       58 </v>
   <v type="int" >        4       30       30       36       58 </v>
   <v type="int" >        4       30       36       58       64 </v>
   <v type="int" >        4       29       30       57       58 </v>
   <v type="int" >        4       30       57       58       58 </v>
   <v type="int" >        4       30       58       58       64 </v>
   <v type="int" >        4       36       37       42       64 </v>
   <v type="int" >        4       37       42       64       65 </v>
   <v type="int" >        4       42       64       65       70 </v>
   <v type="int" >        4       37       38       43       65 </v>
   <v type="int" >        4       37       42       43       65 </v>
   <v type="int" >        4       42       43       65       70 </v>
   <v type="int" >        4       38       43       65       66 </v>
   <v type="int" >        4       43       65       66       71 </v>
   <v type="int" >        4       43       65       70       71 </v>
   <v type="int" >        4       38       39       44       66 </v>
   <v type="int" >        4       38       43       44       66 </v>
   <v type="int" >        4       43       44       66       71 </v>
   <v type="int" >        4       39       44       66       67 </v>
   <v type="int" >        4       44       66       67       72 </v>
   <v type="int" >        4       44       66       71       72 </v>
   <v type="int" >        4       39       40       45       67 </v>
   <v type="int" >        4       39       44       45       67 </v>
   <v type="int" >        4       44       45       67       72 </v>
   <v type="int" >        4       40       45       67       68 </v>
   <v type="int" >        4       45       67       68       73 </v>
   <v type="int" >        4       45       67       72       73 </v>
   <v type="int" >        4       40       41       46       68 </v>
   <v type="int" >        4       40       45       46       68 </v>
   <v type="int" >        4       45       46       68       73 </v>
   <v type="int" >        4       41       46       68       69 </v>
   <v type="int" >        4       46       68       69       74 </v>
   <v type="int" >        4       46       68       73       74 </v>
   <v type="int" >        4       40       41       45       69 </v>
   <v type="int" >        4       41       45       46       69 </v>
   <v type="int" >        4       45       46       69       74 </v>
   <v type="int" >        4       40       45       68       69 </v>
   <v type="int" >        4       45       68       69       73 </v>
   <v type="int" >        4       45       69       73       74 </v>
   <v type="int" >        4       39       40       44       68 </v>
   <v type="int" >        4       40       44       45       68 </v>
   <v type="int" >        4       44       45       68       73 </v>
   <v type="int" >        4       39       44       67       68 </v>
   <v type="int" >        4       44       67       68       72 </v>
   <v type="int" >        4       44       68       72       73 </v>
   <v type="int" >        4       38       39       43       67 </v>
   <v type="int" >        4       39       43       44       67 </v>
   <v type="int" >        4       43       44       67       72 </v>
   <v type="int" >        4       38       43       66       67 </v>
   <v type="int" >        4       43       66       67       71 </v>
   <v type="int" >        4       43       67       71       72 </v>
   <v type="int" >        4       37       38       42       66 </v>
   <v type="int" >        4       38       42       43       66 </v>
   <v type="int" >        4       42       43       66       71 </v>
   <v type="int" >        4       37       42       65       66 </v>
   <v type="int" >        4       42       65       66       70 </v>
   <v type="int" >        4       42       66       70       71 </v>
   <v type="int" >        4       36       37       37       65 </v>
   <v type="int" >        4       37       37       42       65 </v>
   <v type="int" >        4       37       42       65       70 </v>
   <v type="int" >        4       36       37       64       65 </v>
   <v type="int" >        4       37       64       65       65 </v>
   <v type="int" >        4       37       65       65       70 </v>
   <v type="int" >        4       30       31       36       64 </v>
   <v type="int" >        4       31       36       37       64 </v>
   <v type="int" >        4       31       37       64       65 </v>
   <v type="int" >        4       30       31       58       64 </v>
   <v type="int" >        4       31       58       59       64 </v>
   <v type="int" >        4       31       59       64       65 </v>
   <v type="int" >        4       42       43       47       70 </v>
   <v type="int" >        4       43       47       70       71 </v>
   <v type="int" >        4       47       70       71       75 </v>
   <v type="int" >        4       43       44       48       71 </v>
   <v type="int" >        4       43       47       48       71 </v>
   <v type="int" >        4       47       48       71       75 </v>
   <v type="int" >        4       44       48       71       72 </v>
   <v type="int" >        4       48       71       72       76 </v>
   <v type="int" >        4       48       71       75       76 </v>
   <v type="int" >        4       44       45       49       72 </v>
   <v type="int" >        4       44       48       49       72 </v>
   <v type="int" >        4       48       49       72       76 </v>
   <v type="int" >        4       45       49       72       73 </v>
   <v type="int" >        4       49       72       73       77 </v>
   <v type="int" >        4       49       72       76       77 </v>
   <v type="int" >        4       45       46       50       73 </v>
   <v type="int" >        4       45       49       50       73 </v>
   <v type="int" >        4       49       50       73       77 </v>
   <v type="int" >        4       46       50       73       74 </v>
   <v type="int" >        4       50       73       74       78 </v>
   <v type="int" >        4       50       73       77       78 </v>
   <v type="int" >        4       45       46       49       74 </v>
   <v type="int" >        4       46       49       50       74 </v>
   <v type="int" >        4       49       50       74       78 </v>
   <v type="int" >        4       45       49       73       74 </v>
   <v type="int" >        4       49       73       74       77 </v>
   <v type="int" >        4       49       74       77       78 </v>
   <v type="int" >        4       44       45       48       73 </v>
   <v type="int" >        4       45       48       49       73 </v>
   <v type="int" >        4       48       49       73       77 </v>
   <v type="int" >        4       44       48       72       73 </v>
   <v type="int" >        4       48       72       73       76 </v>
   <v type="int" >        4       48       73       76       77 </v>
   <v type="int" >        4       43       44       47       72 </v>
   <v type="int" >        4       44       47       48       72 </v>
   <v type="int" >        4       47       48       72       76 </v>
   <v type="int" >        4       43       47       71       72 </v>
   <v type="int" >        4       47       71       72       75 </v>
   <v type="int" >        4       47       72       75       76 </v>
   <v type="int" >        4       42       43       43       71 </v>
   <v type="int" >        4       43       43       47       71 </v>
   <v type="int" >        4       43       47       71       75 </v>
   <v type="int" >        4       42       43       70       71 </v>
   <v type="int" >        4       43       70       71       71 </v>
   <v type="int" >        4       43       71       71       75 </v>
   <v type="int" >        4       37       38       42       70 </v>
   <v type="int" >        4       38       42       43       70 </v>
   <v type="int" >        4       38       43       70       71 </v>
   <v type="int" >        4       37       38       65       70 </v>
   <v type="int" >        4       38       65       66       70 </v>
   <v type="int" >        4       38       66       70       71 </v>
   <v type="int" >        4       31       32       37       65 </v>
   <v type="int" >        4       32       37       38       65 </v>
   <v type="int" >        4       32       38       65       66 </v>
   <v type="int" >        4       31       32       59       65 </v>
   <v type="int" >        4       32       59       60       65 </v>
   <v type="int" >        4       32       60       65       66 </v>
   <v type="int" >        4       47       48       51       75 </v>
   <v type="int" >        4       48       51       75       76 </v>
   <v type="int" >        4       51       75       76       79 </v>
   <v type="int" >        4       48       49       52       76 </v>
   <v type="int" >        4       48       51       52       76 </v>
   <v type="int" >        4       51       52       76       79 </v>
   <v type="int" >        4       49       52       76       77 </v>
   <v type="int" >        4       52       76       77       80 </v>
   <v type="int" >        4       52       76       79       80 </v>
   <v type="int" >        4       49       50       53       77 </v>
   <v type="int" >        4       49       52       53       77 </v>
   <v type="int" >        4       52       53       77       80 </v>
   <v type="int" >        4       50       53       77       78 </v>
   <v type="int" >        4       53       77       78       81 </v>
   <v type="int" >        4       53       77       80       81 </v>
   <v type="int" >        4       49       50       52       78 </v>
   <v type="int" >        4       50       52       53       78 </v>
   <v type="int" >        4       52       53       78       81 </v>
   <v type="int" >        4       49       52       77       78 </v>
   <v type="int" >        4       52       77       78       80 </v>
   <v type="int" >        4       52       78       80       81 </v>
   <v type="int" >        4       48       49       51       77 </v>
   <v type="int" >        4       49       51       52       77 </v>
   <v type="int" >        4       51       52       77       80 </v>
   <v type="int" >        4       48       51       76       77 </v>
   <v type="int" >        4       51       76       77       79 </v>
   <v type="int" >        4       51       77       79       80 </v>
   <v type="int" >        4       47       48       48       76 </v>
   <v type="int" >        4       48       48       51       76 </v>
   <v type="int" >        4       48       51       76       79 </v>
   <v type="int" >        4       47       48       75       76 </v>
   <v type="int" >        4       48       75       76       76 </v>
   <v type="int" >        4       48       76       76       79 </v>
   <v type="int" >        4       43       44       47       75 </v>
   <v type="int" >        4       44       47       48       75 </v>
   <v type="int" >        4       44       48       75       76 </v>
   <v type="int" >        4       43       44       71       75 </v>
   <v type="int" >        4       44       71       72       75 </v>
   <v type="int" >        4       44       72       75       76 </v>
   <v type="int" >        4       38       39       43       71 </v>
   <v type="int" >        4       39       43       44       71 </v>
   <v type="int" >        4       39       44       71       72 </v>
   <v type="int" >        4       38       39       66       71 </v>
   <v type="int" >        4       39       66       67       71 </v>
   <v type="int" >        4       39       67       71       72 </v>
   <v type="int" >        4       32       33       38       66 </v>
   <v type="int" >        4       33       38       39       66 </v>
   <v type="int" >        4       33       39       66       67 </v>
   <v type="int" >        4       32       33       60       66 </v>
   <v type="int" >        4       33       60       61       66 </v>
   <v type="int" >        4       33       61       66       67 </v>
   <v type="int" >        4       51       52       54       79 </v>
   <v type="int" >        4       52       54       79       80 </v>
   <v type="int" >        4       54       79       80       82 </v>
   <v type="int" >        4       52       53       55       80 </v>
   <v type="int" >        4       52       54       55       80 </v>
   <v type="int" >        4       54       55       80       82 </v>
   <v type="int" >        4       53       55       80       81 </v>
   <v type="int" >        4       55       80       81       83 </v>
   <v type="int" >        4       55       80       82       83 </v>
   <v type="int" >        4       52       53       54       81 </v>
   <v type="int" >        4       53       54       55       81 </v>
   <v type="int" >        4       54       55       81       83 </v>
   <v type="int" >        4       52       54       80       81 </v>
   <v type="int" >        4       54       80       81       82 </v>
   <v type="int" >        4       54       81       82       83 </v>
   <v type="int" >        4       51       52       52       80 </v>
   <v type="int" >        4       52       52       54       80 </v>
   <v type="int" >        4       52       54       80       82 </v>
   <v type="int" >        4       51       52       79       80 </v>
   <v type="int" >        4       52       79       80       80 </v>
   <v type="int" >        4       52       80       80       82 </v>
   <v type="int" >        4       48       49       51       79 </v>
   <v type="int" >        4       49       51       52       79 </v>
   <v type="int" >        4       49       52       79       80 </v>
   <v type="int" >        4       48       49       76       79 </v>
   <v type="int" >        4       49       76       77       79 </v>
   <v type="int" >        4       49       77       79       80 </v>
   <v type="int" >        4       44       45       48       76 </v>
   <v type="int" >        4       45       48       49       76 </v>
   <v type="int" >        4       45       49       76       77 </v>
   <v type="int" >        4       44       45       72       76 </v>
   <v type="int" >        4       45       72       73       76 </v>
   <v type="int" >        4       45       73       76       77 </v>
   <v type="int" >        4       39       40       44       72 </v>
   <v type="int" >        4       40       44       45       72 </v>
   <v type="int" >        4       40       45       72       73 </v>
   <v type="int" >        4       39       40       67       72 </v>
   <v type="int" >        4       40       67       68       72 </v>
   <v type="int" >        4       40       68       72       73 </v>
   <v type="int" >        4       33       34       39       67 </v>
   <v type="int" >        4       34       39       40       67 </v>
   <v type="int" >        4       34       40       67       68 </v>
   <v type="int" >        4       33       34       61       67 </v>
   <v type="int" >        4       34       61       62       67 </v>
   <v type="int" >        4       34       62       67       68 </v>
   <v type="int" >        4       54       55       56       82 </v>
   <v type="int" >        4       55       56       82       83 </v>
   <v type="int" >        4       56       82       83       84 </v>
   <v type="int" >        4       54       55       55       83 </v>
   <v type="int" >        4       55       55       56       83 </v>
   <v type="int" >        4       55       56       83       84 </v>
   <v type="int" >        4       54       55       82       83 </v>
   <v type="int" >        4       55       82       83       83 </v>
   <v type="int" >        4       55       83       83       84 </v>
   <v type="int" >        4       52       53       54       82 </v>
   <v type="int" >        4       53       54       55       82 </v>
   <v type="int" >        4       53       55       82       83 </v>
   <v type="int" >        4       52       53       80       82 </v>
   <v type="int" >        4       53       80       81       82 </v>
   <v type="int" >        4       53       81       82       83 </v>
   <v type="int" >        4       49       50       52       80 </v>
   <v type="int" >        4       50       52       53       80 </v>
   <v type="int" >        4       50       53       80       81 </v>
   <v type="int" >        4       49       50       77       80 </v>
   <v type="int" >        4       50       77       78       80 </v>
   <v type="int" >        4       50       78       80       81 </v>
   <v type="int" >        4       45       46       49       77 </v>
   <v type="int" >        4       46       49       50       77 </v>
   <v type="int" >        4       46       50       77       78 </v>
   <v type="int" >        4       45       46       73       77 </v>
   <v type="int" >        4       46       73       74       77 </v>
   <v type="int" >        4       46       74       77       78 </v>
   <v type="int" >        4       40       41       45       73 </v>
   <v type="int" >        4       41       45       46       73 </v>
   <v type="int" >        4       41       46       73       74 </v>
   <v type="int" >        4       40       41       68       73 </v>
   <v type="int" >        4       41       68       69       73 </v>
   <v type="int" >        4       41       69       73       74 </v>
   <v type="int" >        4       34       35       40       68 </v>
   <v type="int" >        4       35       40       41       68 </v>
   <v type="int" >        4       35       41       68       69 </v>
   <v type="int" >        4       34       35       62       68 </v>
   <v type="int" >        4       35       62       63       68 </v>
   <v type="int" >        4       35       63       68       69 </v>
   <v type="int" >        4       54       55       56       84 </v>
   <v type="int" >        4       54       55       83       84 </v>
   <v type="int" >        4       54       82       83       84 </v>
   <v type="int" >        4       52       53       55       83 </v>
   <v type="int" >        4       52       54       55       83 </v>
   <v type="int" >        4       52       54       82       83 </v>
   <v type="int" >        4       52       53       81       83 </v>
   <v type="int" >        4       52       80       81       83 </v>
   <v type="int" >        4       52       80       82       83 </v>
   <v type="int" >        4       49       50       53       81 </v>
   <v type="int" >        4       49       52       53       81 </v>
   <v type="int" >        4       49       52       80       81 </v>
   <v type="int" >        4       49       50       78       81 </v>
   <v type="int" >        4       49       77       78       81 </v>
   <v type="int" >        4       49       77       80       81 </v>
   <v type="int" >        4       45       46       50       78 </v>
   <v type="int" >        4       45       49       50       78 </v>
   <v type="int" >        4       45       49       77       78 </v>
   <v type="int" >        4       45       46       74       78 </v>
   <v type="int" >        4       45       73       74       78 </v>
   <v type="int" >        4       45       73       77       78 </v>
   <v type="int" >        4       40       41       46       74 </v>
   <v type="int" >        4       40       45       46       74 </v>
   <v type="int" >        4       40       45       73       74 </v>
   <v type="int" >        4       40       41       69       74 </v>
   <v type="int" >        4       40       68       69       74 </v>
   <v type="int" >        4       40       68       73       74 </v>
   <v type="int" >        4       34       35       41       69 </v>
   <v type="int" >        4       34       40       41       69 </v>
   <v type="int" >        4       34       40       68       69 </v>
   <v type="int" >        4       34       35       63       69 </v>
   <v type="int" >        4       34       62       63       69 </v>
   <v type="int" >        4       34       62       68       69 </v>
   <v type="int" >        4       51       52       54       82 </v>
   <v type="int" >        4       51       52       80       82 </v>
   <v type="int" >        4       51       79       80       82 </v>
   <v type="int" >        4       48       49       52       80 </v>
   <v type="int" >        4       48       51       52       80 </v>
   <v type="int" >        4       48       51       79       80 </v>
   <v type="int" >        4       48       49       77       80 </v>
   <v type="int" >        4       48       76       77       80 </v>
   <v type="int" >        4       48       76       79       80 </v>
   <v type="int" >        4       44       45       49       77 </v>
   <v type="int" >        4       44       48       49       77 </v>
   <v type="int" >        4       44       48       76       77 </v>
   <v type="int" >        4       44       45       73       77 </v>
   <v type="int" >        4       44       72       73       77 </v>
   <v type="int" >        4       44       72       76       77 </v>
   <v type="int" >        4       39       40       45       73 </v>
   <v type="int" >        4       39       44       45       73 </v>
   <v type="int" >        4       39       44       72       73 </v>
   <v type="int" >        4       39       40       68       73 </v>
   <v type="int" >        4       39       67       68       73 </v>
   <v type="int" >        4       39       67       72       73 </v>
   <v type="int" >        4       33       34       40       68 </v>
   <v type="int" >        4       33       39       40       68 </v>
   <v type="int" >        4       33       39       67       68 </v>
   <v type="int" >        4       33       34       62       68 </v>
   <v type="int" >        4       33       61       62       68 </v>
   <v type="int" >        4       33       61       67       68 </v>
   <v type="int" >        4       47       48       51       79 </v>
   <v type="int" >        4       47       48       76       79 </v>
   <v type="int" >        4       47       75       76       79 </v>
   <v type="int" >        4       43       44       48       76 </v>
   <v type="int" >        4       43       47       48       76 </v>
   <v type="int" >        4       43       47       75       76 </v>
   <v type="int" >        4       43       44       72       76 </v>
   <v type="int" >        4       43       71       72       76 </v>
   <v type="int" >        4       43       71       75       76 </v>
   <v type="int" >        4       38       39       44       72 </v>
   <v type="int" >        4       38       43       44       72 </v>
   <v type="int" >        4       38       43       71       72 </v>
   <v type="int" >        4       38       39       67       72 </v>
   <v type="int" >        4       38       66       67       72 </v>
   <v type="int" >        4       38       66       71       72 </v>
   <v type="int" >        4       32       33       39       67 </v>
   <v type="int" >        4       32       38       39       67 </v>
   <v type="int" >        4       32       38       66       67 </v>
   <v type="int" >        4       32       33       61       67 </v>
   <v type="int" >        4       32       60       61       67 </v>
   <v type="int" >        4       32       60       66       67 </v>
   <v type="int" >        4       42       43       47       75 </v>
   <v type="int" >        4       42       43       71       75 </v>
   <v type="int" >        4       42       70       71       75 </v>
   <v type="int" >        4       37       38       43       71 </v>
   <v type="int" >        4       37       42       43       71 </v>
   <v type="int" >        4       37       42       70       71 </v>
   <v type="int" >        4       37       38       66       71 </v>
   <v type="int" >        4       37       65       66       71 </v>
   <v type="int" >        4       37       65       70       71 </v>
   <v type="int" >        4       31       32       38       66 </v>
   <v type="int" >        4       31       37       38       66 </v>
   <v type="int" >        4       31       37       65       66 </v>
   <v type="int" >        4       31       32       60       66 </v>
   <v type="int" >        4       31       59       60       66 </v>
   <v type="int" >        4       31       59       65       66 </v>
   <v type="int" >        4       36       37       42       70 </v>
   <v type="int" >        4       36       37       65       70 </v>
   <v type="int" >        4       36       64       65       70 </v>
   <v type="int" >        4       30       31       37       65 </v>
   <v type="int" >        4       30       36       37       65 </v>
   <v type="int" >        4       30       36       64       65 </v>
   <v type="int" >        4       30       31       59       65 </v>
   <v type="int" >        4       30       58       59       65 </v>
   <v type="int" >        4       30       58       64       65 </v>
   <v type="int" >        4       29       30       36       64 </v>
   <v type="int" >        4       29       30       58       64 </v>
[...]
       <r>   -6.8449    1.0000 </r>
       <r>   -6.8449    1.0000 </r>
       <r>   -3.0734    1.0000 </r>
       <r>   -3.0734    1.0000 </r>
       <r>   -3.0734    1.0000 </r>
       <r>   -3.0734    1.0000 </r>
       <r>    5.0872    1.0000 </r>
       <r>    5.0872    1.0000 </r>
       <r>    5.0872    1.0000 </r>
       <r>    5.0872    1.0000 </r>
       <r>    6.1681    1.0000 </r>
       <r>    6.1681    1.0000 </r>
       <r>    6.1681    1.0000 </r>
       <r>    6.1681    1.0000 </r>
       <r>   16.5729    0.0000 </r>
       <r>   16.5729    0.0000 </r>
       <r>   16.5729    0.0000 </r>
       <r>   16.5729    0.0000 </r>
       <r>   16.8904    0.0000 </r>
       <r>   16.8904    0.0000 </r>
       <r>   16.8904    0.0000 </r>
       <r>   16.8904    0.0000 </r>
      </set>
      <set comment="kpoint 194">
       <r>   -6.9530    1.0000 </r>
       <r>   -6.9530    1.0000 </r>
       <r>   -6.3480    1.0000 </r>
       <r>   -6.3480    1.0000 </r>
       <r>   -3.7720    1.0000 </r>
       <r>   -3.7720    1.0000 </r>
       <r>   -3.1757    1.0000 </r>
       <r>   -3.1757    1.0000 </r>
       <r>    5.2964    1.0000 </r>
       <r>    5.2964    1.0000 </r>
       <r>    5.7325    1.0000 </r>
       <r>    5.7325    1.0000 </r>
       <r>    6.0694    1.0000 </r>
       <r>    6.0694    1.0000 </r>
       <r>    6.2490    1.0000 </r>
       <r>    6.2490    1.0000 </r>
       <r>   16.0795    0.0000 </r>
       <r>   16.0795    0.0000 </r>
       <r>   16.6669    0.0000 </r>
       <r>   16.6669    0.0000 </r>
       <r>   16.7882    0.0000 </r>
       <r>   16.7882    0.0000 </r>
       <r>   16.9064    0.0000 </r>
       <r>   16.9065    0.0000 </r>
      </set>
      <set comment="kpoint 195">
       <r>   -6.5759    1.0000 </r>
       <r>   -6.5759    1.0000 </r>
       <r>   -6.5759    1.0000 </r>
       <r>   -6.5759    1.0000 </r>
       <r>   -3.6518    1.0000 </r>
       <r>   -3.6518    1.0000 </r>
       <r>   -3.6518    1.0000 </r>
       <r>   -3.6518    1.0000 </r>
       <r>    5.6476    1.0000 </r>
       <r>    5.6476    1.0000 </r>
       <r>    5.6476    1.0000 </r>
       <r>    5.6476    1.0000 </r>
       <r>    6.2446    1.0000 </r>
       <r>    6.2446    1.0000 </r>
       <r>    6.2446    1.0000 </r>
       <r>    6.2446    1.0000 </r>
       <r>   16.3049    0.0000 </r>
       <r>   16.3049    0.0000 </r>
       <r>   16.3049    0.0000 </r>
       <r>   16.3049    0.0000 </r>
       <r>   16.7412    0.0000 </r>
       <r>   16.7412    0.0000 </r>
       <r>   16.7412    0.0000 </r>
       <r>   16.7412    0.0000 </r>
      </set>
      <set comment="kpoint 196">
       <r>   -6.4540    1.0000 </r>
       <r>   -6.4540    1.0000 </r>
       <r>   -6.4540    1.0000 </r>
       <r>   -6.4540    1.0000 </r>
       <r>   -3.8774    1.0000 </r>
       <r>   -3.8774    1.0000 </r>
       <r>   -3.8774    1.0000 </r>
       <r>   -3.8774    1.0000 </r>
       <r>    5.8252    1.0000 </r>
       <r>    5.8252    1.0000 </r>
       <r>    5.8252    1.0000 </r>
       <r>    5.8252    1.0000 </r>
       <r>    6.2990    1.0000 </r>
       <r>    6.2990    1.0000 </r>
       <r>    6.2990    1.0000 </r>
       <r>    6.2990    1.0000 </r>
       <r>   16.1562    0.0000 </r>
       <r>   16.1562    0.0000 </r>
       <r>   16.1562    0.0000 </r>
       <r>   16.1562    0.0000 </r>
       <r>   16.7073    0.0000 </r>
       <r>   16.7073    0.0000 </r>
       <r>   16.7073    0.0000 </r>
       <r>   16.7073    0.0000 </r>
      </set>
     </set>
    </set>
   </array>
  </eigenvalues>
  <separator name="orbital magnetization" >
   <v name="MAGDIPOLOUT">      0.00000000      0.00000000      0.00000000</v>
  </separator>
  <dos>
   <i name="efermi">      8.97241016 </i>
   <total>
    <array>
     <dimension dim="1">gridpoints</dimension>
     <dimension dim="2">spin</dimension>
     <field>energy</field>
     <field>total</field>
     <field>integrated</field>
     <set>
      <set comment="spin 1">
       <r>   -13.3864     0.0000     0.0000 </r>
       <r>   -13.2700     0.0000     0.0000 </r>
       <r>   -13.1536     0.0000     0.0000 </r>
       <r>   -13.0371     0.0000     0.0000 </r>
       <r>   -12.9207     0.0000     0.0000 </r>
       <r>   -12.8043     0.0000     0.0000 </r>
       <r>   -12.6879     0.0000     0.0000 </r>
       <r>   -12.5715     0.0000     0.0000 </r>
       <r>   -12.4551     0.0000     0.0000 </r>
       <r>   -12.3387     0.0000     0.0000 </r>
       <r>   -12.2222     0.0000     0.0000 </r>
       <r>   -12.1058     0.0000     0.0000 </r>
       <r>   -11.9894     0.0000     0.0000 </r>
       <r>   -11.8730     0.0000     0.0000 </r>
       <r>   -11.7566     0.0370     0.0005 </r>
       <r>   -11.6402     0.1623     0.0151 </r>
       <r>   -11.5238     0.2541     0.0393 </r>
       <r>   -11.4073     0.2879     0.0705 </r>
       <r>   -11.2909     0.3382     0.1070 </r>
       <r>   -11.1745     0.3801     0.1493 </r>
       <r>   -11.0581     0.4110     0.1952 </r>
       <r>   -10.9417     0.4444     0.2449 </r>
       <r>   -10.8253     0.4845     0.2990 </r>
       <r>   -10.7089     0.5090     0.3569 </r>
       <r>   -10.5924     0.5337     0.4176 </r>
       <r>   -10.4760     0.5616     0.4813 </r>
       <r>   -10.3596     0.5918     0.5485 </r>
       <r>   -10.2432     0.6184     0.6190 </r>
       <r>   -10.1268     0.6404     0.6923 </r>
       <r>   -10.0104     0.6622     0.7681 </r>
       <r>    -9.8940     0.6855     0.8466 </r>
       <r>    -9.7775     0.7101     0.9278 </r>
       <r>    -9.6611     0.7363     1.0120 </r>
       <r>    -9.5447     0.7580     1.0989 </r>
       <r>    -9.4283     0.7771     1.1883 </r>
       <r>    -9.3119     0.7970     1.2799 </r>
       <r>    -9.1955     0.8187     1.3740 </r>
       <r>    -9.0791     0.8412     1.4706 </r>
       <r>    -8.9626     0.8647     1.5699 </r>
       <r>    -8.8462     0.8864     1.6719 </r>
       <r>    -8.7298     0.9069     1.7762 </r>
       <r>    -8.6134     0.9264     1.8829 </r>
       <r>    -8.4970     0.9473     1.9920 </r>
       <r>    -8.3806     0.9690     2.1035 </r>
       <r>    -8.2642     0.9914     2.2176 </r>
       <r>    -8.1477     1.0395     2.3357 </r>
       <r>    -8.0313     1.0907     2.4603 </r>
       <r>    -7.9149     1.1363     2.5901 </r>
       <r>    -7.7985     1.1680     2.7248 </r>
       <r>    -7.6821     1.1584     2.8605 </r>
       <r>    -7.5657     1.1310     2.9936 </r>
       <r>    -7.4493     1.1212     3.1249 </r>
       <r>    -7.3328     1.1478     3.2568 </r>
       <r>    -7.2164     1.1531     3.3908 </r>
       <r>    -7.1000     1.1657     3.5253 </r>
       <r>    -6.9836     1.2184     3.6638 </r>
       <r>    -6.8672     1.2943     3.8095 </r>
       <r>    -6.7508     1.3640     3.9644 </r>
       <r>    -6.6344     1.4817     4.1292 </r>
       <r>    -6.5179     1.6313     4.3081 </r>
       <r>    -6.4015     1.7320     4.5064 </r>
       <r>    -6.2851     1.6352     4.7024 </r>
       <r>    -6.1687     1.6554     4.8941 </r>
       <r>    -6.0523     1.5673     5.0852 </r>
       <r>    -5.9359     1.5100     5.2624 </r>
       <r>    -5.8195     1.4981     5.4363 </r>
       <r>    -5.7030     1.5080     5.6112 </r>
       <r>    -5.5866     1.4068     5.7797 </r>
       <r>    -5.4702     1.3711     5.9441 </r>
       <r>    -5.3538     1.3049     6.0989 </r>
       <r>    -5.2374     1.2819     6.2498 </r>
       <r>    -5.1210     1.2822     6.3978 </r>
       <r>    -5.0046     1.2374     6.5445 </r>
       <r>    -4.8881     1.1933     6.6830 </r>
       <r>    -4.7717     1.1366     6.8168 </r>
       <r>    -4.6553     1.0901     6.9475 </r>
       <r>    -4.5389     1.0561     7.0728 </r>
       <r>    -4.4225     1.0409     7.1938 </r>
       <r>    -4.3061     1.0172     7.3139 </r>
       <r>    -4.1897     0.9682     7.4303 </r>
       <r>    -4.0732     0.8933     7.5392 </r>
       <r>    -3.9568     0.8046     7.6378 </r>
       <r>    -3.8404     0.7259     7.7268 </r>
       <r>    -3.7240     0.8507     7.8140 </r>
       <r>    -3.6076     0.8049     7.9153 </r>
       <r>    -3.4912     0.8700     8.0123 </r>
       <r>    -3.3748     0.8282     8.1107 </r>
       <r>    -3.2583     0.8105     8.2066 </r>
       <r>    -3.1419     0.9493     8.3078 </r>
       <r>    -3.0255     1.0349     8.4234 </r>
       <r>    -2.9091     1.1516     8.5496 </r>
       <r>    -2.7927     1.3425     8.6943 </r>
       <r>    -2.6763     1.6202     8.8674 </r>
       <r>    -2.5599     1.9053     9.0719 </r>
       <r>    -2.4435     2.3165     9.3168 </r>
       <r>    -2.3270     3.2036     9.6401 </r>
       <r>    -2.2106     3.1392    10.0062 </r>
       <r>    -2.0942     2.5314    10.3339 </r>
       <r>    -1.9778     2.1072    10.6024 </r>
       <r>    -1.8614     1.8770    10.8320 </r>
       <r>    -1.7450     1.7406    11.0423 </r>
       <r>    -1.6286     1.6302    11.2383 </r>
       <r>    -1.5121     1.5503    11.4231 </r>
       <r>    -1.3957     1.5148    11.6008 </r>
       <r>    -1.2793     1.4907    11.7759 </r>
       <r>    -1.1629     1.4348    11.9470 </r>
       <r>    -1.0465     1.2893    12.1073 </r>
       <r>    -0.9301     1.2215    12.2532 </r>
       <r>    -0.8137     1.1833    12.3929 </r>
       <r>    -0.6972     1.1453    12.5286 </r>
       <r>    -0.5808     1.1214    12.6604 </r>
       <r>    -0.4644     1.1002    12.7897 </r>
       <r>    -0.3480     1.0607    12.9158 </r>
       <r>    -0.2316     0.9839    13.0348 </r>
       <r>    -0.1152     1.0116    13.1492 </r>
       <r>     0.0012     1.2024    13.2776 </r>
       <r>     0.1177     1.3692    13.4271 </r>
       <r>     0.2341     1.5207    13.5971 </r>
       <r>     0.3505     1.6875    13.7820 </r>
       <r>     0.4669     2.0145    13.9974 </r>
       <r>     0.5833     2.4269    14.2564 </r>
       <r>     0.6997     2.4507    14.5471 </r>
       <r>     0.8161     2.4616    14.8315 </r>
       <r>     0.9326     2.3590    15.1162 </r>
       <r>     1.0490     2.0952    15.3756 </r>
       <r>     1.1654     1.6512    15.6006 </r>
       <r>     1.2818     1.5346    15.7770 </r>
       <r>     1.3982     1.8449    15.9742 </r>
       <r>     1.5146     2.0766    16.2020 </r>
       <r>     1.6310     2.3067    16.4585 </r>
       <r>     1.7475     2.5118    16.7396 </r>
       <r>     1.8639     2.5115    17.0334 </r>
       <r>     1.9803     2.4446    17.3243 </r>
       <r>     2.0967     2.3924    17.6054 </r>
       <r>     2.2131     2.4462    17.8841 </r>
       <r>     2.3295     2.7821    18.1871 </r>
       <r>     2.4459     3.3484    18.5437 </r>
       <r>     2.5624     3.2545    18.9387 </r>
       <r>     2.6788     2.7674    19.2871 </r>
       <r>     2.7952     2.5817    19.5921 </r>
       <r>     2.9116     2.5169    19.8955 </r>
       <r>     3.0280     2.9823    20.2085 </r>
       <r>     3.1444     3.5068    20.5934 </r>
       <r>     3.2608     3.9253    21.0325 </r>
       <r>     3.3773     3.6243    21.4828 </r>
       <r>     3.4937     3.3927    21.9012 </r>
       <r>     3.6101     3.1058    22.2769 </r>
       <r>     3.7265     2.8056    22.6190 </r>
       <r>     3.8429     2.8894    22.9427 </r>
       <r>     3.9593     3.1367    23.2959 </r>
       <r>     4.0757     2.9631    23.6546 </r>
       <r>     4.1922     3.2125    24.0181 </r>
       <r>     4.3086     3.1805    24.3899 </r>
       <r>     4.4250     3.1207    24.7550 </r>
       <r>     4.5414     3.2053    25.1229 </r>
       <r>     4.6578     3.2470    25.5014 </r>
       <r>     4.7742     2.9805    25.8675 </r>
       <r>     4.8906     2.6947    26.1961 </r>
       <r>     5.0071     2.5995    26.5022 </r>
       <r>     5.1235     2.6211    26.8087 </r>
       <r>     5.2399     2.7396    27.1178 </r>
       <r>     5.3563     2.8031    27.4398 </r>
       <r>     5.4727     2.9749    27.7774 </r>
       <r>     5.5891     2.8223    28.1169 </r>
       <r>     5.7055     2.8725    28.4462 </r>
       <r>     5.8220     2.6849    28.7693 </r>
       <r>     5.9384     2.5843    29.0829 </r>
       <r>     6.0548     2.3691    29.3716 </r>
       <r>     6.1712     2.3318    29.6410 </r>
       <r>     6.2876     1.9861    29.9200 </r>
       <r>     6.4040     1.7519    30.1359 </r>
       <r>     6.5204     1.6047    30.3314 </r>
       <r>     6.6369     1.4678    30.5098 </r>
       <r>     6.7533     1.3506    30.6735 </r>
       <r>     6.8697     1.2692    30.8260 </r>
       <r>     6.9861     1.1699    30.9678 </r>
       <r>     7.1025     1.0729    31.0980 </r>
       <r>     7.2189     0.9951    31.2182 </r>
       <r>     7.3353     0.8991    31.3288 </r>
       <r>     7.4518     0.8314    31.4294 </r>
       <r>     7.5682     0.7836    31.5233 </r>
       <r>     7.6846     0.6907    31.6088 </r>
       <r>     7.8010     0.6333    31.6861 </r>
       <r>     7.9174     0.5522    31.7549 </r>
       <r>     8.0338     0.4960    31.8154 </r>
       <r>     8.1502     0.4046    31.8683 </r>
       <r>     8.2666     0.3377    31.9125 </r>
       <r>     8.3831     0.2698    31.9484 </r>
       <r>     8.4995     0.1510    31.9738 </r>
       <r>     8.6159     0.0931    31.9875 </r>
       <r>     8.7323     0.0714    31.9963 </r>
       <r>     8.8487     0.0097    31.9996 </r>
       <r>     8.9651     0.0000    32.0000 </r>
       <r>     9.0815     0.0000    32.0000 </r>
       <r>     9.1980     0.0000    32.0000 </r>
       <r>     9.3144     0.0000    32.0000 </r>
       <r>     9.4308     0.0000    32.0000 </r>
       <r>     9.5472     0.0000    32.0000 </r>
       <r>     9.6636     0.0000    32.0000 </r>
       <r>     9.7800     0.0000    32.0000 </r>
       <r>     9.8964     0.0000    32.0000 </r>
       <r>    10.0129     0.0000    32.0000 </r>
       <r>    10.1293     0.0000    32.0000 </r>
       <r>    10.2457     0.0000    32.0000 </r>
       <r>    10.3621     0.0000    32.0000 </r>
       <r>    10.4785     0.0000    32.0000 </r>
       <r>    10.5949     0.0000    32.0000 </r>
       <r>    10.7113     0.0000    32.0000 </r>
       <r>    10.8278     0.0000    32.0000 </r>
       <r>    10.9442     0.0000    32.0000 </r>
       <r>    11.0606     0.0000    32.0000 </r>
       <r>    11.1770     0.0000    32.0000 </r>
       <r>    11.2934     0.0000    32.0000 </r>
       <r>    11.4098     0.0000    32.0000 </r>
       <r>    11.5262     0.0000    32.0000 </r>
       <r>    11.6427     0.0000    32.0000 </r>
       <r>    11.7591     0.0000    32.0000 </r>
       <r>    11.8755     0.0000    32.0000 </r>
       <r>    11.9919     0.0000    32.0000 </r>
       <r>    12.1083     0.0000    32.0000 </r>
       <r>    12.2247     0.0031    32.0000 </r>
       <r>    12.3411     0.0453    32.0025 </r>
       <r>    12.4576     0.1139    32.0115 </r>
       <r>    12.5740     0.1669    32.0286 </r>
       <r>    12.6904     0.1878    32.0492 </r>
       <r>    12.8068     0.2270    32.0731 </r>
       <r>    12.9232     0.3339    32.1047 </r>
       <r>    13.0396     0.4839    32.1523 </r>
       <r>    13.1560     0.6801    32.2188 </r>
       <r>    13.2725     0.7523    32.3130 </r>
       <r>    13.3889     0.8637    32.4032 </r>
       <r>    13.5053     0.9377    32.5088 </r>
       <r>    13.6217     1.0886    32.6256 </r>
       <r>    13.7381     1.2935    32.7672 </r>
       <r>    13.8545     1.6099    32.9312 </r>
       <r>    13.9709     1.7388    33.1367 </r>
       <r>    14.0874     1.6270    33.3352 </r>
       <r>    14.2038     1.7233    33.5290 </r>
       <r>    14.3202     1.8485    33.7387 </r>
       <r>    14.4366     1.8849    33.9555 </r>
       <r>    14.5530     2.0270    34.1812 </r>
       <r>    14.6694     2.2645    34.4303 </r>
       <r>    14.7858     2.2778    34.6937 </r>
       <r>    14.9023     2.3269    34.9607 </r>
       <r>    15.0187     2.4701    35.2421 </r>
       <r>    15.1351     2.4184    35.5246 </r>
       <r>    15.2515     2.4815    35.8092 </r>
       <r>    15.3679     2.6138    36.1046 </r>
       <r>    15.4843     2.7565    36.4186 </r>
       <r>    15.6007     2.9060    36.7474 </r>
       <r>    15.7172     3.0908    37.0988 </r>
       <r>    15.8336     3.2899    37.4680 </r>
       <r>    15.9500     3.4462    37.8665 </r>
       <r>    16.0664     3.7663    38.2871 </r>
       <r>    16.1828     4.5271    38.7657 </r>
       <r>    16.2992     4.9991    39.3371 </r>
       <r>    16.4156     4.6734    39.9377 </r>
       <r>    16.5321     3.9679    40.4295 </r>
       <r>    16.6485     3.8343    40.8981 </r>
       <r>    16.7649     3.9457    41.3505 </r>
       <r>    16.8813     3.8960    41.8104 </r>
       <r>    16.9977     4.0243    42.2709 </r>
       <r>    17.1141     4.0200    42.7429 </r>
       <r>    17.2305     3.8227    43.2018 </r>
       <r>    17.3470     3.5404    43.6288 </r>
       <r>    17.4634     3.3752    44.0347 </r>
       <r>    17.5798     3.0961    44.4085 </r>
       <r>    17.6962     2.8651    44.7587 </r>
       <r>    17.8126     2.7043    45.0809 </r>
       <r>    17.9290     2.7564    45.3974 </r>
       <r>    18.0454     2.8336    45.7229 </r>
       <r>    18.1619     2.8313    46.0545 </r>
       <r>    18.2783     2.7674    46.3778 </r>
       <r>    18.3947     2.6328    46.6931 </r>
       <r>    18.5111     2.6540    46.9973 </r>
       <r>    18.6275     2.3534    47.2930 </r>
       <r>    18.7439     1.7020    47.5306 </r>
       <r>    18.8603     1.1428    47.6949 </r>
       <r>    18.9767     0.7644    47.8045 </r>
       <r>    19.0932     0.5287    47.8784 </r>
       <r>    19.2096     0.3246    47.9279 </r>
       <r>    19.3260     0.2154    47.9589 </r>
       <r>    19.4424     0.1232    47.9788 </r>
       <r>    19.5588     0.0705    47.9895 </r>
       <r>    19.6752     0.0433    47.9960 </r>
       <r>    19.7916     0.0147    47.9992 </r>
       <r>    19.9081     0.0010    48.0000 </r>
       <r>    20.0245     0.0000    48.0000 </r>
       <r>    20.1409     0.0000    48.0000 </r>
       <r>    20.2573     0.0000    48.0000 </r>
       <r>    20.3737     0.0000    48.0000 </r>
       <r>    20.4901     0.0000    48.0000 </r>
       <r>    20.6065     0.0000    48.0000 </r>
       <r>    20.7230     0.0000    48.0000 </r>
       <r>    20.8394     0.0000    48.0000 </r>
       <r>    20.9558     0.0000    48.0000 </r>
       <r>    21.0722     0.0000    48.0000 </r>
       <r>    21.1886     0.0000    48.0000 </r>
       <r>    21.3050     0.0000    48.0000 </r>
       <r>    21.4214     0.0000    48.0000 </r>
       <r>    21.5379     0.0000    48.0000 </r>
      </set>
     </set>
    </array>
   </total>
  </dos>
 </calculation>
 <structure name="finalpos" >
  <crystal>
   <varray name="basis" >
    <v>       3.69613092       0.00000000       0.00000000 </v>
    <v>       0.00000000       3.69613092       0.00000000 </v>
    <v>       0.00000000       0.00000000       3.58999936 </v>
   </varray>
   <i name="volume">     49.04435909 </i>
   <varray name="rec_basis" >
    <v>       0.27055319       0.00000000       0.00000000 </v>
    <v>       0.00000000       0.27055319       0.00000000 </v>
    <v>       0.00000000       0.00000000       0.27855158 </v>
   </varray>
  </crystal>
  <varray name="positions" >
   <v>       0.25000000       0.75000000       0.25000000 </v>
   <v>       0.00000000       0.00000000       0.50000000 </v>
   <v>       0.25000000       0.25000000       0.75000000 </v>
   <v>       0.00000000       0.50000000       0.00000000 </v>
   <v>       0.75000000       0.75000000       0.75000000 </v>
   <v>       0.50000000       0.00000000       0.00000000 </v>
   <v>       0.75000000       0.25000000       0.25000000 </v>
   <v>       0.50000000       0.50000000       0.50000000 </v>
  </varray>
 </structure>
</modeling>
