  64  64   0   0
  0.6014872E+01  0.7322190E-09  0.7322190E-09  0.7179999E-09  0.5000000E-15
  1.000000000000000E-004
  CAR 
 unknown system                          
     21.63601223    -13.37246418  301      9.39763235      1.00000000
    -13.372  0.0000E+00  0.0000E+00
    -13.256  0.0000E+00  0.0000E+00
    -13.139  0.0000E+00  0.0000E+00
    -13.022  0.0000E+00  0.0000E+00
    -12.906  0.0000E+00  0.0000E+00
    -12.789  0.0000E+00  0.0000E+00
    -12.672  0.0000E+00  0.0000E+00
    -12.556  0.0000E+00  0.0000E+00
    -12.439  0.0000E+00  0.0000E+00
    -12.322  0.0000E+00  0.0000E+00
    -12.206  0.0000E+00  0.0000E+00
    -12.089  0.5524E-13  0.6446E-14
    -11.972  0.9062E-06  0.1057E-06
    -11.855  0.1072E-01  0.1251E-02
    -11.739  0.2337E+00  0.2852E-01
    -11.622  0.1135E+01  0.1609E+00
    -11.505  0.2072E+01  0.4027E+00
    -11.389  0.2268E+01  0.6673E+00
    -11.272  0.1738E+01  0.8701E+00
    -11.155  0.1742E+01  0.1073E+01
    -11.039  0.5478E+01  0.1713E+01
    -10.922  0.5521E+01  0.2357E+01
    -10.805  0.1499E+01  0.2532E+01
    -10.688  0.1339E+01  0.2688E+01
    -10.572  0.3907E+01  0.3144E+01
    -10.455  0.6755E+01  0.3932E+01
    -10.338  0.5585E+01  0.4584E+01
    -10.222  0.5557E+01  0.5232E+01
    -10.105  0.2668E+01  0.5544E+01
     -9.988  0.4258E+01  0.6041E+01
     -9.872  0.8236E+01  0.7002E+01
     -9.755  0.7107E+01  0.7831E+01
     -9.638  0.4436E+00  0.7883E+01
     -9.522  0.2433E+01  0.8167E+01
     -9.405  0.1039E+02  0.9379E+01
     -9.288  0.8681E+01  0.1039E+02
     -9.171  0.6810E+01  0.1119E+02
     -9.055  0.5368E+01  0.1181E+02
     -8.938  0.8410E+01  0.1279E+02
     -8.821  0.9276E+01  0.1388E+02
     -8.705  0.4467E+01  0.1440E+02
     -8.588  0.1136E+01  0.1453E+02
     -8.471  0.5504E+01  0.1517E+02
     -8.355  0.7315E+01  0.1603E+02
     -8.238  0.1460E+02  0.1773E+02
     -8.121  0.1050E+02  0.1896E+02
     -8.004  0.3215E+01  0.1933E+02
     -7.888  0.1123E+02  0.2064E+02
     -7.771  0.1258E+02  0.2211E+02
     -7.654  0.6854E+01  0.2291E+02
     -7.538  0.2514E+01  0.2320E+02
     -7.421  0.5832E+01  0.2388E+02
     -7.304  0.1312E+02  0.2541E+02
     -7.188  0.9932E+01  0.2657E+02
     -7.071  0.1203E+02  0.2798E+02
     -6.954  0.7291E+01  0.2883E+02
     -6.838  0.7553E+01  0.2971E+02
     -6.721  0.1298E+02  0.3122E+02
     -6.604  0.7659E+01  0.3212E+02
     -6.487  0.8241E+01  0.3308E+02
     -6.371  0.1655E+02  0.3501E+02
     -6.254  0.2073E+02  0.3743E+02
     -6.137  0.1001E+02  0.3860E+02
     -6.021  0.1766E+02  0.4066E+02
     -5.904  0.6388E+01  0.4140E+02
     -5.787  0.9830E+01  0.4255E+02
     -5.671  0.7705E+01  0.4345E+02
     -5.554  0.1409E+02  0.4509E+02
     -5.437  0.6086E+01  0.4580E+02
     -5.321  0.1280E+02  0.4730E+02
     -5.204  0.9073E+01  0.4836E+02
     -5.087  0.1692E+02  0.5033E+02
     -4.970  0.7015E+01  0.5115E+02
     -4.854  0.9104E+01  0.5221E+02
     -4.737  0.6624E+01  0.5299E+02
     -4.620  0.1739E+02  0.5502E+02
     -4.504  0.7293E+01  0.5587E+02
     -4.387  0.1313E+02  0.5740E+02
     -4.270  0.1029E+02  0.5860E+02
     -4.154  0.6772E+01  0.5939E+02
     -4.037  0.1734E+01  0.5959E+02
     -3.920  0.1059E+01  0.5972E+02
     -3.803  0.4688E+01  0.6026E+02
     -3.687  0.4084E+01  0.6074E+02
     -3.570  0.4410E+01  0.6126E+02
     -3.453  0.1198E+02  0.6265E+02
     -3.337  0.1063E+02  0.6389E+02
     -3.220  0.1125E+02  0.6521E+02
     -3.103  0.1042E+02  0.6642E+02
     -2.987  0.1065E+02  0.6767E+02
     -2.870  0.1604E+02  0.6954E+02
     -2.753  0.1419E+02  0.7119E+02
     -2.637  0.5756E+01  0.7186E+02
     -2.520  0.2551E+01  0.7216E+02
     -2.403  0.1675E+02  0.7412E+02
     -2.286  0.1873E+02  0.7630E+02
     -2.170  0.1102E+02  0.7759E+02
     -2.053  0.1802E+02  0.7969E+02
     -1.936  0.2447E+02  0.8255E+02
     -1.820  0.2260E+02  0.8518E+02
     -1.703  0.4367E+01  0.8569E+02
     -1.586  0.1183E+02  0.8707E+02
     -1.470  0.2750E+02  0.9028E+02
     -1.353  0.1473E+02  0.9200E+02
     -1.236  0.1828E+02  0.9413E+02
     -1.119  0.1351E+02  0.9571E+02
     -1.003  0.1086E+02  0.9698E+02
     -0.886  0.1033E+01  0.9710E+02
     -0.769  0.2603E+01  0.9740E+02
     -0.653  0.8251E+01  0.9837E+02
     -0.536  0.9758E+01  0.9950E+02
     -0.419  0.1610E+02  0.1014E+03
     -0.303  0.1273E+02  0.1029E+03
     -0.186  0.1877E+01  0.1031E+03
     -0.069  0.4602E+00  0.1031E+03
      0.047  0.8697E+01  0.1042E+03
      0.164  0.1175E+02  0.1055E+03
      0.281  0.1462E+02  0.1072E+03
      0.398  0.1689E+02  0.1092E+03
      0.514  0.2485E+02  0.1121E+03
      0.631  0.1655E+02  0.1140E+03
      0.748  0.6896E+01  0.1148E+03
      0.864  0.7570E+01  0.1157E+03
      0.981  0.2396E+02  0.1185E+03
      1.098  0.1778E+02  0.1206E+03
      1.214  0.9667E+01  0.1217E+03
      1.331  0.2382E+02  0.1245E+03
      1.448  0.1932E+02  0.1268E+03
      1.564  0.2721E+02  0.1299E+03
      1.681  0.1990E+02  0.1323E+03
      1.798  0.7764E+01  0.1332E+03
      1.915  0.1102E+02  0.1344E+03
      2.031  0.1301E+02  0.1360E+03
      2.148  0.2696E+02  0.1391E+03
      2.265  0.1569E+02  0.1409E+03
      2.381  0.2012E+02  0.1433E+03
      2.498  0.1486E+02  0.1450E+03
      2.615  0.1679E+02  0.1470E+03
      2.731  0.3477E+02  0.1510E+03
      2.848  0.3776E+02  0.1554E+03
      2.965  0.3309E+02  0.1593E+03
      3.082  0.1914E+02  0.1615E+03
      3.198  0.1479E+02  0.1633E+03
      3.315  0.1634E+02  0.1652E+03
      3.432  0.1915E+02  0.1674E+03
      3.548  0.1625E+02  0.1693E+03
      3.665  0.2532E+02  0.1723E+03
      3.782  0.4020E+02  0.1770E+03
      3.898  0.3917E+02  0.1815E+03
      4.015  0.3145E+02  0.1852E+03
      4.132  0.2661E+02  0.1883E+03
      4.248  0.1978E+02  0.1906E+03
      4.365  0.1461E+02  0.1923E+03
      4.482  0.1881E+02  0.1945E+03
      4.599  0.2021E+02  0.1969E+03
      4.715  0.2715E+02  0.2000E+03
      4.832  0.2480E+02  0.2029E+03
      4.949  0.1589E+02  0.2048E+03
      5.065  0.2883E+02  0.2081E+03
      5.182  0.2986E+02  0.2116E+03
      5.299  0.2848E+02  0.2150E+03
      5.415  0.2558E+02  0.2179E+03
      5.532  0.1306E+02  0.2195E+03
      5.649  0.1951E+02  0.2217E+03
      5.766  0.1963E+02  0.2240E+03
      5.882  0.1737E+02  0.2261E+03
      5.999  0.2061E+02  0.2285E+03
      6.116  0.1825E+02  0.2306E+03
      6.232  0.2671E+02  0.2337E+03
      6.349  0.2851E+02  0.2370E+03
      6.466  0.2347E+02  0.2398E+03
      6.582  0.1009E+02  0.2410E+03
      6.699  0.6640E+01  0.2417E+03
      6.816  0.6613E+01  0.2425E+03
      6.932  0.1022E+02  0.2437E+03
      7.049  0.1143E+02  0.2450E+03
      7.166  0.1345E+02  0.2466E+03
      7.283  0.1042E+02  0.2478E+03
      7.399  0.1475E+02  0.2495E+03
      7.516  0.9920E+01  0.2507E+03
      7.633  0.5685E+01  0.2514E+03
      7.749  0.6147E+00  0.2514E+03
      7.866  0.3352E+01  0.2518E+03
      7.983  0.4667E+01  0.2524E+03
      8.099  0.8135E+01  0.2533E+03
      8.216  0.5340E+01  0.2539E+03
      8.333  0.7062E+01  0.2548E+03
      8.449  0.3221E+01  0.2551E+03
      8.566  0.1993E+01  0.2554E+03
      8.683  0.1575E+01  0.2556E+03
      8.800  0.1213E+01  0.2557E+03
      8.916  0.2264E+01  0.2560E+03
      9.033  0.1099E+00  0.2560E+03
      9.150  0.1561E+00  0.2560E+03
      9.266  0.1098E+00  0.2560E+03
      9.383  0.3933E-03  0.2560E+03
      9.500  0.1387E-08  0.2560E+03
      9.616  0.0000E+00  0.2560E+03
      9.733  0.0000E+00  0.2560E+03
      9.850  0.0000E+00  0.2560E+03
      9.967  0.0000E+00  0.2560E+03
     10.083  0.0000E+00  0.2560E+03
     10.200  0.0000E+00  0.2560E+03
     10.317  0.0000E+00  0.2560E+03
     10.433  0.0000E+00  0.2560E+03
     10.550  0.0000E+00  0.2560E+03
     10.667  0.0000E+00  0.2560E+03
     10.783  0.0000E+00  0.2560E+03
     10.900  0.0000E+00  0.2560E+03
     11.017  0.0000E+00  0.2560E+03
     11.133  0.0000E+00  0.2560E+03
     11.250  0.0000E+00  0.2560E+03
     11.367  0.0000E+00  0.2560E+03
     11.484  0.0000E+00  0.2560E+03
     11.600  0.0000E+00  0.2560E+03
     11.717  0.0000E+00  0.2560E+03
     11.834  0.0000E+00  0.2560E+03
     11.950  0.0000E+00  0.2560E+03
     12.067  0.0000E+00  0.2560E+03
     12.184  0.0000E+00  0.2560E+03
     12.300  0.6541E-15  0.2560E+03
     12.417  0.6480E-07  0.2560E+03
     12.534  0.4245E-02  0.2560E+03
     12.651  0.3816E+00  0.2560E+03
     12.767  0.7373E+00  0.2561E+03
     12.884  0.4758E+00  0.2562E+03
     13.001  0.4344E+00  0.2562E+03
     13.117  0.1308E+01  0.2564E+03
     13.234  0.2949E+01  0.2567E+03
     13.351  0.4960E+01  0.2573E+03
     13.467  0.4748E+01  0.2579E+03
     13.584  0.5132E+01  0.2585E+03
     13.701  0.7541E+01  0.2593E+03
     13.817  0.8447E+01  0.2603E+03
     13.934  0.1375E+02  0.2619E+03
     14.051  0.1150E+02  0.2633E+03
     14.168  0.5395E+01  0.2639E+03
     14.284  0.1159E+02  0.2653E+03
     14.401  0.1538E+02  0.2671E+03
     14.518  0.6505E+01  0.2678E+03
     14.634  0.1217E+02  0.2692E+03
     14.751  0.2314E+02  0.2719E+03
     14.868  0.1509E+02  0.2737E+03
     14.984  0.1383E+02  0.2753E+03
     15.101  0.2311E+02  0.2780E+03
     15.218  0.2063E+02  0.2804E+03
     15.334  0.1733E+02  0.2824E+03
     15.451  0.2233E+02  0.2850E+03
     15.568  0.2315E+02  0.2877E+03
     15.685  0.2080E+02  0.2902E+03
     15.801  0.2285E+02  0.2928E+03
     15.918  0.2080E+02  0.2953E+03
     16.035  0.1646E+02  0.2972E+03
     16.151  0.1243E+02  0.2986E+03
     16.268  0.2440E+02  0.3015E+03
     16.385  0.2424E+02  0.3043E+03
     16.501  0.3696E+02  0.3086E+03
     16.618  0.2880E+02  0.3120E+03
     16.735  0.4585E+02  0.3173E+03
     16.852  0.5295E+02  0.3235E+03
     16.968  0.3386E+02  0.3275E+03
     17.085  0.2255E+02  0.3301E+03
     17.202  0.3922E+02  0.3347E+03
     17.318  0.3412E+02  0.3387E+03
     17.435  0.2368E+02  0.3414E+03
     17.552  0.3059E+02  0.3450E+03
     17.668  0.3827E+02  0.3495E+03
     17.785  0.3576E+02  0.3536E+03
     17.902  0.2877E+02  0.3570E+03
     18.018  0.1826E+02  0.3591E+03
     18.135  0.2676E+02  0.3622E+03
     18.252  0.3607E+02  0.3664E+03
     18.369  0.3271E+02  0.3703E+03
     18.485  0.2864E+02  0.3736E+03
     18.602  0.1540E+02  0.3754E+03
     18.719  0.1656E+02  0.3773E+03
     18.835  0.8301E+01  0.3783E+03
     18.952  0.6965E+01  0.3791E+03
     19.069  0.7002E+01  0.3799E+03
     19.185  0.1484E+02  0.3817E+03
     19.302  0.5788E+01  0.3823E+03
     19.419  0.3490E+01  0.3827E+03
     19.536  0.3070E+01  0.3831E+03
     19.652  0.3040E+01  0.3835E+03
     19.769  0.1753E+01  0.3837E+03
     19.886  0.7113E+00  0.3837E+03
     20.002  0.3414E+00  0.3838E+03
     20.119  0.1717E+01  0.3840E+03
     20.236  0.8575E-01  0.3840E+03
     20.352  0.7250E-05  0.3840E+03
     20.469  0.4419E-12  0.3840E+03
     20.586  0.0000E+00  0.3840E+03
     20.702  0.0000E+00  0.3840E+03
     20.819  0.0000E+00  0.3840E+03
     20.936  0.0000E+00  0.3840E+03
     21.053  0.0000E+00  0.3840E+03
     21.169  0.0000E+00  0.3840E+03
     21.286  0.0000E+00  0.3840E+03
     21.403  0.0000E+00  0.3840E+03
     21.519  0.0000E+00  0.3840E+03
     21.636  0.0000E+00  0.3840E+03
