  64   64
1 1
    39.116408429179998    -0.000000000000000     0.000000000000000
    -0.000000000000000    39.116408429179998     0.000000000000000
     0.000000000000000     0.000000000000000    39.830381665259999
1 2
    -0.150493746260000    -0.000000000000000     0.000000000000000
    -0.000000000000000    -0.089452402940000     0.000000000000000
     0.000000000000000     0.000000000000000    -0.100708871920000
1 3
    -0.089452402940000     0.000000000000000     0.000000000000000
     0.000000000000000    -0.150493746260000     0.000000000000000
     0.000000000000000     0.000000000000000    -0.100708871920000
1 4
    -0.096079111860000    -0.000000000000000    -0.000000000000000
    -0.000000000000000    -0.096079111860000    -0.000000000000000
    -0.000000000000000    -0.000000000000000     0.574374908140000
1 5
    -0.083310337870000    -0.000000000000000    -0.000000000000000
    -0.000000000000000    -0.083310337870000     0.000000000000000
    -0.000000000000000     0.000000000000000    -0.144084916880000
1 6
    -0.103995922290000    -0.000000000000000    -0.000000000000000
    -0.000000000000000     0.551408434820000    -0.000000000000000
    -0.000000000000000    -0.000000000000000    -0.107241054270000
1 7
     0.551408434820000     0.000000000000000     0.000000000000000
     0.000000000000000    -0.103995922290000    -0.000000000000000
     0.000000000000000    -0.000000000000000    -0.107241054270000
1 8
    -0.047945269580000    -0.000000000000000    -0.000000000000000
    -0.000000000000000    -0.047945269580000    -0.000000000000000
    -0.000000000000000    -0.000000000000000    -0.049971164950000
1 9
     0.147888560360000     0.094455584990000    -0.018999840570000
     0.094455584990000     0.070882916500000    -0.096241860910000
    -0.018999840570000    -0.096241860910000     0.157393104880000
1 10
    -0.057574608390000     0.072428011540000     0.198889548450000
     0.072428011540000    -0.057574608390000    -0.198889548450000
     0.198889548450000    -0.198889548450000    -0.350354143840000
1 11
    -8.111693829509999     1.303845096750000     1.247843689140000
     1.303845096750000    -8.111693829509999    -1.247843689140000
     1.247843689140000    -1.247843689140000    -8.277520698260000
1 12
     0.070882916500000     0.094455584990000     0.096241860910000
     0.094455584990000     0.147888560360000     0.018999840570000
     0.096241860910000     0.018999840570000     0.157393104880000
1 13
    -0.330173862190000     0.203384304870000     0.197258334540000
     0.203384304870000    -0.078506418310000    -0.101158924090000
     0.197258334540000    -0.101158924090000    -0.084348088270000
1 14
     0.031682976130000     0.032613348190000     0.030540249590000
     0.032613348190000     0.031682976130000    -0.030540249590000
     0.030540249590000    -0.030540249590000     0.033399588250000
1 15
     0.144972649890000    -0.006703939650000     0.080989452340000
    -0.006703939650000     0.144972649890000    -0.080989452340000
     0.080989452340000    -0.080989452340000     0.049333981400000
1 16
    -0.078506418310000     0.203384304870000     0.101158924090000
     0.203384304870000    -0.330173862190000    -0.197258334540000
     0.101158924090000    -0.197258334540000    -0.084348088270000
1 17
     1.309014751260000    -0.650778080240000     0.673204418890000
     0.650778080240000    -1.430418936510000     1.478792398240000
    -0.673204418890000     1.478792398240000    -1.397341483280000
1 18
     0.046798339190000    -0.035819444420000     0.034528382030000
     0.035819444420000    -0.078455972110000    -0.075596273120000
    -0.034528382030000    -0.075596273120000    -0.077817827680000
1 19
     1.309014751260000    -0.650778080240000    -0.673204418890000
     0.650778080240000    -1.430418936510000    -1.478792398240000
     0.673204418890000    -1.478792398240000    -1.397341483280000
1 20
     0.046798339190000    -0.035819444420000    -0.034528382030000
     0.035819444420000    -0.078455972110000     0.075596273120000
     0.034528382030000     0.075596273120000    -0.077817827680000
1 21
     1.309014751260000     0.650778080240000     0.673204418890000
    -0.650778080240000    -1.430418936510000    -1.478792398240000
    -0.673204418890000    -1.478792398240000    -1.397341483280000
1 22
     0.046798339190000     0.035819444420000     0.034528382030000
    -0.035819444420000    -0.078455972110000     0.075596273120000
    -0.034528382030000     0.075596273120000    -0.077817827680000
1 23
     1.309014751260000     0.650778080240000    -0.673204418890000
    -0.650778080240000    -1.430418936510000     1.478792398240000
     0.673204418890000     1.478792398240000    -1.397341483280000
1 24
     0.046798339190000     0.035819444420000    -0.034528382030000
    -0.035819444420000    -0.078455972110000    -0.075596273120000
     0.034528382030000    -0.075596273120000    -0.077817827680000
1 25
    -8.111693829509999    -1.303845096750000    -1.247843689140000
    -1.303845096750000    -8.111693829509999    -1.247843689140000
    -1.247843689140000    -1.247843689140000    -8.277520698260000
1 26
     0.070882916500000    -0.094455584990000    -0.096241860910000
    -0.094455584990000     0.147888560360000     0.018999840570000
    -0.096241860910000     0.018999840570000     0.157393104880000
1 27
     0.147888560360000    -0.094455584990000     0.018999840570000
    -0.094455584990000     0.070882916500000    -0.096241860910000
     0.018999840570000    -0.096241860910000     0.157393104880000
1 28
    -0.057574608390000    -0.072428011540000    -0.198889548450000
    -0.072428011540000    -0.057574608390000    -0.198889548450000
    -0.198889548450000    -0.198889548450000    -0.350354143840000
1 29
     0.144972649890000     0.006703939650000    -0.080989452340000
     0.006703939650000     0.144972649890000    -0.080989452340000
    -0.080989452340000    -0.080989452340000     0.049333981400000
1 30
    -0.078506418310000    -0.203384304870000    -0.101158924090000
    -0.203384304870000    -0.330173862190000    -0.197258334540000
    -0.101158924090000    -0.197258334540000    -0.084348088270000
1 31
    -0.330173862190000    -0.203384304870000    -0.197258334540000
    -0.203384304870000    -0.078506418310000    -0.101158924090000
    -0.197258334540000    -0.101158924090000    -0.084348088270000
1 32
     0.031682976130000    -0.032613348190000    -0.030540249590000
    -0.032613348190000     0.031682976130000    -0.030540249590000
    -0.030540249590000    -0.030540249590000     0.033399588250000
1 33
    -1.430418936510000     0.650778080240000    -1.478792398240000
    -0.650778080240000     1.309014751260000    -0.673204418890000
    -1.478792398240000     0.673204418890000    -1.397341483280000
1 34
    -1.430418936510000     0.650778080240000     1.478792398240000
    -0.650778080240000     1.309014751260000     0.673204418890000
     1.478792398240000    -0.673204418890000    -1.397341483280000
1 35
    -0.078455972110000     0.035819444420000     0.075596273120000
    -0.035819444420000     0.046798339190000    -0.034528382030000
     0.075596273120000     0.034528382030000    -0.077817827680000
1 36
    -0.078455972110000     0.035819444420000    -0.075596273120000
    -0.035819444420000     0.046798339190000     0.034528382030000
    -0.075596273120000    -0.034528382030000    -0.077817827680000
1 37
    -1.430418936510000    -0.650778080240000     1.478792398240000
     0.650778080240000     1.309014751260000    -0.673204418890000
     1.478792398240000     0.673204418890000    -1.397341483280000
1 38
    -1.430418936510000    -0.650778080240000    -1.478792398240000
     0.650778080240000     1.309014751260000     0.673204418890000
    -1.478792398240000    -0.673204418890000    -1.397341483280000
1 39
    -0.078455972110000    -0.035819444420000    -0.075596273120000
     0.035819444420000     0.046798339190000    -0.034528382030000
    -0.075596273120000     0.034528382030000    -0.077817827680000
1 40
    -0.078455972110000    -0.035819444420000     0.075596273120000
     0.035819444420000     0.046798339190000     0.034528382030000
     0.075596273120000    -0.034528382030000    -0.077817827680000
1 41
     0.147888560360000    -0.094455584990000    -0.018999840570000
    -0.094455584990000     0.070882916500000     0.096241860910000
    -0.018999840570000     0.096241860910000     0.157393104880000
1 42
    -0.057574608390000    -0.072428011540000     0.198889548450000
    -0.072428011540000    -0.057574608390000     0.198889548450000
     0.198889548450000     0.198889548450000    -0.350354143840000
1 43
    -8.111693829509999    -1.303845096750000     1.247843689140000
    -1.303845096750000    -8.111693829509999     1.247843689140000
     1.247843689140000     1.247843689140000    -8.277520698260000
1 44
     0.070882916500000    -0.094455584990000     0.096241860910000
    -0.094455584990000     0.147888560360000    -0.018999840570000
     0.096241860910000    -0.018999840570000     0.157393104880000
1 45
    -0.330173862190000    -0.203384304870000     0.197258334540000
    -0.203384304870000    -0.078506418310000     0.101158924090000
     0.197258334540000     0.101158924090000    -0.084348088270000
1 46
     0.031682976130000    -0.032613348190000     0.030540249590000
    -0.032613348190000     0.031682976130000     0.030540249590000
     0.030540249590000     0.030540249590000     0.033399588250000
1 47
     0.144972649890000     0.006703939650000     0.080989452340000
     0.006703939650000     0.144972649890000     0.080989452340000
     0.080989452340000     0.080989452340000     0.049333981400000
1 48
    -0.078506418310000    -0.203384304870000     0.101158924090000
    -0.203384304870000    -0.330173862190000     0.197258334540000
     0.101158924090000     0.197258334540000    -0.084348088270000
1 49
    -1.357879583000000     1.381482759430000    -0.660150383650000
     1.381482759430000    -1.357879583000000     0.660150383650000
     0.660150383650000    -0.660150383650000     1.344510979670000
1 50
    -1.357879583000000    -1.381482759430000    -0.660150383650000
    -1.381482759430000    -1.357879583000000    -0.660150383650000
     0.660150383650000     0.660150383650000     1.344510979670000
1 51
    -1.357879583000000    -1.381482759430000     0.660150383650000
    -1.381482759430000    -1.357879583000000     0.660150383650000
    -0.660150383650000    -0.660150383650000     1.344510979670000
1 52
    -1.357879583000000     1.381482759430000     0.660150383650000
     1.381482759430000    -1.357879583000000    -0.660150383650000
    -0.660150383650000     0.660150383650000     1.344510979670000
1 53
    -0.080672001610000    -0.079680853890000    -0.033576149950000
    -0.079680853890000    -0.080672001610000     0.033576149950000
     0.033576149950000    -0.033576149950000     0.056158751710000
1 54
    -0.080672001610000     0.079680853890000    -0.033576149950000
     0.079680853890000    -0.080672001610000    -0.033576149950000
     0.033576149950000     0.033576149950000     0.056158751710000
1 55
    -0.080672001610000     0.079680853890000     0.033576149950000
     0.079680853890000    -0.080672001610000     0.033576149950000
    -0.033576149950000    -0.033576149950000     0.056158751710000
1 56
    -0.080672001610000    -0.079680853890000     0.033576149950000
    -0.079680853890000    -0.080672001610000    -0.033576149950000
    -0.033576149950000     0.033576149950000     0.056158751710000
1 57
    -8.111693829509999     1.303845096750000    -1.247843689140000
     1.303845096750000    -8.111693829509999     1.247843689140000
    -1.247843689140000     1.247843689140000    -8.277520698260000
1 58
     0.070882916500000     0.094455584990000    -0.096241860910000
     0.094455584990000     0.147888560360000    -0.018999840570000
    -0.096241860910000    -0.018999840570000     0.157393104880000
1 59
     0.147888560360000     0.094455584990000     0.018999840570000
     0.094455584990000     0.070882916500000     0.096241860910000
     0.018999840570000     0.096241860910000     0.157393104880000
1 60
    -0.057574608390000     0.072428011540000    -0.198889548450000
     0.072428011540000    -0.057574608390000     0.198889548450000
    -0.198889548450000     0.198889548450000    -0.350354143840000
1 61
     0.144972649890000    -0.006703939650000    -0.080989452340000
    -0.006703939650000     0.144972649890000     0.080989452340000
    -0.080989452340000     0.080989452340000     0.049333981400000
1 62
    -0.078506418310000     0.203384304870000    -0.101158924090000
     0.203384304870000    -0.330173862190000     0.197258334540000
    -0.101158924090000     0.197258334540000    -0.084348088270000
1 63
    -0.330173862190000     0.203384304870000    -0.197258334540000
     0.203384304870000    -0.078506418310000     0.101158924090000
    -0.197258334540000     0.101158924090000    -0.084348088270000
1 64
     0.031682976130000     0.032613348190000    -0.030540249590000
     0.032613348190000     0.031682976130000     0.030540249590000
    -0.030540249590000     0.030540249590000     0.033399588250000
2 1
    -0.150493746260000    -0.000000000000000     0.000000000000000
    -0.000000000000000    -0.089452402940000     0.000000000000000
     0.000000000000000     0.000000000000000    -0.100708871920000
2 2
    39.116408429179998    -0.000000000000000     0.000000000000000
    -0.000000000000000    39.116408429179998     0.000000000000000
     0.000000000000000     0.000000000000000    39.830381665259999
2 3
    -0.096079111860000    -0.000000000000000    -0.000000000000000
    -0.000000000000000    -0.096079111860000    -0.000000000000000
    -0.000000000000000    -0.000000000000000     0.574374908140000
2 4
    -0.089452402940000     0.000000000000000     0.000000000000000
     0.000000000000000    -0.150493746260000     0.000000000000000
     0.000000000000000     0.000000000000000    -0.100708871920000
2 5
    -0.103995922290000    -0.000000000000000    -0.000000000000000
    -0.000000000000000     0.551408434820000    -0.000000000000000
    -0.000000000000000    -0.000000000000000    -0.107241054270000
2 6
    -0.083310337870000    -0.000000000000000    -0.000000000000000
    -0.000000000000000    -0.083310337870000     0.000000000000000
    -0.000000000000000     0.000000000000000    -0.144084916880000
2 7
    -0.047945269580000    -0.000000000000000    -0.000000000000000
    -0.000000000000000    -0.047945269580000    -0.000000000000000
    -0.000000000000000    -0.000000000000000    -0.049971164950000
2 8
     0.551408434820000     0.000000000000000     0.000000000000000
     0.000000000000000    -0.103995922290000    -0.000000000000000
     0.000000000000000    -0.000000000000000    -0.107241054270000
2 9
    -0.057574608390000     0.072428011540000     0.198889548450000
     0.072428011540000    -0.057574608390000    -0.198889548450000
     0.198889548450000    -0.198889548450000    -0.350354143840000
2 10
     0.147888560360000     0.094455584990000    -0.018999840570000
     0.094455584990000     0.070882916500000    -0.096241860910000
    -0.018999840570000    -0.096241860910000     0.157393104880000
2 11
     0.070882916500000     0.094455584990000     0.096241860910000
     0.094455584990000     0.147888560360000     0.018999840570000
     0.096241860910000     0.018999840570000     0.157393104880000
2 12
    -8.111693829509999     1.303845096750000     1.247843689140000
     1.303845096750000    -8.111693829509999    -1.247843689140000
     1.247843689140000    -1.247843689140000    -8.277520698260000
2 13
     0.031682976130000     0.032613348190000     0.030540249590000
     0.032613348190000     0.031682976130000    -0.030540249590000
     0.030540249590000    -0.030540249590000     0.033399588250000
2 14
    -0.330173862190000     0.203384304870000     0.197258334540000
     0.203384304870000    -0.078506418310000    -0.101158924090000
     0.197258334540000    -0.101158924090000    -0.084348088270000
2 15
    -0.078506418310000     0.203384304870000     0.101158924090000
     0.203384304870000    -0.330173862190000    -0.197258334540000
     0.101158924090000    -0.197258334540000    -0.084348088270000
2 16
     0.144972649890000    -0.006703939650000     0.080989452340000
    -0.006703939650000     0.144972649890000    -0.080989452340000
     0.080989452340000    -0.080989452340000     0.049333981400000
2 17
     0.046798339190000    -0.035819444420000     0.034528382030000
     0.035819444420000    -0.078455972110000    -0.075596273120000
    -0.034528382030000    -0.075596273120000    -0.077817827680000
2 18
     1.309014751260000    -0.650778080240000     0.673204418890000
     0.650778080240000    -1.430418936510000     1.478792398240000
    -0.673204418890000     1.478792398240000    -1.397341483280000
2 19
     0.046798339190000    -0.035819444420000    -0.034528382030000
     0.035819444420000    -0.078455972110000     0.075596273120000
     0.034528382030000     0.075596273120000    -0.077817827680000
2 20
     1.309014751260000    -0.650778080240000    -0.673204418890000
     0.650778080240000    -1.430418936510000    -1.478792398240000
     0.673204418890000    -1.478792398240000    -1.397341483280000
2 21
     0.046798339190000     0.035819444420000     0.034528382030000
    -0.035819444420000    -0.078455972110000     0.075596273120000
    -0.034528382030000     0.075596273120000    -0.077817827680000
2 22
     1.309014751260000     0.650778080240000     0.673204418890000
    -0.650778080240000    -1.430418936510000    -1.478792398240000
    -0.673204418890000    -1.478792398240000    -1.397341483280000
2 23
     0.046798339190000     0.035819444420000    -0.034528382030000
    -0.035819444420000    -0.078455972110000    -0.075596273120000
     0.034528382030000    -0.075596273120000    -0.077817827680000
2 24
     1.309014751260000     0.650778080240000    -0.673204418890000
    -0.650778080240000    -1.430418936510000     1.478792398240000
     0.673204418890000     1.478792398240000    -1.397341483280000
2 25
     0.070882916500000    -0.094455584990000    -0.096241860910000
    -0.094455584990000     0.147888560360000     0.018999840570000
    -0.096241860910000     0.018999840570000     0.157393104880000
2 26
    -8.111693829509999    -1.303845096750000    -1.247843689140000
    -1.303845096750000    -8.111693829509999    -1.247843689140000
    -1.247843689140000    -1.247843689140000    -8.277520698260000
2 27
    -0.057574608390000    -0.072428011540000    -0.198889548450000
    -0.072428011540000    -0.057574608390000    -0.198889548450000
    -0.198889548450000    -0.198889548450000    -0.350354143840000
2 28
     0.147888560360000    -0.094455584990000     0.018999840570000
    -0.094455584990000     0.070882916500000    -0.096241860910000
     0.018999840570000    -0.096241860910000     0.157393104880000
2 29
    -0.078506418310000    -0.203384304870000    -0.101158924090000
    -0.203384304870000    -0.330173862190000    -0.197258334540000
    -0.101158924090000    -0.197258334540000    -0.084348088270000
2 30
     0.144972649890000     0.006703939650000    -0.080989452340000
     0.006703939650000     0.144972649890000    -0.080989452340000
    -0.080989452340000    -0.080989452340000     0.049333981400000
2 31
     0.031682976130000    -0.032613348190000    -0.030540249590000
    -0.032613348190000     0.031682976130000    -0.030540249590000
    -0.030540249590000    -0.030540249590000     0.033399588250000
2 32
    -0.330173862190000    -0.203384304870000    -0.197258334540000
    -0.203384304870000    -0.078506418310000    -0.101158924090000
    -0.197258334540000    -0.101158924090000    -0.084348088270000
2 33
    -1.430418936510000     0.650778080240000     1.478792398240000
    -0.650778080240000     1.309014751260000     0.673204418890000
     1.478792398240000    -0.673204418890000    -1.397341483280000
2 34
    -1.430418936510000     0.650778080240000    -1.478792398240000
    -0.650778080240000     1.309014751260000    -0.673204418890000
    -1.478792398240000     0.673204418890000    -1.397341483280000
2 35
    -0.078455972110000     0.035819444420000    -0.075596273120000
    -0.035819444420000     0.046798339190000     0.034528382030000
    -0.075596273120000    -0.034528382030000    -0.077817827680000
2 36
    -0.078455972110000     0.035819444420000     0.075596273120000
    -0.035819444420000     0.046798339190000    -0.034528382030000
     0.075596273120000     0.034528382030000    -0.077817827680000
2 37
    -1.430418936510000    -0.650778080240000    -1.478792398240000
     0.650778080240000     1.309014751260000     0.673204418890000
    -1.478792398240000    -0.673204418890000    -1.397341483280000
2 38
    -1.430418936510000    -0.650778080240000     1.478792398240000
     0.650778080240000     1.309014751260000    -0.673204418890000
     1.478792398240000     0.673204418890000    -1.397341483280000
2 39
    -0.078455972110000    -0.035819444420000     0.075596273120000
     0.035819444420000     0.046798339190000     0.034528382030000
     0.075596273120000    -0.034528382030000    -0.077817827680000
2 40
    -0.078455972110000    -0.035819444420000    -0.075596273120000
     0.035819444420000     0.046798339190000    -0.034528382030000
    -0.075596273120000     0.034528382030000    -0.077817827680000
2 41
    -0.057574608390000    -0.072428011540000     0.198889548450000
    -0.072428011540000    -0.057574608390000     0.198889548450000
     0.198889548450000     0.198889548450000    -0.350354143840000
2 42
     0.147888560360000    -0.094455584990000    -0.018999840570000
    -0.094455584990000     0.070882916500000     0.096241860910000
    -0.018999840570000     0.096241860910000     0.157393104880000
2 43
     0.070882916500000    -0.094455584990000     0.096241860910000
    -0.094455584990000     0.147888560360000    -0.018999840570000
     0.096241860910000    -0.018999840570000     0.157393104880000
2 44
    -8.111693829509999    -1.303845096750000     1.247843689140000
    -1.303845096750000    -8.111693829509999     1.247843689140000
     1.247843689140000     1.247843689140000    -8.277520698260000
2 45
     0.031682976130000    -0.032613348190000     0.030540249590000
    -0.032613348190000     0.031682976130000     0.030540249590000
     0.030540249590000     0.030540249590000     0.033399588250000
2 46
    -0.330173862190000    -0.203384304870000     0.197258334540000
    -0.203384304870000    -0.078506418310000     0.101158924090000
     0.197258334540000     0.101158924090000    -0.084348088270000
2 47
    -0.078506418310000    -0.203384304870000     0.101158924090000
    -0.203384304870000    -0.330173862190000     0.197258334540000
     0.101158924090000     0.197258334540000    -0.084348088270000
2 48
     0.144972649890000     0.006703939650000     0.080989452340000
     0.006703939650000     0.144972649890000     0.080989452340000
     0.080989452340000     0.080989452340000     0.049333981400000
2 49
    -1.357879583000000    -1.381482759430000    -0.660150383650000
    -1.381482759430000    -1.357879583000000    -0.660150383650000
     0.660150383650000     0.660150383650000     1.344510979670000
2 50
    -1.357879583000000     1.381482759430000    -0.660150383650000
     1.381482759430000    -1.357879583000000     0.660150383650000
     0.660150383650000    -0.660150383650000     1.344510979670000
2 51
    -1.357879583000000     1.381482759430000     0.660150383650000
     1.381482759430000    -1.357879583000000    -0.660150383650000
    -0.660150383650000     0.660150383650000     1.344510979670000
2 52
    -1.357879583000000    -1.381482759430000     0.660150383650000
    -1.381482759430000    -1.357879583000000     0.660150383650000
    -0.660150383650000    -0.660150383650000     1.344510979670000
2 53
    -0.080672001610000     0.079680853890000    -0.033576149950000
     0.079680853890000    -0.080672001610000    -0.033576149950000
     0.033576149950000     0.033576149950000     0.056158751710000
2 54
    -0.080672001610000    -0.079680853890000    -0.033576149950000
    -0.079680853890000    -0.080672001610000     0.033576149950000
     0.033576149950000    -0.033576149950000     0.056158751710000
2 55
    -0.080672001610000    -0.079680853890000     0.033576149950000
    -0.079680853890000    -0.080672001610000    -0.033576149950000
    -0.033576149950000     0.033576149950000     0.056158751710000
2 56
    -0.080672001610000     0.079680853890000     0.033576149950000
     0.079680853890000    -0.080672001610000     0.033576149950000
    -0.033576149950000    -0.033576149950000     0.056158751710000
2 57
     0.070882916500000     0.094455584990000    -0.096241860910000
     0.094455584990000     0.147888560360000    -0.018999840570000
    -0.096241860910000    -0.018999840570000     0.157393104880000
2 58
    -8.111693829509999     1.303845096750000    -1.247843689140000
     1.303845096750000    -8.111693829509999     1.247843689140000
    -1.247843689140000     1.247843689140000    -8.277520698260000
2 59
    -0.057574608390000     0.072428011540000    -0.198889548450000
     0.072428011540000    -0.057574608390000     0.198889548450000
    -0.198889548450000     0.198889548450000    -0.350354143840000
2 60
     0.147888560360000     0.094455584990000     0.018999840570000
     0.094455584990000     0.070882916500000     0.096241860910000
     0.018999840570000     0.096241860910000     0.157393104880000
2 61
    -0.078506418310000     0.203384304870000    -0.101158924090000
     0.203384304870000    -0.330173862190000     0.197258334540000
    -0.101158924090000     0.197258334540000    -0.084348088270000
2 62
     0.144972649890000    -0.006703939650000    -0.080989452340000
    -0.006703939650000     0.144972649890000     0.080989452340000
    -0.080989452340000     0.080989452340000     0.049333981400000
2 63
     0.031682976130000     0.032613348190000    -0.030540249590000
     0.032613348190000     0.031682976130000     0.030540249590000
    -0.030540249590000     0.030540249590000     0.033399588250000
2 64
    -0.330173862190000     0.203384304870000    -0.197258334540000
     0.203384304870000    -0.078506418310000     0.101158924090000
    -0.197258334540000     0.101158924090000    -0.084348088270000
3 1
    -0.089452402940000     0.000000000000000     0.000000000000000
     0.000000000000000    -0.150493746260000     0.000000000000000
     0.000000000000000     0.000000000000000    -0.100708871920000
3 2
    -0.096079111860000    -0.000000000000000    -0.000000000000000
    -0.000000000000000    -0.096079111860000    -0.000000000000000
    -0.000000000000000    -0.000000000000000     0.574374908140000
3 3
    39.116408429179998    -0.000000000000000     0.000000000000000
    -0.000000000000000    39.116408429179998     0.000000000000000
     0.000000000000000     0.000000000000000    39.830381665259999
3 4
    -0.150493746260000    -0.000000000000000     0.000000000000000
    -0.000000000000000    -0.089452402940000     0.000000000000000
     0.000000000000000     0.000000000000000    -0.100708871920000
3 5
     0.551408434820000     0.000000000000000     0.000000000000000
     0.000000000000000    -0.103995922290000    -0.000000000000000
     0.000000000000000    -0.000000000000000    -0.107241054270000
3 6
    -0.047945269580000    -0.000000000000000    -0.000000000000000
    -0.000000000000000    -0.047945269580000    -0.000000000000000
    -0.000000000000000    -0.000000000000000    -0.049971164950000
3 7
    -0.083310337870000    -0.000000000000000    -0.000000000000000
    -0.000000000000000    -0.083310337870000     0.000000000000000
    -0.000000000000000     0.000000000000000    -0.144084916880000
3 8
    -0.103995922290000    -0.000000000000000    -0.000000000000000
    -0.000000000000000     0.551408434820000    -0.000000000000000
    -0.000000000000000    -0.000000000000000    -0.107241054270000
3 9
    -8.111693829509999     1.303845096750000     1.247843689140000
     1.303845096750000    -8.111693829509999    -1.247843689140000
     1.247843689140000    -1.247843689140000    -8.277520698260000
3 10
     0.070882916500000     0.094455584990000     0.096241860910000
     0.094455584990000     0.147888560360000     0.018999840570000
     0.096241860910000     0.018999840570000     0.157393104880000
3 11
     0.147888560360000     0.094455584990000    -0.018999840570000
     0.094455584990000     0.070882916500000    -0.096241860910000
    -0.018999840570000    -0.096241860910000     0.157393104880000
3 12
    -0.057574608390000     0.072428011540000     0.198889548450000
     0.072428011540000    -0.057574608390000    -0.198889548450000
     0.198889548450000    -0.198889548450000    -0.350354143840000
3 13
     0.144972649890000    -0.006703939650000     0.080989452340000
    -0.006703939650000     0.144972649890000    -0.080989452340000
     0.080989452340000    -0.080989452340000     0.049333981400000
3 14
    -0.078506418310000     0.203384304870000     0.101158924090000
     0.203384304870000    -0.330173862190000    -0.197258334540000
     0.101158924090000    -0.197258334540000    -0.084348088270000
3 15
    -0.330173862190000     0.203384304870000     0.197258334540000
     0.203384304870000    -0.078506418310000    -0.101158924090000
     0.197258334540000    -0.101158924090000    -0.084348088270000
3 16
     0.031682976130000     0.032613348190000     0.030540249590000
     0.032613348190000     0.031682976130000    -0.030540249590000
     0.030540249590000    -0.030540249590000     0.033399588250000
3 17
     1.309014751260000    -0.650778080240000    -0.673204418890000
     0.650778080240000    -1.430418936510000    -1.478792398240000
     0.673204418890000    -1.478792398240000    -1.397341483280000
3 18
     0.046798339190000    -0.035819444420000    -0.034528382030000
     0.035819444420000    -0.078455972110000     0.075596273120000