       N       E                     dE             d eps       ncg     rms          rms(c)
DAV:   1     0.499072939183E+03    0.49907E+03   -0.11262E+05  6912   0.105E+03
DAV:   2    -0.554650315158E+03   -0.10537E+04   -0.10016E+04  9184   0.228E+02
DAV:   3    -0.596642440759E+03   -0.41992E+02   -0.41728E+02  9216   0.426E+01
DAV:   4    -0.597136634164E+03   -0.49419E+00   -0.49310E+00  9248   0.504E+00
DAV:   5    -0.597147719636E+03   -0.11085E-01   -0.11081E-01  8608   0.703E-01    0.250E+01
DAV:   6    -0.584556254282E+03    0.12591E+02   -0.84370E+00  8160   0.574E+00    0.139E+01
DAV:   7    -0.580297140398E+03    0.42591E+01   -0.98025E+00  8416   0.637E+00    0.191E+00
DAV:   8    -0.580351305463E+03   -0.54165E-01   -0.22363E-01  8736   0.937E-01    0.207E-01
DAV:   9    -0.580353477176E+03   -0.21717E-02   -0.36316E-03  9088   0.142E-01    0.773E-02
DAV:  10    -0.580353945026E+03   -0.46785E-03   -0.43959E-04  8480   0.546E-02    0.787E-03
DAV:  11    -0.580353948959E+03   -0.39335E-05   -0.11648E-05  9056   0.776E-03    0.211E-03
DAV:  12    -0.580353949203E+03   -0.24358E-06   -0.53806E-07  8864   0.175E-03    0.186E-04
DAV:  13    -0.580353949326E+03   -0.12282E-06   -0.79195E-09  6784   0.222E-04    0.544E-05
DAV:  14    -0.580353949337E+03   -0.11303E-07   -0.12327E-09  6240   0.825E-05    0.178E-05
DAV:  15    -0.580353949336E+03    0.35652E-09   -0.29866E-10  5696   0.389E-05
   1 F= -.58035395E+03 E0= -.58035395E+03  d E =-.532637E-11
 Linear response reoptimize wavefunctions
DAV:   1    -0.580353949337E+03   -0.51023E-09   -0.65659E-11  5184   0.189E-05
DAV:   2    -0.580353949337E+03   -0.42019E-09   -0.13136E-11  5152   0.988E-06
DAV:   3    -0.580353949337E+03    0.49295E-09    0.37068E-12  5184   0.520E-06
 Linear response DOF=           2
 Linear response progress:
  Degree of freedom:   1/  2
       N       E                     dE             d eps       ncg     rms          rms(c)
RMM:   1    -0.142018627755E+00   -0.14202E+00    0.87851E-03 32120   0.716E-01
RMM:   2    -0.121735271614E+00    0.20283E-01   -0.71854E-03 19655   0.184E-01    0.167E-01
RMM:   3    -0.121654829853E+00    0.80442E-04   -0.79618E-04 20662   0.463E-02    0.858E-02
RMM:   4    -0.121886823993E+00   -0.23199E-03   -0.22309E-04 20719   0.250E-02    0.265E-02
RMM:   5    -0.121954107988E+00   -0.67284E-04   -0.20940E-05 20955   0.721E-03    0.637E-03
RMM:   6    -0.121938066721E+00    0.16041E-04   -0.17016E-05 21348   0.190E-03    0.136E-03
RMM:   7    -0.121928842917E+00    0.92238E-05   -0.13847E-05 21547   0.655E-04    0.371E-04
RMM:   8    -0.121928058289E+00    0.78463E-06   -0.97426E-06 22180   0.277E-04    0.888E-05
RMM:   9    -0.121927979194E+00    0.79095E-07   -0.11459E-05 23335   0.178E-04    0.379E-05
RMM:  10    -0.121927962069E+00    0.17125E-07   -0.10493E-05 24286   0.167E-04    0.118E-05
RMM:  11    -0.121928127631E+00   -0.16556E-06   -0.12071E-05 24447   0.163E-04    0.522E-06
 Linear response progress:
  Degree of freedom:   2/  2
       N       E                     dE             d eps       ncg     rms          rms(c)
RMM:   1    -0.141315651340E+00   -0.14132E+00    0.92411E-03 22325   0.710E-01
RMM:   2    -0.122016994336E+00    0.19299E-01   -0.69493E-03 13756   0.180E-01    0.164E-01
RMM:   3    -0.121930540540E+00    0.86454E-04   -0.69996E-04 14358   0.451E-02    0.850E-02
RMM:   4    -0.122157388148E+00   -0.22685E-03   -0.18392E-04 14457   0.247E-02    0.258E-02
RMM:   5    -0.122226472794E+00   -0.69085E-04   -0.77012E-06 14638   0.692E-03    0.632E-03
RMM:   6    -0.122209564129E+00    0.16909E-04    0.14535E-06 14865   0.190E-03    0.131E-03
RMM:   7    -0.122201090897E+00    0.84732E-05    0.50341E-06 15057   0.620E-04    0.368E-04
RMM:   8    -0.122200258334E+00    0.83256E-06    0.85310E-06 15456   0.279E-04    0.870E-05
RMM:   9    -0.122200251768E+00    0.65665E-08    0.64113E-06 16314   0.181E-04    0.376E-05
RMM:  10    -0.122200129128E+00    0.12264E-06    0.84373E-06 16866   0.172E-04    0.112E-05
RMM:  11    -0.122200109773E+00    0.19355E-07    0.86209E-06 17002   0.168E-04    0.510E-06
 Linear response finished
