 vasp.5.4.4.18Apr17-6-g9f103f2a35 (build Mar 12 2022 03:36:41) complex          
  
 executed on IFC19.0.3.199_CrayMP date 2022.12.02  11:18:15
 running on   32 total cores
 distrk:  each k-point on   32 cores,    1 groups
 distr:  one band on NCORES_PER_BAND=   1 cores,   32 groups


--------------------------------------------------------------------------------------------------------


 INCAR:
 POTCAR:   PAW_PBE C 08Apr2002                    

 ----------------------------------------------------------------------------- 
|                                                                             |
|           W    W    AA    RRRRR   N    N  II  N    N   GGGG   !!!           |
|           W    W   A  A   R    R  NN   N  II  NN   N  G    G  !!!           |
|           W    W  A    A  R    R  N N  N  II  N N  N  G       !!!           |
|           W WW W  AAAAAA  RRRRR   N  N N  II  N  N N  G  GGG   !            |
|           WW  WW  A    A  R   R   N   NN  II  N   NN  G    G                |
|           W    W  A    A  R    R  N    N  II  N    N   GGGG   !!!           |
|                                                                             |
|      For optimal performance we recommend to set                            |
|        NCORE= 4 - approx SQRT( number of cores)                             |
|      NCORE specifies how many cores store one orbital (NPAR=cpu/NCORE).     |
|      This setting can  greatly improve the performance of VASP for DFT.     |
|      The default,   NCORE=1            might be grossly inefficient         |
|      on modern multi-core architectures or massively parallel machines.     |
|      Do your own testing !!!!                                               |
|      Unfortunately you need to use the default for GW and RPA calculations. |
|      (for HF NCORE is supported but not extensively tested yet)             |
|                                                                             |
 ----------------------------------------------------------------------------- 

 POTCAR:   PAW_PBE C 08Apr2002                    
   VRHFIN =C: s2p2                                                              
   LEXCH  = PE                                                                  
   EATOM  =   147.1560 eV,   10.8157 Ry                                         
                                                                                
   TITEL  = PAW_PBE C 08Apr2002                                                 
   LULTRA =        F    use ultrasoft PP ?                                      
   IUNSCR =        0    unscreen: 0-lin 1-nonlin 2-no                           
   RPACOR =     .000    partial core radius                                     
   POMASS =   12.011; ZVAL   =    4.000    mass and valenz                      
   RCORE  =    1.500    outmost cutoff radius                                   
   RWIGS  =    1.630; RWIGS  =     .863    wigner-seitz radius (au A)           
   ENMAX  =  400.000; ENMIN  =  300.000 eV                                      
   ICORE  =        2    local potential                                         
   LCOR   =        T    correct aug charges                                     
   LPAW   =        T    paw PP                                                  
   EAUG   =  644.873                                                            
   DEXC   =     .000                                                            
   RMAX   =    2.266    core radius for proj-oper                               
   RAUG   =    1.300    factor for augmentation sphere                          
   RDEP   =    1.501    radius for radial grids                                 
   RDEPT  =    1.300    core radius for aug-charge                              
   QCUT   =   -5.516; QGAM   =   11.032    optimization parameters              
                                                                                
   Description                                                                  
     l     E      TYP  RCUT    TYP  RCUT                                        
     0   .000     23  1.200                                                     
     0   .000     23  1.200                                                     
     1   .000     23  1.500                                                     
     1  2.500     23  1.500                                                     
     2   .000      7  1.500                                                     
  local pseudopotential read in
  atomic valenz-charges read in
  non local Contribution for L=           0  read in
    real space projection operators read in
  non local Contribution for L=           0  read in
    real space projection operators read in
  non local Contribution for L=           1  read in
    real space projection operators read in
  non local Contribution for L=           1  read in
    real space projection operators read in
    PAW grid and wavefunctions read in
 
   number of l-projection  operators is LMAX  =           4
   number of lm-projection operators is LMMAX =           8
 

 ----------------------------------------------------------------------------- 
|                                                                             |
|  ADVICE TO THIS USER RUNNING 'VASP/VAMP'   (HEAR YOUR MASTER'S VOICE ...):  |
|                                                                             |
|      You have a (more or less) 'large supercell' and for larger cells       |
|      it might be more efficient to use real space projection operators      |
|      So try LREAL= Auto  in the INCAR   file.                               |
|      Mind: If you want to do a very accurate calculations keep the          |
|      reciprocal projection scheme          (i.e. LREAL=.FALSE.)             |
|                                                                             |
 ----------------------------------------------------------------------------- 

 PAW_PBE C 08Apr2002                    :
 energy of atom  1       EATOM= -147.1560
 kinetic energy error for atom=    0.0288 (will be added to EATOM!!)
 
 
 POSCAR: generated by phonopy                    
  positions in direct lattice
  No initial velocities read in
 exchange correlation table for  LEXCH =        8
   RHO(1)=    0.500       N(1)  =     2000
   RHO(2)=  100.500       N(2)  =     4000
 


--------------------------------------------------------------------------------------------------------


 ion  position               nearest neighbor table
   1  0.125  0.375  0.125-  11 1.58  25 1.58  43 1.58  57 1.58
   2  0.625  0.375  0.125-  12 1.58  26 1.58  44 1.58  58 1.58
   3  0.125  0.875  0.125-   9 1.58  27 1.58  41 1.58  59 1.58
   4  0.625  0.875  0.125-  10 1.58  28 1.58  42 1.58  60 1.58
   5  0.125  0.375  0.625-  15 1.58  29 1.58  47 1.58  61 1.58
   6  0.625  0.375  0.625-  16 1.58  30 1.58  48 1.58  62 1.58
   7  0.125  0.875  0.625-  13 1.58  31 1.58  45 1.58  63 1.58
   8  0.625  0.875  0.625-  14 1.58  32 1.58  46 1.58  64 1.58
   9  0.000  0.000  0.250-   3 1.58  17 1.58  36 1.58  50 1.58
  10  0.500  0.000  0.250-   4 1.58  18 1.58  35 1.58  49 1.58
  11  0.000  0.500  0.250-   1 1.58  19 1.58  34 1.58  52 1.58
  12  0.500  0.500  0.250-   2 1.58  20 1.58  33 1.58  51 1.58
  13  0.000  0.000  0.750-   7 1.58  21 1.58  40 1.58  54 1.58
  14  0.500  0.000  0.750-   8 1.58  22 1.58  39 1.58  53 1.58
  15  0.000  0.500  0.750-   5 1.58  23 1.58  38 1.58  56 1.58
  16  0.500  0.500  0.750-   6 1.58  24 1.58  37 1.58  55 1.58
  17  0.125  0.125  0.375-   9 1.58  29 1.58  45 1.58  57 1.58
  18  0.625  0.125  0.375-  10 1.58  30 1.58  46 1.58  58 1.58
  19  0.125  0.625  0.375-  11 1.58  31 1.58  47 1.58  59 1.58
  20  0.625  0.625  0.375-  12 1.58  32 1.58  48 1.58  60 1.58
  21  0.125  0.125  0.875-  13 1.58  25 1.58  41 1.58  61 1.58
  22  0.625  0.125  0.875-  14 1.58  26 1.58  42 1.58  62 1.58
  23  0.125  0.625  0.875-  15 1.58  27 1.58  43 1.58  63 1.58
  24  0.625  0.625  0.875-  16 1.58  28 1.58  44 1.58  64 1.58
  25  0.000  0.250  0.000-   1 1.58  21 1.58  38 1.58  50 1.58
  26  0.500  0.250  0.000-   2 1.58  22 1.58  37 1.58  49 1.58
  27  0.000  0.750  0.000-   3 1.58  23 1.58  40 1.58  52 1.58
  28  0.500  0.750  0.000-   4 1.58  24 1.58  39 1.58  51 1.58
  29  0.000  0.250  0.500-   5 1.58  17 1.58  34 1.58  54 1.58
  30  0.500  0.250  0.500-   6 1.58  18 1.58  33 1.58  53 1.58
  31  0.000  0.750  0.500-   7 1.58  19 1.58  36 1.58  56 1.58
  32  0.500  0.750  0.500-   8 1.58  20 1.58  35 1.58  55 1.58
  33  0.375  0.375  0.375-  12 1.58  30 1.58  47 1.58  57 1.58
  34  0.875  0.375  0.375-  11 1.58  29 1.58  48 1.58  58 1.58
  35  0.375  0.875  0.375-  10 1.58  32 1.58  45 1.58  59 1.58
  36  0.875  0.875  0.375-   9 1.58  31 1.58  46 1.58  60 1.58
  37  0.375  0.375  0.875-  16 1.58  26 1.58  43 1.58  61 1.58
  38  0.875  0.375  0.875-  15 1.58  25 1.58  44 1.58  62 1.58
  39  0.375  0.875  0.875-  14 1.58  28 1.58  41 1.58  63 1.58
  40  0.875  0.875  0.875-  13 1.58  27 1.58  42 1.58  64 1.58
  41  0.250  0.000  0.000-   3 1.58  21 1.58  39 1.58  49 1.58
  42  0.750  0.000  0.000-   4 1.58  22 1.58  40 1.58  50 1.58
  43  0.250  0.500  0.000-   1 1.58  23 1.58  37 1.58  51 1.58
  44  0.750  0.500  0.000-   2 1.58  24 1.58  38 1.58  52 1.58
  45  0.250  0.000  0.500-   7 1.58  17 1.58  35 1.58  53 1.58
  46  0.750  0.000  0.500-   8 1.58  18 1.58  36 1.58  54 1.58
  47  0.250  0.500  0.500-   5 1.58  19 1.58  33 1.58  55 1.58
  48  0.750  0.500  0.500-   6 1.58  20 1.58  34 1.58  56 1.58
  49  0.375  0.125  0.125-  10 1.58  26 1.58  41 1.58  57 1.58
  50  0.875  0.125  0.125-   9 1.58  25 1.58  42 1.58  58 1.58
  51  0.375  0.625  0.125-  12 1.58  28 1.58  43 1.58  59 1.58
  52  0.875  0.625  0.125-  11 1.58  27 1.58  44 1.58  60 1.58
  53  0.375  0.125  0.625-  14 1.58  30 1.58  45 1.58  61 1.58
  54  0.875  0.125  0.625-  13 1.58  29 1.58  46 1.58  62 1.58
  55  0.375  0.625  0.625-  16 1.58  32 1.58  47 1.58  63 1.58
  56  0.875  0.625  0.625-  15 1.58  31 1.58  48 1.58  64 1.58
  57  0.250  0.250  0.250-   1 1.58  17 1.58  33 1.58  49 1.58
  58  0.750  0.250  0.250-   2 1.58  18 1.58  34 1.58  50 1.58
  59  0.250  0.750  0.250-   3 1.58  19 1.58  35 1.58  51 1.58
  60  0.750  0.750  0.250-   4 1.58  20 1.58  36 1.58  52 1.58
  61  0.250  0.250  0.750-   5 1.58  21 1.58  37 1.58  53 1.58
  62  0.750  0.250  0.750-   6 1.58  22 1.58  38 1.58  54 1.58
  63  0.250  0.750  0.750-   7 1.58  23 1.58  39 1.58  55 1.58
  64  0.750  0.750  0.750-   8 1.58  24 1.58  40 1.58  56 1.58
 
  LATTYP: Found a simple tetragonal cell.
 ALAT       =     7.3221899000
 C/A-ratio  =     0.9805807847
  
  Lattice vectors:
  
 A1 = (   7.3221899000,   0.0000000000,   0.0000000000)
 A2 = (   0.0000000000,   7.3221899000,   0.0000000000)
 A3 = (   0.0000000000,   0.0000000000,   7.1799987179)


Analysis of symmetry for initial positions (statically):
=====================================================================
 Subroutine PRICEL returns following result:
 
  LATTYP: Found a body centered tetragonal cell.
 ALAT       =     2.5887850657
 C/A-ratio  =     1.3867506447
  
  Lattice vectors:
  
 A1 = (   1.8305474750,   0.0000000000,   1.7949996795)
 A2 = (  -1.8305474750,   0.0000000000,   1.7949996795)
 A3 = (   0.0000000000,  -1.8305474750,  -1.7949996795)
 
  32 primitive cells build up your supercell.
 

 Routine SETGRP: Setting up the symmetry group for a 
 simple tetragonal supercell.


 Subroutine GETGRP returns: Found 16 space group operations
 (whereof  8 operations were pure point group operations)
 out of a pool of 16 trial point group operations.


The static configuration has the point symmetry D_2d.
 The point group associated with its full space group is D_4h.


Analysis of symmetry for dynamics (positions and initial velocities):
=====================================================================
 Subroutine PRICEL returns following result:
 
  LATTYP: Found a body centered tetragonal cell.
 ALAT       =     2.5887850657
 C/A-ratio  =     1.3867506447
  
  Lattice vectors:
  
 A1 = (   1.8305474750,   0.0000000000,   1.7949996795)
 A2 = (  -1.8305474750,   0.0000000000,   1.7949996795)
 A3 = (   0.0000000000,  -1.8305474750,  -1.7949996795)
 
  32 primitive cells build up your supercell.
 

 Routine SETGRP: Setting up the symmetry group for a 
 simple tetragonal supercell.


 Subroutine GETGRP returns: Found 16 space group operations
 (whereof  8 operations were pure point group operations)
 out of a pool of 16 trial point group operations.


The dynamic configuration has the point symmetry D_2d.
 The point group associated with its full space group is D_4h.


 Subroutine INISYM returns: Found 16 space group operations
 (whereof  8 operations are pure point group operations),
 and found    32 'primitive' translations

 
 
 KPOINTS: kpt_density=3000                        

Automatic generation of k-mesh.
Space group operators:
 irot       det(A)        alpha          n_x          n_y          n_z        tau_x        tau_y        tau_z
    1     1.000000     0.000000     1.000000     0.000000     0.000000     0.000000     0.000000     0.000000
    2    -1.000000    90.000000     0.000000     0.000000    -1.000000     0.000000     0.000000     0.000000
    3     1.000000   180.000000     0.000000     0.000000     1.000000     0.000000     0.000000     0.000000
    4    -1.000000    90.000000     0.000000     0.000000     1.000000     0.000000     0.000000     0.000000
    5     1.000000   180.000000     0.000000     1.000000     0.000000     0.000000     0.000000     0.000000
    6    -1.000000   180.000000     0.707107     0.707107     0.000000     0.000000     0.000000     0.000000
    7     1.000000   180.000000     1.000000     0.000000     0.000000     0.000000     0.000000     0.000000
    8    -1.000000   180.000000     0.707107    -0.707107     0.000000     0.000000     0.000000     0.000000
    9    -1.000000     0.000000     1.000000     0.000000     0.000000    -0.125000    -0.125000     0.125000
   10     1.000000    90.000000     0.000000     0.000000    -1.000000    -0.125000    -0.125000     0.125000
   11    -1.000000   180.000000     0.000000     0.000000     1.000000    -0.125000    -0.125000     0.125000
   12     1.000000    90.000000     0.000000     0.000000     1.000000    -0.125000    -0.125000     0.125000
   13    -1.000000   180.000000     0.000000     1.000000     0.000000    -0.125000    -0.125000     0.125000
   14     1.000000   180.000000     0.707107     0.707107     0.000000    -0.125000    -0.125000     0.125000
   15    -1.000000   180.000000     1.000000     0.000000     0.000000    -0.125000    -0.125000     0.125000
   16     1.000000   180.000000     0.707107    -0.707107     0.000000    -0.125000    -0.125000     0.125000
 
 Subroutine IBZKPT returns following result:
 ===========================================
 
 Found     18 irreducible k-points:
 
 Following reciprocal coordinates:
            Coordinates               Weight
  0.000000  0.000000  0.000000      1.000000
  0.250000  0.000000  0.000000      4.000000
  0.500000  0.000000  0.000000      2.000000
  0.250000  0.250000  0.000000      4.000000
  0.500000  0.250000  0.000000      4.000000
  0.500000  0.500000  0.000000      1.000000
  0.000000  0.000000  0.250000      2.000000
  0.250000  0.000000  0.250000      8.000000
  0.500000  0.000000  0.250000      4.000000
  0.250000  0.250000  0.250000      8.000000
  0.500000  0.250000  0.250000      8.000000
  0.500000  0.500000  0.250000      2.000000
  0.000000  0.000000  0.500000      1.000000
  0.250000  0.000000  0.500000      4.000000
  0.500000  0.000000  0.500000      2.000000
  0.250000  0.250000  0.500000      4.000000
  0.500000  0.250000  0.500000      4.000000
  0.500000  0.500000  0.500000      1.000000
 
 Following cartesian coordinates:
            Coordinates               Weight
  0.000000  0.000000  0.000000      1.000000
  0.034143  0.000000  0.000000      4.000000
  0.068286  0.000000  0.000000      2.000000
  0.034143  0.034143  0.000000      4.000000
  0.068286  0.034143  0.000000      4.000000
  0.068286  0.068286  0.000000      1.000000
  0.000000  0.000000  0.034819      2.000000
  0.034143  0.000000  0.034819      8.000000
  0.068286  0.000000  0.034819      4.000000
  0.034143  0.034143  0.034819      8.000000
  0.068286  0.034143  0.034819      8.000000
  0.068286  0.068286  0.034819      2.000000
  0.000000  0.000000  0.069638      1.000000
  0.034143  0.000000  0.069638      4.000000
  0.068286  0.000000  0.069638      2.000000
  0.034143  0.034143  0.069638      4.000000
  0.068286  0.034143  0.069638      4.000000
  0.068286  0.068286  0.069638      1.000000
 
 
 Subroutine IBZKPT_HF returns following result:
 ==============================================
 
 Found     64 k-points in 1st BZ
 the following     64 k-points will be used (e.g. in the exchange kernel)
 Following reciprocal coordinates:   # in IRBZ
  0.000000  0.000000  0.000000    0.01562500   1 t-inv F
  0.250000  0.000000  0.000000    0.01562500   2 t-inv F
  0.500000  0.000000  0.000000    0.01562500   3 t-inv F
  0.250000  0.250000  0.000000    0.01562500   4 t-inv F
  0.500000  0.250000  0.000000    0.01562500   5 t-inv F
  0.500000  0.500000  0.000000    0.01562500   6 t-inv F
  0.000000  0.000000  0.250000    0.01562500   7 t-inv F
  0.250000  0.000000  0.250000    0.01562500   8 t-inv F
  0.500000  0.000000  0.250000    0.01562500   9 t-inv F
  0.250000  0.250000  0.250000    0.01562500  10 t-inv F
  0.500000  0.250000  0.250000    0.01562500  11 t-inv F
  0.500000  0.500000  0.250000    0.01562500  12 t-inv F
  0.000000  0.000000  0.500000    0.01562500  13 t-inv F
  0.250000  0.000000  0.500000    0.01562500  14 t-inv F
  0.500000  0.000000  0.500000    0.01562500  15 t-inv F
  0.250000  0.250000  0.500000    0.01562500  16 t-inv F
  0.500000  0.250000  0.500000    0.01562500  17 t-inv F
  0.500000  0.500000  0.500000    0.01562500  18 t-inv F
  0.000000 -0.250000  0.000000    0.01562500   2 t-inv F
 -0.250000  0.000000  0.000000    0.01562500   2 t-inv F
  0.000000  0.250000  0.000000    0.01562500   2 t-inv F
  0.000000 -0.500000  0.000000    0.01562500   3 t-inv F
  0.250000 -0.250000  0.000000    0.01562500   4 t-inv F
 -0.250000 -0.250000  0.000000    0.01562500   4 t-inv F
 -0.250000  0.250000  0.000000    0.01562500   4 t-inv F
  0.250000 -0.500000  0.000000    0.01562500   5 t-inv F
 -0.500000 -0.250000  0.000000    0.01562500   5 t-inv F
 -0.250000  0.500000  0.000000    0.01562500   5 t-inv F
  0.000000  0.000000 -0.250000    0.01562500   7 t-inv F
  0.000000 -0.250000 -0.250000    0.01562500   8 t-inv F
 -0.250000  0.000000  0.250000    0.01562500   8 t-inv F
  0.000000  0.250000 -0.250000    0.01562500   8 t-inv F
 -0.250000  0.000000 -0.250000    0.01562500   8 t-inv F
  0.000000 -0.250000  0.250000    0.01562500   8 t-inv F
  0.250000  0.000000 -0.250000    0.01562500   8 t-inv F
  0.000000  0.250000  0.250000    0.01562500   8 t-inv F
  0.000000 -0.500000 -0.250000    0.01562500   9 t-inv F
 -0.500000  0.000000 -0.250000    0.01562500   9 t-inv F
  0.000000 -0.500000  0.250000    0.01562500   9 t-inv F
  0.250000 -0.250000 -0.250000    0.01562500  10 t-inv F
 -0.250000 -0.250000  0.250000    0.01562500  10 t-inv F
 -0.250000  0.250000 -0.250000    0.01562500  10 t-inv F
 -0.250000 -0.250000 -0.250000    0.01562500  10 t-inv F
 -0.250000  0.250000  0.250000    0.01562500  10 t-inv F
  0.250000  0.250000 -0.250000    0.01562500  10 t-inv F
  0.250000 -0.250000  0.250000    0.01562500  10 t-inv F
  0.250000 -0.500000 -0.250000    0.01562500  11 t-inv F
 -0.500000 -0.250000  0.250000    0.01562500  11 t-inv F
 -0.250000  0.500000 -0.250000    0.01562500  11 t-inv F
 -0.500000  0.250000 -0.250000    0.01562500  11 t-inv F
 -0.250000 -0.500000  0.250000    0.01562500  11 t-inv F
  0.500000 -0.250000 -0.250000    0.01562500  11 t-inv F
  0.250000  0.500000  0.250000    0.01562500  11 t-inv F
  0.500000 -0.500000 -0.250000    0.01562500  12 t-inv F
  0.000000 -0.250000 -0.500000    0.01562500  14 t-inv F
 -0.250000  0.000000  0.500000    0.01562500  14 t-inv F
  0.000000  0.250000 -0.500000    0.01562500  14 t-inv F
  0.000000 -0.500000 -0.500000    0.01562500  15 t-inv F
  0.250000 -0.250000 -0.500000    0.01562500  16 t-inv F
 -0.250000 -0.250000  0.500000    0.01562500  16 t-inv F
 -0.250000  0.250000 -0.500000    0.01562500  16 t-inv F
  0.250000 -0.500000 -0.500000    0.01562500  17 t-inv F
 -0.500000 -0.250000  0.500000    0.01562500  17 t-inv F
 -0.250000  0.500000 -0.500000    0.01562500  17 t-inv F


--------------------------------------------------------------------------------------------------------




 Dimension of arrays:
   k-points           NKPTS =     18   k-points in BZ     NKDIM =     18   number of bands    NBANDS=    192
   number of dos      NEDOS =    301   number of ions     NIONS =     64
   non local maximal  LDIM  =      4   non local SUM 2l+1 LMDIM =      8
   total plane-waves  NPLWV = 110592
   max r-space proj   IRMAX =      1   max aug-charges    IRDMAX=  27318
   dimension x,y,z NGX =    48 NGY =   48 NGZ =   48
   dimension x,y,z NGXF=    96 NGYF=   96 NGZF=   96
   support grid    NGXF=   192 NGYF=  192 NGZF=  192
   ions per type =              64
   NGX,Y,Z   is equivalent  to a cutoff of  10.90, 10.90, 11.11 a.u.
   NGXF,Y,Z  is equivalent  to a cutoff of  21.80, 21.80, 22.23 a.u.

 SYSTEM =  unknown system                          
 POSCAR =  generated by phonopy                    

 Startparameter for this run:
   NWRITE =      2    write-flag & timer
   PREC   = accura    normal or accurate (medium, high low for compatibility)
   ISTART =      0    job   : 0-new  1-cont  2-samecut
   ICHARG =      2    charge: 1-file 2-atom 10-const
   ISPIN  =      1    spin polarized calculation?
   LNONCOLLINEAR =      F non collinear calculations
   LSORBIT =      F    spin-orbit coupling
   INIWAV =      1    electr: 0-lowe 1-rand  2-diag
   LASPH  =      F    aspherical Exc in radial PAW
   METAGGA=      F    non-selfconsistent MetaGGA calc.

 Electronic Relaxation 1
   ENCUT  =  400.0 eV  29.40 Ry    5.42 a.u.  11.94 11.94 11.71*2*pi/ulx,y,z
   ENINI  =  400.0     initial cutoff
   ENAUG  =  644.9 eV  augmentation charge cutoff
   NELM   =     60;   NELMIN=  2; NELMDL=  0     # of ELM steps 
   EDIFF  = 0.1E-07   stopping-criterion for ELM
   LREAL  =      F    real-space projection
   NLSPLINE    = F    spline interpolate recip. space projectors
   LCOMPAT=      F    compatible to vasp.4.4
   GGA_COMPAT  = T    GGA compatible to vasp.4.4-vasp.4.6
   LMAXPAW     = -100 max onsite density
   LMAXMIX     =    2 max onsite mixed and CHGCAR
   VOSKOWN=      0    Vosko Wilk Nusair interpolation
   ROPT   =    0.00000
 Ionic relaxation
   EDIFFG = 0.1E-06   stopping-criterion for IOM
   NSW    =      1    number of steps for IOM
   NBLOCK =      1;   KBLOCK =      1    inner block; outer block 
   IBRION =      8    ionic relax: 0-MD 1-quasi-New 2-CG
   NFREE  =      0    steps in history (QN), initial steepest desc. (CG)
   ISIF   =      2    stress and relaxation
   IWAVPR =     11    prediction:  0-non 1-charg 2-wave 3-comb
   ISYM   =      2    0-nonsym 1-usesym 2-fastsym
   LCORR  =      T    Harris-Foulkes like correction to forces

   POTIM  = 0.5000    time-step for ionic-motion
   TEIN   =    0.0    initial temperature
   TEBEG  =    0.0;   TEEND  =   0.0 temperature during run
   SMASS  =  -3.00    Nose mass-parameter (am)
   estimated Nose-frequenzy (Omega)   =  0.10E-29 period in steps =****** mass=  -0.123E-26a.u.
   SCALEE = 1.0000    scale energy and forces
   NPACO  =    256;   APACO  = 16.0  distance and # of slots for P.C.
   PSTRESS=    0.0 pullay stress

  Mass of Ions in am
   POMASS =  12.01
  Ionic Valenz
   ZVAL   =   4.00
  Atomic Wigner-Seitz radii
   RWIGS  =  -1.00
  virtual crystal weights 
   VCA    =   1.00
   NELECT =     256.0000    total number of electrons
   NUPDOWN=      -1.0000    fix difference up-down

 DOS related values:
   EMIN   =  10.00;   EMAX   =-10.00  energy-range for DOS
   EFERMI =   0.00
   ISMEAR =     0;   SIGMA  =   0.06  broadening in eV -4-tet -1-fermi 0-gaus

 Electronic relaxation 2 (details)
   IALGO  =     38    algorithm
   LDIAG  =      T    sub-space diagonalisation (order eigenvalues)
   LSUBROT=      F    optimize rotation matrix (better conditioning)
   TURBO    =      0    0=normal 1=particle mesh
   IRESTART =      0    0=no restart 2=restart with 2 vectors
   NREBOOT  =      0    no. of reboots
   NMIN     =      0    reboot dimension
   EREF     =   0.00    reference energy to select bands
   IMIX   =      4    mixing-type and parameters
     AMIX     =   0.40;   BMIX     =  1.00
     AMIX_MAG =   1.60;   BMIX_MAG =  1.00
     AMIN     =   0.10
     WC   =   100.;   INIMIX=   1;  MIXPRE=   1;  MAXMIX= -45

 Intra band minimization:
   WEIMIN = 0.0010     energy-eigenvalue tresh-hold
   EBREAK =  0.13E-10  absolut break condition
   DEPER  =   0.30     relativ break condition  

   TIME   =   0.40     timestep for ELM

  volume/ion in A,a.u.               =       6.01        40.59
  Fermi-wavevector in a.u.,A,eV,Ry     =   1.428958  2.700338 27.782010  2.041920
  Thomas-Fermi vector in A             =   2.548963
 
 Write flags
   LWAVE        =      F    write WAVECAR
   LDOWNSAMPLE  =      F    k-point downsampling of WAVECAR
   LCHARG       =      F    write CHGCAR
   LVTOT        =      F    write LOCPOT, total local potential
   LVHAR        =      F    write LOCPOT, Hartree potential only
   LELF         =      F    write electronic localiz. function (ELF)
   LORBIT       =      0    0 simple, 1 ext, 2 COOP (PROOUT), +10 PAW based schemes


 Dipole corrections
   LMONO  =      F    monopole corrections only (constant potential shift)
   LDIPOL =      F    correct potential (dipole corrections)
   IDIPOL =      0    1-x, 2-y, 3-z, 4-all directions 
   EPSILON=  1.0000000 bulk dielectric constant

 Exchange correlation treatment:
   GGA     =    --    GGA type
   LEXCH   =     8    internal setting for exchange type
   VOSKOWN=      0    Vosko Wilk Nusair interpolation
   LHFCALC =     F    Hartree Fock is set to
   LHFONE  =     F    Hartree Fock one center treatment
   AEXX    =    0.0000 exact exchange contribution

 Linear response parameters
   LEPSILON=     F    determine dielectric tensor
   LRPA    =     F    only Hartree local field effects (RPA)
   LNABLA  =     F    use nabla operator in PAW spheres
   LVEL    =     F    velocity operator in full k-point grid
   LINTERFAST=   F  fast interpolation
   KINTER  =     0    interpolate to denser k-point grid
   CSHIFT  =0.1000    complex shift for real part using Kramers Kronig
   OMEGAMAX=  -1.0    maximum frequency
   DEG_THRESHOLD= 0.2000000E-02 threshold for treating states as degnerate
   RTIME   =   -0.100 relaxation time in fs
  (WPLASMAI=    0.000 imaginary part of plasma frequency in eV, 0.658/RTIME)
   DFIELD  = 0.0000000 0.0000000 0.0000000 field for delta impulse in time
 
 Orbital magnetization related:
   ORBITALMAG=     F  switch on orbital magnetization
   LCHIMAG   =     F  perturbation theory with respect to B field
   DQ        =  0.001000  dq finite difference perturbation B field
   LLRAUG    =     F  two centre corrections for induced B field



--------------------------------------------------------------------------------------------------------


 linear response using symmetry
 charge density and potential will be updated during run
 non-spin polarized calculation
 Variant of blocked Davidson
 Davidson routine will perform the subspace rotation
 perform sub-space diagonalisation
    after iterative eigenvector-optimisation
 modified Broyden-mixing scheme, WC =      100.0
 initial mixing is a Kerker type mixing with AMIX =  0.4000 and BMIX =      1.0000
 Hartree-type preconditioning will be used
 using additional bands           64
 reciprocal scheme for non local part
 calculate Harris-corrections to forces 
   (improved forces if not selfconsistent)
 use gradient corrections 
 use of overlap-Matrix (Vanderbilt PP)
 Gauss-broadening in eV      SIGMA  =   0.06


--------------------------------------------------------------------------------------------------------


  energy-cutoff  :      400.00
  volume of cell :      384.95
      direct lattice vectors                 reciprocal lattice vectors
     7.322189900  0.000000000  0.000000000     0.136571164  0.000000000  0.000000000
     0.000000000  7.322189900  0.000000000     0.000000000  0.136571164  0.000000000
     0.000000000  0.000000000  7.179998718     0.000000000  0.000000000  0.139275791

  length of vectors
     7.322189900  7.322189900  7.179998718     0.136571164  0.136571164  0.139275791


 
 k-points in units of 2pi/SCALE and weight: kpt_density=3000                        
   0.00000000  0.00000000  0.00000000       0.016
   0.03414279  0.00000000  0.00000000       0.062
   0.06828558  0.00000000  0.00000000       0.031
   0.03414279  0.03414279  0.00000000       0.062
   0.06828558  0.03414279  0.00000000       0.062
   0.06828558  0.06828558  0.00000000       0.016
   0.00000000  0.00000000  0.03481895       0.031
   0.03414279  0.00000000  0.03481895       0.125
   0.06828558  0.00000000  0.03481895       0.062
   0.03414279  0.03414279  0.03481895       0.125
   0.06828558  0.03414279  0.03481895       0.125
   0.06828558  0.06828558  0.03481895       0.031
   0.00000000  0.00000000  0.06963790       0.016
   0.03414279  0.00000000  0.06963790       0.062
   0.06828558  0.00000000  0.06963790       0.031
   0.03414279  0.03414279  0.06963790       0.062
   0.06828558  0.03414279  0.06963790       0.062
   0.06828558  0.06828558  0.06963790       0.016
 
 k-points in reciprocal lattice and weights: kpt_density=3000                        
   0.00000000  0.00000000  0.00000000       0.016
   0.25000000  0.00000000  0.00000000       0.062
   0.50000000  0.00000000  0.00000000       0.031
   0.25000000  0.25000000  0.00000000       0.062
   0.50000000  0.25000000  0.00000000       0.062
   0.50000000  0.50000000  0.00000000       0.016
   0.00000000  0.00000000  0.25000000       0.031
   0.25000000  0.00000000  0.25000000       0.125
   0.50000000  0.00000000  0.25000000       0.062
   0.25000000  0.25000000  0.25000000       0.125
   0.50000000  0.25000000  0.25000000       0.125
   0.50000000  0.50000000  0.25000000       0.031
   0.00000000  0.00000000  0.50000000       0.016
   0.25000000  0.00000000  0.50000000       0.062
   0.50000000  0.00000000  0.50000000       0.031
   0.25000000  0.25000000  0.50000000       0.062
   0.50000000  0.25000000  0.50000000       0.062
   0.50000000  0.50000000  0.50000000       0.016
 
 position of ions in fractional coordinates (direct lattice) 
   0.12500000  0.37500000  0.12500000
   0.62500000  0.37500000  0.12500000
   0.12500000  0.87500000  0.12500000
   0.62500000  0.87500000  0.12500000
   0.12500000  0.37500000  0.62500000
   0.62500000  0.37500000  0.62500000
   0.12500000  0.87500000  0.62500000
   0.62500000  0.87500000  0.62500000
   0.00000000  0.00000000  0.25000000
   0.50000000  0.00000000  0.25000000
   0.00000000  0.50000000  0.25000000
   0.50000000  0.50000000  0.25000000
   0.00000000  0.00000000  0.75000000
   0.50000000  0.00000000  0.75000000
   0.00000000  0.50000000  0.75000000
   0.50000000  0.50000000  0.75000000
   0.12500000  0.12500000  0.37500000
   0.62500000  0.12500000  0.37500000
   0.12500000  0.62500000  0.37500000
   0.62500000  0.62500000  0.37500000
   0.12500000  0.12500000  0.87500000
   0.62500000  0.12500000  0.87500000
   0.12500000  0.62500000  0.87500000
   0.62500000  0.62500000  0.87500000
   0.00000000  0.25000000  0.00000000
   0.50000000  0.25000000  0.00000000
   0.00000000  0.75000000  0.00000000
   0.50000000  0.75000000  0.00000000
   0.00000000  0.25000000  0.50000000
   0.50000000  0.25000000  0.50000000
   0.00000000  0.75000000  0.50000000
   0.50000000  0.75000000  0.50000000
   0.37500000  0.37500000  0.37500000
   0.87500000  0.37500000  0.37500000
   0.37500000  0.87500000  0.37500000
   0.87500000  0.87500000  0.37500000
   0.37500000  0.37500000  0.87500000
   0.87500000  0.37500000  0.87500000
   0.37500000  0.87500000  0.87500000
   0.87500000  0.87500000  0.87500000
   0.25000000  0.00000000  0.00000000
   0.75000000  0.00000000  0.00000000
   0.25000000  0.50000000  0.00000000
   0.75000000  0.50000000  0.00000000
   0.25000000  0.00000000  0.50000000
   0.75000000  0.00000000  0.50000000
   0.25000000  0.50000000  0.50000000
   0.75000000  0.50000000  0.50000000
   0.37500000  0.12500000  0.12500000
   0.87500000  0.12500000  0.12500000
   0.37500000  0.62500000  0.12500000
   0.87500000  0.62500000  0.12500000
   0.37500000  0.12500000  0.62500000
   0.87500000  0.12500000  0.62500000
   0.37500000  0.62500000  0.62500000
   0.87500000  0.62500000  0.62500000
   0.25000000  0.25000000  0.25000000
   0.75000000  0.25000000  0.25000000
   0.25000000  0.75000000  0.25000000
   0.75000000  0.75000000  0.25000000
   0.25000000  0.25000000  0.75000000
   0.75000000  0.25000000  0.75000000
   0.25000000  0.75000000  0.75000000
   0.75000000  0.75000000  0.75000000
 
 position of ions in cartesian coordinates  (Angst):
   0.91527374  2.74582121  0.89749984
   4.57636869  2.74582121  0.89749984
   0.91527374  6.40691616  0.89749984
   4.57636869  6.40691616  0.89749984
   0.91527374  2.74582121  4.48749920
   4.57636869  2.74582121  4.48749920
   0.91527374  6.40691616  4.48749920
   4.57636869  6.40691616  4.48749920
   0.00000000  0.00000000  1.79499968
   3.66109495  0.00000000  1.79499968
   0.00000000  3.66109495  1.79499968
   3.66109495  3.66109495  1.79499968
   0.00000000  0.00000000  5.38499904
   3.66109495  0.00000000  5.38499904
   0.00000000  3.66109495  5.38499904
   3.66109495  3.66109495  5.38499904
   0.91527374  0.91527374  2.69249952
   4.57636869  0.91527374  2.69249952
   0.91527374  4.57636869  2.69249952
   4.57636869  4.57636869  2.69249952
   0.91527374  0.91527374  6.28249888
   4.57636869  0.91527374  6.28249888
   0.91527374  4.57636869  6.28249888
   4.57636869  4.57636869  6.28249888
   0.00000000  1.83054747  0.00000000
   3.66109495  1.83054747  0.00000000
   0.00000000  5.49164242  0.00000000
   3.66109495  5.49164242  0.00000000
   0.00000000  1.83054747  3.58999936
   3.66109495  1.83054747  3.58999936
   0.00000000  5.49164242  3.58999936
   3.66109495  5.49164242  3.58999936
   2.74582121  2.74582121  2.69249952
   6.40691616  2.74582121  2.69249952
   2.74582121  6.40691616  2.69249952
   6.40691616  6.40691616  2.69249952
   2.74582121  2.74582121  6.28249888
   6.40691616  2.74582121  6.28249888
   2.74582121  6.40691616  6.28249888
   6.40691616  6.40691616  6.28249888
   1.83054747  0.00000000  0.00000000
   5.49164242  0.00000000  0.00000000
   1.83054747  3.66109495  0.00000000
   5.49164242  3.66109495  0.00000000
   1.83054747  0.00000000  3.58999936
   5.49164242  0.00000000  3.58999936
   1.83054747  3.66109495  3.58999936
   5.49164242  3.66109495  3.58999936
   2.74582121  0.91527374  0.89749984
   6.40691616  0.91527374  0.89749984
   2.74582121  4.57636869  0.89749984
   6.40691616  4.57636869  0.89749984
   2.74582121  0.91527374  4.48749920
   6.40691616  0.91527374  4.48749920
   2.74582121  4.57636869  4.48749920
   6.40691616  4.57636869  4.48749920
   1.83054747  1.83054747  1.79499968
   5.49164242  1.83054747  1.79499968
   1.83054747  5.49164242  1.79499968
   5.49164242  5.49164242  1.79499968
   1.83054747  1.83054747  5.38499904
   5.49164242  1.83054747  5.38499904
   1.83054747  5.49164242  5.38499904
   5.49164242  5.49164242  5.38499904
 


--------------------------------------------------------------------------------------------------------


 k-point  1 :   0.0000 0.0000 0.0000  plane waves:    7003
 k-point  2 :   0.2500 0.0000 0.0000  plane waves:    6998
 k-point  3 :   0.5000 0.0000 0.0000  plane waves:    6992
 k-point  4 :   0.2500 0.2500 0.0000  plane waves:    6991
 k-point  5 :   0.5000 0.2500 0.0000  plane waves:    7008
 k-point  6 :   0.5000 0.5000 0.0000  plane waves:    7008
 k-point  7 :   0.0000 0.0000 0.2500  plane waves:    6963
 k-point  8 :   0.2500 0.0000 0.2500  plane waves:    6982
 k-point  9 :   0.5000 0.0000 0.2500  plane waves:    6994
 k-point 10 :   0.2500 0.2500 0.2500  plane waves:    7002
 k-point 11 :   0.5000 0.2500 0.2500  plane waves:    6992
 k-point 12 :   0.5000 0.5000 0.2500  plane waves:    6996
 k-point 13 :   0.0000 0.0000 0.5000  plane waves:    6936
 k-point 14 :   0.2500 0.0000 0.5000  plane waves:    6980
 k-point 15 :   0.5000 0.0000 0.5000  plane waves:    7000
 k-point 16 :   0.2500 0.2500 0.5000  plane waves:    6984
 k-point 17 :   0.5000 0.2500 0.5000  plane waves:    7016
 k-point 18 :   0.5000 0.5000 0.5000  plane waves:    6984

 maximum and minimum number of plane-waves per node :      7016     6936

 maximum number of plane-waves:      7016
 maximum index in each direction: 
   IXMAX=   11   IYMAX=   11   IZMAX=   11
   IXMIN=  -12   IYMIN=  -12   IZMIN=  -12


 serial   3D FFT for wavefunctions
 parallel 3D FFT for charge:
    minimum data exchange during FFTs selected (reduces bandwidth)


 total amount of memory used by VASP MPI-rank0    68907. kBytes
=======================================================================

   base      :      30000. kBytes
   nonl-proj :      15319. kBytes
   fftplans  :       4537. kBytes
   grid      :       5806. kBytes
   one-center:        196. kBytes
   wavefun   :      13049. kBytes
 
     INWAV:  cpu time    0.0004: real time    0.0005
 Broyden mixing: mesh for mixing (old mesh)
   NGX = 23   NGY = 23   NGZ = 23
  (NGX  = 96   NGY  = 96   NGZ  = 96)
  gives a total of  12167 points

 initial charge density was supplied:
 charge density of overlapping atoms calculated
 number of electron     256.0000000 magnetization 
 keeping initial charge density in first step


--------------------------------------------------------------------------------------------------------


 Maximum index for augmentation-charges         1077 (set IRDMAX)


--------------------------------------------------------------------------------------------------------


 First call to EWALD:  gamma=   0.244
 Maximum number of real-space cells 3x 3x 3
 Maximum number of reciprocal cells 3x 3x 3

    FEWALD:  cpu time    0.0086: real time    0.0086


--------------------------------------- Iteration      1(   1)  ---------------------------------------


    POTLOK:  cpu time    0.0642: real time    0.2064
    SETDIJ:  cpu time    0.0396: real time    0.0398
     EDDAV:  cpu time   11.5657: real time   11.5807
       DOS:  cpu time    0.0056: real time    0.0056
    --------------------------------------------
      LOOP:  cpu time   11.6752: real time   11.8327

 eigenvalue-minimisations  :  6912
 total energy-change (2. order) : 0.4990729E+03  (-0.1126158E+05)
 number of electron     256.0000000 magnetization 
 augmentation part      256.0000000 magnetization 

 Free energy of the ion-electron system (eV)
  ---------------------------------------------------
  alpha Z        PSCENC =       866.97285445
  Ewald energy   TEWEN  =    -10919.68759552
  -Hartree energ DENC   =      -605.35705231
  -exchange      EXHF   =         0.00000000
  -V(xc)+E(xc)   XCENC  =       903.34427900
  PAW double counting   =      2421.21235816    -2494.84305711
  entropy T*S    EENTRO =        -0.00931032
  eigenvalues    EBANDS =       911.29813505
  atomic energy  EATOM  =      9416.14232778
  Solvation  Ediel_sol  =         0.00000000
  ---------------------------------------------------
  free energy    TOTEN  =       499.07293918 eV

  energy without entropy =      499.08224950  energy(sigma->0) =      499.07759434


--------------------------------------------------------------------------------------------------------




--------------------------------------- Iteration      1(   2)  ---------------------------------------


     EDDAV:  cpu time   14.6500: real time   14.6513
       DOS:  cpu time    0.0026: real time    0.0027
    --------------------------------------------
      LOOP:  cpu time   14.6527: real time   14.6540

 eigenvalue-minimisations  :  9184
 total energy-change (2. order) :-0.1053723E+04  (-0.1001600E+04)
 number of electron     256.0000000 magnetization 
 augmentation part      256.0000000 magnetization 

 Free energy of the ion-electron system (eV)
  ---------------------------------------------------
  alpha Z        PSCENC =       866.97285445
  Ewald energy   TEWEN  =    -10919.68759552
  -Hartree energ DENC   =      -605.35705231
  -exchange      EXHF   =         0.00000000
  -V(xc)+E(xc)   XCENC  =       903.34427900
  PAW double counting   =      2421.21235816    -2494.84305711
  entropy T*S    EENTRO =        -0.00000000
  eigenvalues    EBANDS =      -142.43442961
  atomic energy  EATOM  =      9416.14232778
  Solvation  Ediel_sol  =         0.00000000
  ---------------------------------------------------
  free energy    TOTEN  =      -554.65031516 eV

  energy without entropy =     -554.65031516  energy(sigma->0) =     -554.65031516


--------------------------------------------------------------------------------------------------------




--------------------------------------- Iteration      1(   3)  ---------------------------------------


     EDDAV:  cpu time   14.7498: real time   14.7507
       DOS:  cpu time    0.0027: real time    0.0027
    --------------------------------------------
      LOOP:  cpu time   14.7525: real time   14.7534

 eigenvalue-minimisations  :  9216
 total energy-change (2. order) :-0.4199213E+02  (-0.4172831E+02)
 number of electron     256.0000000 magnetization 
 augmentation part      256.0000000 magnetization 

 Free energy of the ion-electron system (eV)
  ---------------------------------------------------
  alpha Z        PSCENC =       866.97285445
  Ewald energy   TEWEN  =    -10919.68759552
  -Hartree energ DENC   =      -605.35705231
  -exchange      EXHF   =         0.00000000
  -V(xc)+E(xc)   XCENC  =       903.34427900
  PAW double counting   =      2421.21235816    -2494.84305711
  entropy T*S    EENTRO =        -0.00000000
  eigenvalues    EBANDS =      -184.42655521
  atomic energy  EATOM  =      9416.14232778
  Solvation  Ediel_sol  =         0.00000000
  ---------------------------------------------------
  free energy    TOTEN  =      -596.64244076 eV

  energy without entropy =     -596.64244076  energy(sigma->0) =     -596.64244076


--------------------------------------------------------------------------------------------------------




--------------------------------------- Iteration      1(   4)  ---------------------------------------


     EDDAV:  cpu time   14.6593: real time   14.6602
       DOS:  cpu time    0.0027: real time    0.0027
    --------------------------------------------
      LOOP:  cpu time   14.6620: real time   14.6629

 eigenvalue-minimisations  :  9248
 total energy-change (2. order) :-0.4941934E+00  (-0.4930975E+00)
 number of electron     256.0000000 magnetization 
 augmentation part      256.0000000 magnetization 

 Free energy of the ion-electron system (eV)
  ---------------------------------------------------
  alpha Z        PSCENC =       866.97285445
  Ewald energy   TEWEN  =    -10919.68759552
  -Hartree energ DENC   =      -605.35705231
  -exchange      EXHF   =         0.00000000
  -V(xc)+E(xc)   XCENC  =       903.34427900
  PAW double counting   =      2421.21235816    -2494.84305711
  entropy T*S    EENTRO =        -0.00000000
  eigenvalues    EBANDS =      -184.92074861
  atomic energy  EATOM  =      9416.14232778
  Solvation  Ediel_sol  =         0.00000000
  ---------------------------------------------------
  free energy    TOTEN  =      -597.13663416 eV

  energy without entropy =     -597.13663416  energy(sigma->0) =     -597.13663416


--------------------------------------------------------------------------------------------------------




--------------------------------------- Iteration      1(   5)  ---------------------------------------


     EDDAV:  cpu time   13.7800: real time   13.7808
       DOS:  cpu time    0.0027: real time    0.0027
    CHARGE:  cpu time    0.4467: real time    0.4468
    MIXING:  cpu time    0.0039: real time    0.0039
    --------------------------------------------
      LOOP:  cpu time   14.2333: real time   14.2343

 eigenvalue-minimisations  :  8608
 total energy-change (2. order) :-0.1108547E-01  (-0.1108108E-01)
 number of electron     256.0000003 magnetization 
 augmentation part        5.9346843 magnetization 

 Broyden mixing:
  rms(total) = 0.25015E+01    rms(broyden)= 0.25010E+01
  rms(prec ) = 0.36201E+01
  weight for this iteration     100.00

 Free energy of the ion-electron system (eV)
  ---------------------------------------------------
  alpha Z        PSCENC =       866.97285445
  Ewald energy   TEWEN  =    -10919.68759552
  -Hartree energ DENC   =      -605.35705231
  -exchange      EXHF   =         0.00000000
  -V(xc)+E(xc)   XCENC  =       903.34427900
  PAW double counting   =      2421.21235816    -2494.84305711
  entropy T*S    EENTRO =        -0.00000000
  eigenvalues    EBANDS =      -184.93183409
  atomic energy  EATOM  =      9416.14232778
  Solvation  Ediel_sol  =         0.00000000
  ---------------------------------------------------
  free energy    TOTEN  =      -597.14771964 eV

  energy without entropy =     -597.14771964  energy(sigma->0) =     -597.14771964


--------------------------------------------------------------------------------------------------------




--------------------------------------- Iteration      1(   6)  ---------------------------------------


    POTLOK:  cpu time    0.0565: real time    0.0565
    SETDIJ:  cpu time    0.0386: real time    0.0387
     EDDAV:  cpu time   13.4171: real time   13.4180
       DOS:  cpu time    0.0026: real time    0.0026
    CHARGE:  cpu time    0.4463: real time    0.4463
    MIXING:  cpu time    0.0040: real time    0.0039
    --------------------------------------------
      LOOP:  cpu time   13.9651: real time   13.9660

 eigenvalue-minimisations  :  8160
 total energy-change (2. order) : 0.1259147E+02  (-0.8437033E+00)
 number of electron     256.0000003 magnetization 
 augmentation part        5.8039613 magnetization 

 Broyden mixing:
  rms(total) = 0.13852E+01    rms(broyden)= 0.13851E+01
  rms(prec ) = 0.19842E+01
  weight for this iteration     100.00

 eigenvalues of (default mixing * dielectric matrix)
  average eigenvalue GAMMA=   2.1900
  2.1900

 Free energy of the ion-electron system (eV)
  ---------------------------------------------------
  alpha Z        PSCENC =       866.97285445
  Ewald energy   TEWEN  =    -10919.68759552
  -Hartree energ DENC   =      -720.12490711
  -exchange      EXHF   =         0.00000000
  -V(xc)+E(xc)   XCENC  =       914.02768468
  PAW double counting   =      3067.02996719    -3144.39281084
  entropy T*S    EENTRO =        -0.00000000
  eigenvalues    EBANDS =       -64.52377491
  atomic energy  EATOM  =      9416.14232778
  Solvation  Ediel_sol  =         0.00000000
  ---------------------------------------------------
  free energy    TOTEN  =      -584.55625428 eV

  energy without entropy =     -584.55625428  energy(sigma->0) =     -584.55625428


--------------------------------------------------------------------------------------------------------




--------------------------------------- Iteration      1(   7)  ---------------------------------------


    POTLOK:  cpu time    0.0583: real time    0.0583
    SETDIJ:  cpu time    0.0389: real time    0.0389
     EDDAV:  cpu time   13.6606: real time   13.6614
       DOS:  cpu time    0.0026: real time    0.0026
    CHARGE:  cpu time    0.4443: real time    0.4444
    MIXING:  cpu time    0.0046: real time    0.0046
    --------------------------------------------
      LOOP:  cpu time   14.2092: real time   14.2101

 eigenvalue-minimisations  :  8416
 total energy-change (2. order) : 0.4259114E+01  (-0.9802547E+00)
 number of electron     256.0000003 magnetization 
 augmentation part        5.6671098 magnetization 

 Broyden mixing:
  rms(total) = 0.19065E+00    rms(broyden)= 0.18972E+00
  rms(prec ) = 0.23286E+00
  weight for this iteration     100.00

 eigenvalues of (default mixing * dielectric matrix)
  average eigenvalue GAMMA=   2.2715
  2.0097  2.5333

 Free energy of the ion-electron system (eV)
  ---------------------------------------------------
  alpha Z        PSCENC =       866.97285445
  Ewald energy   TEWEN  =    -10919.68759552
  -Hartree energ DENC   =      -867.63673523
  -exchange      EXHF   =         0.00000000
  -V(xc)+E(xc)   XCENC  =       927.95517654
  PAW double counting   =      3940.58087791    -4021.47896186
  entropy T*S    EENTRO =        -0.00000000
  eigenvalues    EBANDS =        76.85491553
  atomic energy  EATOM  =      9416.14232778
  Solvation  Ediel_sol  =         0.00000000
  ---------------------------------------------------
  free energy    TOTEN  =      -580.29714040 eV

  energy without entropy =     -580.29714040  energy(sigma->0) =     -580.29714040


--------------------------------------------------------------------------------------------------------




--------------------------------------- Iteration      1(   8)  ---------------------------------------


    POTLOK:  cpu time    0.0572: real time    0.0572
    SETDIJ:  cpu time    0.0384: real time    0.0384
     EDDAV:  cpu time   14.0974: real time   14.0982
       DOS:  cpu time    0.0026: real time    0.0026
    CHARGE:  cpu time    0.4487: real time    0.4487
    MIXING:  cpu time    0.0045: real time    0.0045
    --------------------------------------------
      LOOP:  cpu time   14.6489: real time   14.6498

 eigenvalue-minimisations  :  8736
 total energy-change (2. order) :-0.5416507E-01  (-0.2236265E-01)
 number of electron     256.0000003 magnetization 
 augmentation part        5.6763108 magnetization 

 Broyden mixing:
  rms(total) = 0.20661E-01    rms(broyden)= 0.20381E-01
  rms(prec ) = 0.25030E-01
  weight for this iteration     100.00

 eigenvalues of (default mixing * dielectric matrix)
  average eigenvalue GAMMA=   2.1057
  1.4640  2.6844  2.1686

 Free energy of the ion-electron system (eV)
  ---------------------------------------------------
  alpha Z        PSCENC =       866.97285445
  Ewald energy   TEWEN  =    -10919.68759552
  -Hartree energ DENC   =      -870.18426925
  -exchange      EXHF   =         0.00000000
  -V(xc)+E(xc)   XCENC  =       928.21623262
  PAW double counting   =      3990.12652373    -4070.01090873
  entropy T*S    EENTRO =        -0.00000000
  eigenvalues    EBANDS =        78.07352945
  atomic energy  EATOM  =      9416.14232778
  Solvation  Ediel_sol  =         0.00000000
  ---------------------------------------------------
  free energy    TOTEN  =      -580.35130546 eV

  energy without entropy =     -580.35130546  energy(sigma->0) =     -580.35130546


--------------------------------------------------------------------------------------------------------




--------------------------------------- Iteration      1(   9)  ---------------------------------------


    POTLOK:  cpu time    0.0560: real time    0.0560
    SETDIJ:  cpu time    0.0392: real time    0.0392
     EDDAV:  cpu time   14.6633: real time   14.6643
       DOS:  cpu time    0.0026: real time    0.0026
    CHARGE:  cpu time    0.4466: real time    0.4466
    MIXING:  cpu time    0.0087: real time    0.0087
    --------------------------------------------
      LOOP:  cpu time   15.2164: real time   15.2174

 eigenvalue-minimisations  :  9088
 total energy-change (2. order) :-0.2171713E-02  (-0.3631608E-03)
 number of electron     256.0000003 magnetization 
 augmentation part        5.6752832 magnetization 

 Broyden mixing:
  rms(total) = 0.77343E-02    rms(broyden)= 0.77140E-02
  rms(prec ) = 0.98695E-02
  weight for this iteration     100.00

 eigenvalues of (default mixing * dielectric matrix)
  average eigenvalue GAMMA=   2.0510
  0.9683  2.7719  2.4784  1.9855

 Free energy of the ion-electron system (eV)
  ---------------------------------------------------
  alpha Z        PSCENC =       866.97285445
  Ewald energy   TEWEN  =    -10919.68759552
  -Hartree energ DENC   =      -869.69378615
  -exchange      EXHF   =         0.00000000
  -V(xc)+E(xc)   XCENC  =       928.16807816
  PAW double counting   =      3985.34551238    -4065.13226259
  entropy T*S    EENTRO =        -0.00000000
  eigenvalues    EBANDS =        77.53139432
  atomic energy  EATOM  =      9416.14232778
  Solvation  Ediel_sol  =         0.00000000
  ---------------------------------------------------
  free energy    TOTEN  =      -580.35347718 eV

  energy without entropy =     -580.35347718  energy(sigma->0) =     -580.35347718


--------------------------------------------------------------------------------------------------------




--------------------------------------- Iteration      1(  10)  ---------------------------------------


    POTLOK:  cpu time    0.0564: real time    0.0564
    SETDIJ:  cpu time    0.0388: real time    0.0388
     EDDAV:  cpu time   13.8564: real time   13.8573
       DOS:  cpu time    0.0026: real time    0.0026
    CHARGE:  cpu time    0.4441: real time    0.4441
    MIXING:  cpu time    0.0047: real time    0.0047
    --------------------------------------------
      LOOP:  cpu time   14.4030: real time   14.4039

 eigenvalue-minimisations  :  8480
 total energy-change (2. order) :-0.4678494E-03  (-0.4395885E-04)
 number of electron     256.0000003 magnetization 
 augmentation part        5.6749908 magnetization 

 Broyden mixing:
  rms(total) = 0.78663E-03    rms(broyden)= 0.77115E-03
  rms(prec ) = 0.11591E-02
  weight for this iteration     100.00

 eigenvalues of (default mixing * dielectric matrix)
  average eigenvalue GAMMA=   1.9657
  2.9476  2.5512  2.0681  0.9853  1.2764

 Free energy of the ion-electron system (eV)
  ---------------------------------------------------
  alpha Z        PSCENC =       866.97285445
  Ewald energy   TEWEN  =    -10919.68759552
  -Hartree energ DENC   =      -870.10966026
  -exchange      EXHF   =         0.00000000
  -V(xc)+E(xc)   XCENC  =       928.20457790
  PAW double counting   =      3982.23344844    -4062.03544931
  entropy T*S    EENTRO =        -0.00000000
  eigenvalues    EBANDS =        77.92555148
  atomic energy  EATOM  =      9416.14232778
  Solvation  Ediel_sol  =         0.00000000
  ---------------------------------------------------
  free energy    TOTEN  =      -580.35394503 eV

  energy without entropy =     -580.35394503  energy(sigma->0) =     -580.35394503


--------------------------------------------------------------------------------------------------------




--------------------------------------- Iteration      1(  11)  ---------------------------------------


    POTLOK:  cpu time    0.0557: real time    0.0557
    SETDIJ:  cpu time    0.0388: real time    0.0388
     EDDAV:  cpu time   14.6896: real time   14.6905
       DOS:  cpu time    0.0028: real time    0.0028
    CHARGE:  cpu time    0.4458: real time    0.4458
    MIXING:  cpu time    0.0047: real time    0.0047
    --------------------------------------------
      LOOP:  cpu time   15.2375: real time   15.2384

 eigenvalue-minimisations  :  9056
 total energy-change (2. order) :-0.3933481E-05  (-0.1164814E-05)
 number of electron     256.0000003 magnetization 
 augmentation part        5.6747875 magnetization 

 Broyden mixing:
  rms(total) = 0.21105E-03    rms(broyden)= 0.20507E-03
  rms(prec ) = 0.28083E-03
  weight for this iteration     100.00

 eigenvalues of (default mixing * dielectric matrix)
  average eigenvalue GAMMA=   1.9975
  3.0025  2.5835  2.3918  2.0203  0.9934  0.9934

 Free energy of the ion-electron system (eV)
  ---------------------------------------------------
  alpha Z        PSCENC =       866.97285445
  Ewald energy   TEWEN  =    -10919.68759552
  -Hartree energ DENC   =      -870.22944119
  -exchange      EXHF   =         0.00000000
  -V(xc)+E(xc)   XCENC  =       928.21574961
  PAW double counting   =      3982.60653007    -4062.41344783
  entropy T*S    EENTRO =        -0.00000000
  eigenvalues    EBANDS =        78.03907366
  atomic energy  EATOM  =      9416.14232778
  Solvation  Ediel_sol  =         0.00000000
  ---------------------------------------------------
  free energy    TOTEN  =      -580.35394896 eV

  energy without entropy =     -580.35394896  energy(sigma->0) =     -580.35394896


--------------------------------------------------------------------------------------------------------




--------------------------------------- Iteration      1(  12)  ---------------------------------------


    POTLOK:  cpu time    0.0586: real time    0.0586
    SETDIJ:  cpu time    0.0392: real time    0.0392
     EDDAV:  cpu time   14.2998: real time   14.3007
       DOS:  cpu time    0.0026: real time    0.0026
    CHARGE:  cpu time    0.4462: real time    0.4462
    MIXING:  cpu time    0.0052: real time    0.0052
    --------------------------------------------
      LOOP:  cpu time   14.8517: real time   14.8526

 eigenvalue-minimisations  :  8864
 total energy-change (2. order) :-0.2435772E-06  (-0.5380635E-07)
 number of electron     256.0000003 magnetization 
 augmentation part        5.6748104 magnetization 

 Broyden mixing:
  rms(total) = 0.18593E-04    rms(broyden)= 0.17124E-04
  rms(prec ) = 0.21794E-04
  weight for this iteration     100.00

 eigenvalues of (default mixing * dielectric matrix)
  average eigenvalue GAMMA=   1.8721
  2.9558  2.6310  2.4889  2.0331  0.9608  1.0174  1.0174

 Free energy of the ion-electron system (eV)
  ---------------------------------------------------
  alpha Z        PSCENC =       866.97285445
  Ewald energy   TEWEN  =    -10919.68759552
  -Hartree energ DENC   =      -870.21128893
  -exchange      EXHF   =         0.00000000
  -V(xc)+E(xc)   XCENC  =       928.21407063
  PAW double counting   =      3982.66057721    -4062.46550272
  entropy T*S    EENTRO =        -0.00000000
  eigenvalues    EBANDS =        78.02060790
  atomic energy  EATOM  =      9416.14232778
  Solvation  Ediel_sol  =         0.00000000
  ---------------------------------------------------
  free energy    TOTEN  =      -580.35394920 eV

  energy without entropy =     -580.35394920  energy(sigma->0) =     -580.35394920


--------------------------------------------------------------------------------------------------------




--------------------------------------- Iteration      1(  13)  ---------------------------------------


    POTLOK:  cpu time    0.0576: real time    0.0576
    SETDIJ:  cpu time    0.0387: real time    0.0387
     EDDAV:  cpu time   12.1390: real time   12.1398
       DOS:  cpu time    0.0026: real time    0.0026
    CHARGE:  cpu time    0.4456: real time    0.4457
    MIXING:  cpu time    0.0050: real time    0.0050
    --------------------------------------------
      LOOP:  cpu time   12.6885: real time   12.6893

 eigenvalue-minimisations  :  6784
 total energy-change (2. order) :-0.1228218E-06  (-0.7919476E-09)
 number of electron     256.0000003 magnetization 
 augmentation part        5.6748068 magnetization 

 Broyden mixing:
  rms(total) = 0.54431E-05    rms(broyden)= 0.52224E-05
  rms(prec ) = 0.66913E-05
  weight for this iteration     100.00

 eigenvalues of (default mixing * dielectric matrix)
  average eigenvalue GAMMA=   2.0089
  2.9704  2.9704  2.0357  2.6077  2.4965  1.0110  1.0110  0.9684

 Free energy of the ion-electron system (eV)
  ---------------------------------------------------
  alpha Z        PSCENC =       866.97285445
  Ewald energy   TEWEN  =    -10919.68759552
  -Hartree energ DENC   =      -870.21026808
  -exchange      EXHF   =         0.00000000
  -V(xc)+E(xc)   XCENC  =       928.21397357
  PAW double counting   =      3982.66030770    -4062.46521800
  entropy T*S    EENTRO =        -0.00000000
  eigenvalues    EBANDS =        78.01966877
  atomic energy  EATOM  =      9416.14232778
  Solvation  Ediel_sol  =         0.00000000
  ---------------------------------------------------
  free energy    TOTEN  =      -580.35394933 eV

  energy without entropy =     -580.35394933  energy(sigma->0) =     -580.35394933


--------------------------------------------------------------------------------------------------------




--------------------------------------- Iteration      1(  14)  ---------------------------------------


    POTLOK:  cpu time    0.0565: real time    0.0565
    SETDIJ:  cpu time    0.0393: real time    0.0393
     EDDAV:  cpu time   11.4363: real time   11.4370
       DOS:  cpu time    0.0026: real time    0.0026
    CHARGE:  cpu time    0.4476: real time    0.4477
    MIXING:  cpu time    0.0053: real time    0.0053
    --------------------------------------------
      LOOP:  cpu time   11.9877: real time   11.9884

 eigenvalue-minimisations  :  6240
 total energy-change (2. order) :-0.1130320E-07  (-0.1232672E-09)
 number of electron     256.0000003 magnetization 
 augmentation part        5.6748070 magnetization 

 Broyden mixing:
  rms(total) = 0.17812E-05    rms(broyden)= 0.17614E-05
  rms(prec ) = 0.24129E-05
  weight for this iteration     100.00

 eigenvalues of (default mixing * dielectric matrix)
  average eigenvalue GAMMA=   1.8639
  2.0395  2.9298  2.7131  2.5226  2.5522  0.9889  0.9889  1.0203  1.0203

 Free energy of the ion-electron system (eV)
  ---------------------------------------------------
  alpha Z        PSCENC =       866.97285445
  Ewald energy   TEWEN  =    -10919.68759552
  -Hartree energ DENC   =      -870.20975629
  -exchange      EXHF   =         0.00000000
  -V(xc)+E(xc)   XCENC  =       928.21392605
  PAW double counting   =      3982.65491504    -4062.45980220
  entropy T*S    EENTRO =        -0.00000000
  eigenvalues    EBANDS =        78.01918135
  atomic energy  EATOM  =      9416.14232778
  Solvation  Ediel_sol  =         0.00000000
  ---------------------------------------------------
  free energy    TOTEN  =      -580.35394934 eV

  energy without entropy =     -580.35394934  energy(sigma->0) =     -580.35394934


--------------------------------------------------------------------------------------------------------




--------------------------------------- Iteration      1(  15)  ---------------------------------------


    POTLOK:  cpu time    0.0585: real time    0.0585
    SETDIJ:  cpu time    0.0387: real time    0.0387
     EDDAV:  cpu time   10.7921: real time   10.7928
       DOS:  cpu time    0.0026: real time    0.0026
    --------------------------------------------
      LOOP:  cpu time   10.8919: real time   10.8926

 eigenvalue-minimisations  :  5696
 total energy-change (2. order) : 0.3565219E-09  (-0.2986639E-10)
 number of electron     256.0000003 magnetization 
 augmentation part        5.6748070 magnetization 

 Free energy of the ion-electron system (eV)
  ---------------------------------------------------
  alpha Z        PSCENC =       866.97285445
  Ewald energy   TEWEN  =    -10919.68759552
  -Hartree energ DENC   =      -870.20990495
  -exchange      EXHF   =         0.00000000
  -V(xc)+E(xc)   XCENC  =       928.21393999
  PAW double counting   =      3982.65582940    -4062.46072769
  entropy T*S    EENTRO =        -0.00000000
  eigenvalues    EBANDS =        78.01932720
  atomic energy  EATOM  =      9416.14232778
  Solvation  Ediel_sol  =         0.00000000
  ---------------------------------------------------
  free energy    TOTEN  =      -580.35394934 eV

  energy without entropy =     -580.35394934  energy(sigma->0) =     -580.35394934


--------------------------------------------------------------------------------------------------------




 average (electrostatic) potential at core
  the test charge radii are     0.6991
  (the norm of the test charge is              1.0000)
       1 -46.2211       2 -46.2211       3 -46.2211       4 -46.2211       5 -46.2211
       6 -46.2211       7 -46.2211       8 -46.2211       9 -46.2211      10 -46.2211
      11 -46.2211      12 -46.2211      13 -46.2211      14 -46.2211      15 -46.2211
      16 -46.2211      17 -46.2211      18 -46.2211      19 -46.2211      20 -46.2211
      21 -46.2211      22 -46.2211      23 -46.2211      24 -46.2211      25 -46.2211
      26 -46.2211      27 -46.2211      28 -46.2211      29 -46.2211      30 -46.2211
      31 -46.2211      32 -46.2211      33 -46.2211      34 -46.2211      35 -46.2211
      36 -46.2211      37 -46.2211      38 -46.2211      39 -46.2211      40 -46.2211
      41 -46.2211      42 -46.2211      43 -46.2211      44 -46.2211      45 -46.2211
      46 -46.2211      47 -46.2211      48 -46.2211      49 -46.2211      50 -46.2211
      51 -46.2211      52 -46.2211      53 -46.2211      54 -46.2211      55 -46.2211
      56 -46.2211      57 -46.2211      58 -46.2211      59 -46.2211      60 -46.2211
      61 -46.2211      62 -46.2211      63 -46.2211      64 -46.2211
 
 
 
 E-fermi :   9.3976     XC(G=0): -12.9321     alpha+bet :-16.6903


 k-point     1 :       0.0000    0.0000    0.0000
  band No.  band energies     occupation 
      1     -11.7812      2.00000
      2      -9.6170      2.00000
      3      -9.6170      2.00000
      4      -9.6170      2.00000
      5      -9.6170      2.00000
      6      -9.5322      2.00000
      7      -9.5322      2.00000
      8      -7.5568      2.00000
      9      -7.5568      2.00000
     10      -7.5568      2.00000
     11      -7.5568      2.00000
     12      -7.4812      2.00000
     13      -7.4812      2.00000
     14      -7.4812      2.00000
     15      -7.4812      2.00000
     16      -7.4812      2.00000
     17      -7.4812      2.00000
     18      -7.4812      2.00000
     19      -7.4812      2.00000
     20      -6.3349      2.00000
     21      -6.3349      2.00000
     22      -6.3349      2.00000
     23      -6.3349      2.00000
     24      -3.8149      2.00000
     25      -3.8149      2.00000
     26      -3.8149      2.00000
     27      -3.8149      2.00000
     28      -3.5324      2.00000
     29      -3.5324      2.00000
     30      -3.5324      2.00000
     31      -3.5324      2.00000
     32      -3.2469      2.00000
     33      -3.2469      2.00000
     34      -2.7935      2.00000
     35      -2.7935      2.00000
     36      -2.7935      2.00000
     37      -2.7935      2.00000
     38      -2.7146      2.00000
     39      -2.7146      2.00000
     40      -2.7146      2.00000
     41      -2.7146      2.00000
     42      -2.7146      2.00000
     43      -2.7146      2.00000
     44      -2.7146      2.00000
     45      -2.7146      2.00000
     46       0.4534      2.00000
     47       0.4534      2.00000
     48       0.4534      2.00000
     49       0.4534      2.00000
     50       0.4534      2.00000
     51       0.4534      2.00000
     52       0.4534      2.00000
     53       0.4534      2.00000
     54       0.6122      2.00000
     55       0.6122      2.00000
     56       0.6122      2.00000
     57       0.6122      2.00000
     58       1.0873      2.00000
     59       1.0873      2.00000
     60       1.0873      2.00000
     61       1.0873      2.00000
     62       1.1112      2.00000
     63       1.1112      2.00000
     64       1.1112      2.00000
     65       1.1112      2.00000
     66       1.1112      2.00000
     67       1.1112      2.00000
     68       1.1112      2.00000
     69       1.1112      2.00000
     70       1.6419      2.00000
     71       1.6419      2.00000
     72       1.6419      2.00000
     73       1.6419      2.00000
     74       1.6419      2.00000
     75       1.6419      2.00000
     76       1.6419      2.00000
     77       1.6419      2.00000
     78       1.8764      2.00000
     79       1.8764      2.00000
     80       1.8764      2.00000
     81       1.8764      2.00000
     82       2.7951      2.00000
     83       2.7951      2.00000
     84       3.0692      2.00000
     85       3.0692      2.00000
     86       3.0692      2.00000
     87       3.0692      2.00000
     88       4.3570      2.00000
     89       4.3570      2.00000
     90       4.3570      2.00000
     91       4.3570      2.00000
     92       4.6952      2.00000
     93       4.6952      2.00000
     94       4.9114      2.00000
     95       4.9114      2.00000
     96       4.9114      2.00000
     97       4.9114      2.00000
     98       5.0688      2.00000
     99       5.0688      2.00000
    100       5.0688      2.00000
    101       5.0688      2.00000
    102       5.1677      2.00000
    103       5.1677      2.00000
    104       5.1677      2.00000
    105       5.1677      2.00000
    106       5.9033      2.00000
    107       5.9033      2.00000
    108       5.9033      2.00000
    109       5.9033      2.00000
    110       6.1111      2.00000
    111       6.1111      2.00000
    112       6.1111      2.00000
    113       6.1111      2.00000
    114       6.1740      2.00000
    115       6.1740      2.00000
    116       6.1740      2.00000
    117       6.1740      2.00000
    118       6.1740      2.00000
    119       6.1740      2.00000
    120       6.1740      2.00000
    121       6.1740      2.00000
    122       6.4387      2.00000
    123       6.4387      2.00000
    124       6.4387      2.00000
    125       6.4387      2.00000
    126       8.8518      2.00000
    127       8.8518      2.00000
    128       9.1402      2.00000
    129      12.9720      0.00000
    130      12.9720      0.00000
    131      13.2711      0.00000
    132      13.2711      0.00000
    133      13.3634      0.00000
    134      13.3634      0.00000
    135      13.3634      0.00000
    136      13.3634      0.00000
    137      13.7100      0.00000
    138      13.7100      0.00000
    139      13.7100      0.00000
    140      13.7100      0.00000
    141      14.2189      0.00000
    142      14.4429      0.00000
    143      14.4429      0.00000
    144      16.2443      0.00000
    145      16.2443      0.00000
    146      16.2443      0.00000
    147      16.2443      0.00000
    148      16.7054      0.00000
    149      16.7054      0.00000
    150      16.7054      0.00000
    151      16.7054      0.00000
    152      16.7054      0.00000
    153      16.7054      0.00000
    154      16.7054      0.00000
    155      16.7054      0.00000
    156      16.7451      0.00000
    157      16.7451      0.00000
    158      16.7451      0.00000
    159      16.7451      0.00000
    160      17.0776      0.00000
    161      17.0776      0.00000
    162      17.0776      0.00000
    163      17.0776      0.00000
    164      17.4575      0.00000
    165      17.4575      0.00000
    166      17.4575      0.00000
    167      17.4575      0.00000
    168      18.4964      0.00000
    169      18.4964      0.00000
    170      18.4964      0.00000
    171      18.4964      0.00000
    172      18.4964      0.00000
    173      18.4964      0.00000
    174      18.4964      0.00000
    175      18.4964      0.00000
    176      18.5985      0.00000
    177      18.5985      0.00000
    178      18.5985      0.00000
    179      18.5985      0.00000
    180      18.6693      0.00000
    181      18.6693      0.00000
    182      18.7986      0.00000
    183      18.7986      0.00000
    184      18.7986      0.00000
    185      18.7986      0.00000
    186      19.1371      0.00000
    187      19.1371      0.00000
    188      19.1371      0.00000
    189      19.1372      0.00000
    190      19.1372      0.00000
    191      19.1373      0.00000
    192      19.1377      0.00000

 k-point     2 :       0.2500    0.0000    0.0000
  band No.  band energies     occupation 
      1     -11.6445      2.00000
      2     -10.5574      2.00000
      3      -9.4852      2.00000
      4      -9.4852      2.00000
      5      -9.4007      2.00000
      6      -9.4007      2.00000
      7      -8.4441      2.00000
      8      -8.4441      2.00000
      9      -8.4245      2.00000
     10      -8.3635      2.00000
     11      -8.3635      2.00000
     12      -7.3677      2.00000
     13      -7.3677      2.00000
     14      -7.3677      2.00000
     15      -7.3677      2.00000
     16      -6.5990      2.00000
     17      -6.5990      2.00000
     18      -6.5990      2.00000
     19      -6.5990      2.00000
     20      -6.4574      2.00000
     21      -6.4574      2.00000
     22      -6.3920      2.00000
     23      -6.3920      2.00000
     24      -5.3535      2.00000
     25      -3.8917      2.00000
     26      -3.8917      2.00000
     27      -3.8899      2.00000
     28      -3.8899      2.00000
     29      -3.4471      2.00000
     30      -3.4471      2.00000
     31      -3.3127      2.00000
     32      -3.3127      2.00000
     33      -3.3127      2.00000
     34      -3.3127      2.00000
     35      -3.1716      2.00000
     36      -3.1716      2.00000
     37      -2.9141      2.00000
     38      -2.9141      2.00000
     39      -2.7623      2.00000
     40      -2.7623      2.00000
     41      -1.9551      2.00000
     42      -1.9551      2.00000
     43      -1.8066      2.00000
     44      -1.8066      2.00000
     45      -1.5802      2.00000
     46      -0.7242      2.00000
     47      -0.7242      2.00000
     48      -0.7242      2.00000
     49      -0.7242      2.00000
     50      -0.4501      2.00000
     51      -0.4501      2.00000
     52      -0.2727      2.00000
     53      -0.2727      2.00000
     54       0.5070      2.00000
     55       0.5070      2.00000
     56       0.6279      2.00000
     57       0.6279      2.00000
     58       0.9201      2.00000
     59       0.9201      2.00000
     60       1.1344      2.00000
     61       1.1344      2.00000
     62       1.3035      2.00000
     63       1.3035      2.00000
     64       1.4528      2.00000
     65       1.4528      2.00000
     66       1.4828      2.00000
     67       1.4828      2.00000
     68       1.6041      2.00000
     69       1.6041      2.00000
     70       2.1951      2.00000
     71       2.1951      2.00000
     72       2.2695      2.00000
     73       2.2695      2.00000
     74       2.4477      2.00000
     75       2.5194      2.00000
     76       2.5194      2.00000
     77       2.5773      2.00000
     78       2.5773      2.00000
     79       2.7855      2.00000
     80       2.7855      2.00000
     81       2.8252      2.00000
     82       2.8252      2.00000
     83       2.8828      2.00000
     84       2.8828      2.00000
     85       2.8828      2.00000
     86       2.8828      2.00000
     87       3.1910      2.00000
     88       3.2121      2.00000
     89       3.6848      2.00000
     90       3.6848      2.00000
     91       3.7353      2.00000
     92       3.7353      2.00000
     93       4.2074      2.00000
     94       4.2763      2.00000
     95       4.5178      2.00000
     96       4.5178      2.00000
     97       4.7769      2.00000
     98       4.7769      2.00000
     99       4.9779      2.00000
    100       4.9779      2.00000
    101       5.1886      2.00000
    102       5.1886      2.00000
    103       5.5567      2.00000
    104       5.5567      2.00000
    105       5.6844      2.00000
    106       5.6844      2.00000
    107       5.6844      2.00000
    108       5.6844      2.00000
    109       5.6907      2.00000
    110       5.6907      2.00000
    111       6.0779      2.00000
    112       6.1201      2.00000
    113       6.2032      2.00000
    114       6.2032      2.00000
    115       6.2032      2.00000
    116       6.2032      2.00000
    117       6.2271      2.00000
    118       6.2271      2.00000
    119       6.2558      2.00000
    120       6.3585      2.00000
    121       6.3585      2.00000
    122       6.3585      2.00000
    123       6.3585      2.00000
    124       6.5218      2.00000
    125       6.5218      2.00000
    126       8.3516      2.00000
    127       8.4921      2.00000
    128       8.5996      2.00000
    129      13.1367      0.00000
    130      13.2626      0.00000
    131      13.5519      0.00000
    132      13.5519      0.00000
    133      13.6998      0.00000
    134      13.8178      0.00000
    135      13.8178      0.00000
    136      13.9382      0.00000
    137      13.9382      0.00000
    138      14.2541      0.00000
    139      14.2541      0.00000
    140      14.3440      0.00000
    141      14.4734      0.00000
    142      14.8291      0.00000
    143      15.1108      0.00000
    144      16.1323      0.00000
    145      16.1323      0.00000
    146      16.6631      0.00000
    147      16.6631      0.00000
    148      16.7690      0.00000
    149      16.7690      0.00000
    150      16.7690      0.00000
    151      16.7690      0.00000
    152      16.8373      0.00000
    153      16.8373      0.00000
    154      16.9969      0.00000
    155      16.9969      0.00000
    156      16.9969      0.00000
    157      16.9969      0.00000
    158      17.0553      0.00000
    159      17.0553      0.00000
    160      17.0654      0.00000
    161      17.1618      0.00000
    162      17.1618      0.00000
    163      17.1714      0.00000
    164      17.1714      0.00000
    165      17.1714      0.00000
    166      17.1714      0.00000
    167      17.2496      0.00000
    168      17.2496      0.00000
    169      17.4476      0.00000
    170      17.4476      0.00000
    171      17.6052      0.00000
    172      17.6052      0.00000
    173      17.6052      0.00000
    174      17.6052      0.00000
    175      17.6598      0.00000
    176      17.6598      0.00000
    177      17.8539      0.00000
    178      17.8539      0.00000
    179      17.9376      0.00000
    180      18.2605      0.00000
    181      18.2605      0.00000
    182      18.2605      0.00000
    183      18.2605      0.00000
    184      18.3879      0.00000
    185      18.4234      0.00000
    186      18.4234      0.00000
    187      19.0041      0.00000
    188      19.0081      0.00000
    189      19.1326      0.00000
    190      19.1402      0.00000
    191      19.1454      0.00000
    192      19.2004      0.00000

 k-point     3 :       0.5000    0.0000    0.0000
  band No.  band energies     occupation 
      1     -11.2354      2.00000
      2     -11.2354      2.00000
      3      -9.0918      2.00000
      4      -9.0918      2.00000
      5      -9.0918      2.00000
      6      -9.0918      2.00000
      7      -9.0086      2.00000
      8      -9.0086      2.00000
      9      -9.0086      2.00000
     10      -9.0086      2.00000
     11      -7.0449      2.00000
     12      -7.0449      2.00000
     13      -7.0449      2.00000
     14      -7.0449      2.00000
     15      -7.0449      2.00000
     16      -7.0449      2.00000
     17      -7.0449      2.00000
     18      -7.0449      2.00000
     19      -6.9956      2.00000
     20      -6.9956      2.00000
     21      -5.1992      2.00000
     22      -5.1992      2.00000
     23      -5.1992      2.00000
     24      -5.1992      2.00000
     25      -5.1553      2.00000
     26      -5.1553      2.00000
     27      -5.1553      2.00000
     28      -5.1553      2.00000
     29      -3.2135      2.00000
     30      -3.2135      2.00000
     31      -3.2135      2.00000
     32      -3.2135      2.00000
     33      -2.9751      2.00000
     34      -2.9751      2.00000
     35      -2.9751      2.00000
[...]
      4.576369  0.915274  6.282499    -0.086804    0.088678    0.000531  
      0.915274  4.576369  6.282499     0.086804   -0.088678   -0.000531  
      4.576369  4.576369  6.282499     0.086804    0.088678    0.012553  
      0.000000  1.830547  0.000000    -0.001445   -0.127938    0.008782  
      3.661095  1.830547  0.000000    -0.001445    0.127938    0.008424  
      0.000000  5.491642  0.000000     0.001445   -0.127938   -0.008424  
      3.661095  5.491642  0.000000     0.001445    0.127938   -0.008782  
      0.000000  1.830547  3.589999    -0.001445   -0.127938    0.008782  
      3.661095  1.830547  3.589999    -0.001445    0.127938    0.008424  
      0.000000  5.491642  3.589999     0.001445   -0.127938   -0.008424  
      3.661095  5.491642  3.589999     0.001445    0.127938   -0.008782  
      2.745821  2.745821  2.692500     0.084760    0.092253   -0.012445  
      6.406916  2.745821  2.692500     0.084760   -0.092253    0.000133  
      2.745821  6.406916  2.692500    -0.084760    0.092253   -0.000133  
      6.406916  6.406916  2.692500    -0.084760   -0.092253    0.012445  
      2.745821  2.745821  6.282499     0.084760    0.092253   -0.012445  
      6.406916  2.745821  6.282499     0.084760   -0.092253    0.000133  
      2.745821  6.406916  6.282499    -0.084760    0.092253   -0.000133  
      6.406916  6.406916  6.282499    -0.084760   -0.092253    0.012445  
      1.830547  0.000000  0.000000    -0.121314    0.002527    0.008970  
      5.491642  0.000000  0.000000    -0.121314   -0.002527   -0.009175  
      1.830547  3.661095  0.000000     0.121314    0.002527    0.009175  
      5.491642  3.661095  0.000000     0.121314   -0.002527   -0.008970  
      1.830547  0.000000  3.589999    -0.121314    0.002527    0.008970  
      5.491642  0.000000  3.589999    -0.121314   -0.002527   -0.009175  
      1.830547  3.661095  3.589999     0.121314    0.002527    0.009175  
      5.491642  3.661095  3.589999     0.121314   -0.002527   -0.008970  
      2.745821  0.915274  0.897500    -0.086804    0.092253   -0.012300  
      6.406916  0.915274  0.897500    -0.086804   -0.092253    0.000278  
      2.745821  4.576369  0.897500     0.086804    0.092253   -0.000278  
      6.406916  4.576369  0.897500     0.086804   -0.092253    0.012300  
      2.745821  0.915274  4.487499    -0.086804    0.092253   -0.012300  
      6.406916  0.915274  4.487499    -0.086804   -0.092253    0.000278  
      2.745821  4.576369  4.487499     0.086804    0.092253   -0.000278  
      6.406916  4.576369  4.487499     0.086804   -0.092253    0.012300  
      1.830547  1.830547  1.795000    -0.001445    0.002527    0.017676  
      5.491642  1.830547  1.795000    -0.001445   -0.002527   -0.000470  
      1.830547  5.491642  1.795000     0.001445    0.002527    0.000470  
      5.491642  5.491642  1.795000     0.001445   -0.002527   -0.017676  
      1.830547  1.830547  5.384999    -0.001445    0.002527    0.017676  
      5.491642  1.830547  5.384999    -0.001445   -0.002527   -0.000470  
      1.830547  5.491642  5.384999     0.001445    0.002527    0.000470  
      5.491642  5.491642  5.384999     0.001445   -0.002527   -0.017676  
 
 190 f  =    0.000003 THz     0.000017 2PiTHz    0.000090 cm-1     0.000011 meV
             X         Y         Z           dx          dy          dz
      0.915274  2.745821  0.897500     0.056406   -0.111550    0.000001  
      4.576369  2.745821  0.897500     0.056406   -0.111550    0.000001  
      0.915274  6.406916  0.897500     0.056406   -0.111550    0.000001  
      4.576369  6.406916  0.897500     0.056406   -0.111550    0.000001  
      0.915274  2.745821  4.487499     0.056406   -0.111550    0.000001  
      4.576369  2.745821  4.487499     0.056406   -0.111550    0.000001  
      0.915274  6.406916  4.487499     0.056406   -0.111550    0.000001  
      4.576369  6.406916  4.487499     0.056406   -0.111550    0.000001  
      0.000000  0.000000  1.795000     0.056406   -0.111550    0.000001  
      3.661095  0.000000  1.795000     0.056406   -0.111550    0.000001  
      0.000000  3.661095  1.795000     0.056406   -0.111550    0.000001  
      3.661095  3.661095  1.795000     0.056406   -0.111550    0.000001  
      0.000000  0.000000  5.384999     0.056406   -0.111550    0.000001  
      3.661095  0.000000  5.384999     0.056406   -0.111550    0.000001  
      0.000000  3.661095  5.384999     0.056406   -0.111550    0.000001  
      3.661095  3.661095  5.384999     0.056406   -0.111550    0.000001  
      0.915274  0.915274  2.692500     0.056406   -0.111550    0.000001  
      4.576369  0.915274  2.692500     0.056406   -0.111550    0.000001  
      0.915274  4.576369  2.692500     0.056406   -0.111550    0.000001  
      4.576369  4.576369  2.692500     0.056406   -0.111550    0.000001  
      0.915274  0.915274  6.282499     0.056406   -0.111550    0.000001  
      4.576369  0.915274  6.282499     0.056406   -0.111550    0.000001  
      0.915274  4.576369  6.282499     0.056406   -0.111550    0.000001  
      4.576369  4.576369  6.282499     0.056406   -0.111550    0.000001  
      0.000000  1.830547  0.000000     0.056406   -0.111550    0.000001  
      3.661095  1.830547  0.000000     0.056406   -0.111550    0.000001  
      0.000000  5.491642  0.000000     0.056406   -0.111550    0.000001  
      3.661095  5.491642  0.000000     0.056406   -0.111550    0.000001  
      0.000000  1.830547  3.589999     0.056406   -0.111550    0.000001  
      3.661095  1.830547  3.589999     0.056406   -0.111550    0.000001  
      0.000000  5.491642  3.589999     0.056406   -0.111550    0.000001  
      3.661095  5.491642  3.589999     0.056406   -0.111550    0.000001  
      2.745821  2.745821  2.692500     0.056406   -0.111550    0.000001  
      6.406916  2.745821  2.692500     0.056406   -0.111550    0.000001  
      2.745821  6.406916  2.692500     0.056406   -0.111550    0.000001  
      6.406916  6.406916  2.692500     0.056406   -0.111550    0.000001  
      2.745821  2.745821  6.282499     0.056406   -0.111550    0.000001  
      6.406916  2.745821  6.282499     0.056406   -0.111550    0.000001  
      2.745821  6.406916  6.282499     0.056406   -0.111550    0.000001  
      6.406916  6.406916  6.282499     0.056406   -0.111550    0.000001  
      1.830547  0.000000  0.000000     0.056406   -0.111550    0.000001  
      5.491642  0.000000  0.000000     0.056406   -0.111550    0.000001  
      1.830547  3.661095  0.000000     0.056406   -0.111550    0.000001  
      5.491642  3.661095  0.000000     0.056406   -0.111550    0.000001  
      1.830547  0.000000  3.589999     0.056406   -0.111550    0.000001  
      5.491642  0.000000  3.589999     0.056406   -0.111550    0.000001  
      1.830547  3.661095  3.589999     0.056406   -0.111550    0.000001  
      5.491642  3.661095  3.589999     0.056406   -0.111550    0.000001  
      2.745821  0.915274  0.897500     0.056406   -0.111550    0.000001  
      6.406916  0.915274  0.897500     0.056406   -0.111550    0.000001  
      2.745821  4.576369  0.897500     0.056406   -0.111550    0.000001  
      6.406916  4.576369  0.897500     0.056406   -0.111550    0.000001  
      2.745821  0.915274  4.487499     0.056406   -0.111550    0.000001  
      6.406916  0.915274  4.487499     0.056406   -0.111550    0.000001  
      2.745821  4.576369  4.487499     0.056406   -0.111550    0.000001  
      6.406916  4.576369  4.487499     0.056406   -0.111550    0.000001  
      1.830547  1.830547  1.795000     0.056406   -0.111550    0.000001  
      5.491642  1.830547  1.795000     0.056406   -0.111550    0.000001  
      1.830547  5.491642  1.795000     0.056406   -0.111550    0.000001  
      5.491642  5.491642  1.795000     0.056406   -0.111550    0.000001  
      1.830547  1.830547  5.384999     0.056406   -0.111550    0.000001  
      5.491642  1.830547  5.384999     0.056406   -0.111550    0.000001  
      1.830547  5.491642  5.384999     0.056406   -0.111550    0.000001  
      5.491642  5.491642  5.384999     0.056406   -0.111550    0.000001  
 
 191 f  =    0.000002 THz     0.000015 2PiTHz    0.000080 cm-1     0.000010 meV
             X         Y         Z           dx          dy          dz
      0.915274  2.745821  0.897500    -0.111550   -0.056406   -0.000138  
      4.576369  2.745821  0.897500    -0.111550   -0.056406   -0.000138  
      0.915274  6.406916  0.897500    -0.111550   -0.056406   -0.000138  
      4.576369  6.406916  0.897500    -0.111550   -0.056406   -0.000138  
      0.915274  2.745821  4.487499    -0.111550   -0.056406   -0.000138  
      4.576369  2.745821  4.487499    -0.111550   -0.056406   -0.000138  
      0.915274  6.406916  4.487499    -0.111550   -0.056406   -0.000138  
      4.576369  6.406916  4.487499    -0.111550   -0.056406   -0.000138  
      0.000000  0.000000  1.795000    -0.111550   -0.056406   -0.000138  
      3.661095  0.000000  1.795000    -0.111550   -0.056406   -0.000138  
      0.000000  3.661095  1.795000    -0.111550   -0.056406   -0.000138  
      3.661095  3.661095  1.795000    -0.111550   -0.056406   -0.000138  
      0.000000  0.000000  5.384999    -0.111550   -0.056406   -0.000138  
      3.661095  0.000000  5.384999    -0.111550   -0.056406   -0.000138  
      0.000000  3.661095  5.384999    -0.111550   -0.056406   -0.000138  
      3.661095  3.661095  5.384999    -0.111550   -0.056406   -0.000138  
      0.915274  0.915274  2.692500    -0.111550   -0.056406   -0.000138  
      4.576369  0.915274  2.692500    -0.111550   -0.056406   -0.000138  
      0.915274  4.576369  2.692500    -0.111550   -0.056406   -0.000138  
      4.576369  4.576369  2.692500    -0.111550   -0.056406   -0.000138  
      0.915274  0.915274  6.282499    -0.111550   -0.056406   -0.000138  
      4.576369  0.915274  6.282499    -0.111550   -0.056406   -0.000138  
      0.915274  4.576369  6.282499    -0.111550   -0.056406   -0.000138  
      4.576369  4.576369  6.282499    -0.111550   -0.056406   -0.000138  
      0.000000  1.830547  0.000000    -0.111550   -0.056406   -0.000138  
      3.661095  1.830547  0.000000    -0.111550   -0.056406   -0.000138  
      0.000000  5.491642  0.000000    -0.111550   -0.056406   -0.000138  
      3.661095  5.491642  0.000000    -0.111550   -0.056406   -0.000138  
      0.000000  1.830547  3.589999    -0.111550   -0.056406   -0.000138  
      3.661095  1.830547  3.589999    -0.111550   -0.056406   -0.000138  
      0.000000  5.491642  3.589999    -0.111550   -0.056406   -0.000138  
      3.661095  5.491642  3.589999    -0.111550   -0.056406   -0.000138  
      2.745821  2.745821  2.692500    -0.111550   -0.056406   -0.000138  
      6.406916  2.745821  2.692500    -0.111550   -0.056406   -0.000138  
      2.745821  6.406916  2.692500    -0.111550   -0.056406   -0.000138  
      6.406916  6.406916  2.692500    -0.111550   -0.056406   -0.000138  
      2.745821  2.745821  6.282499    -0.111550   -0.056406   -0.000138  
      6.406916  2.745821  6.282499    -0.111550   -0.056406   -0.000138  
      2.745821  6.406916  6.282499    -0.111550   -0.056406   -0.000138  
      6.406916  6.406916  6.282499    -0.111550   -0.056406   -0.000138  
      1.830547  0.000000  0.000000    -0.111550   -0.056406   -0.000138  
      5.491642  0.000000  0.000000    -0.111550   -0.056406   -0.000138  
      1.830547  3.661095  0.000000    -0.111550   -0.056406   -0.000138  
      5.491642  3.661095  0.000000    -0.111550   -0.056406   -0.000138  
      1.830547  0.000000  3.589999    -0.111550   -0.056406   -0.000138  
      5.491642  0.000000  3.589999    -0.111550   -0.056406   -0.000138  
      1.830547  3.661095  3.589999    -0.111550   -0.056406   -0.000138  
      5.491642  3.661095  3.589999    -0.111550   -0.056406   -0.000138  
      2.745821  0.915274  0.897500    -0.111550   -0.056406   -0.000138  
      6.406916  0.915274  0.897500    -0.111550   -0.056406   -0.000138  
      2.745821  4.576369  0.897500    -0.111550   -0.056406   -0.000138  
      6.406916  4.576369  0.897500    -0.111550   -0.056406   -0.000138  
      2.745821  0.915274  4.487499    -0.111550   -0.056406   -0.000138  
      6.406916  0.915274  4.487499    -0.111550   -0.056406   -0.000138  
      2.745821  4.576369  4.487499    -0.111550   -0.056406   -0.000138  
      6.406916  4.576369  4.487499    -0.111550   -0.056406   -0.000138  
      1.830547  1.830547  1.795000    -0.111550   -0.056406   -0.000138  
      5.491642  1.830547  1.795000    -0.111550   -0.056406   -0.000138  
      1.830547  5.491642  1.795000    -0.111550   -0.056406   -0.000138  
      5.491642  5.491642  1.795000    -0.111550   -0.056406   -0.000138  
      1.830547  1.830547  5.384999    -0.111550   -0.056406   -0.000138  
      5.491642  1.830547  5.384999    -0.111550   -0.056406   -0.000138  
      1.830547  5.491642  5.384999    -0.111550   -0.056406   -0.000138  
      5.491642  5.491642  5.384999    -0.111550   -0.056406   -0.000138  
 
 192 f/i=    0.000003 THz     0.000017 2PiTHz    0.000091 cm-1     0.000011 meV
             X         Y         Z           dx          dy          dz
      0.915274  2.745821  0.897500     0.000123    0.000062   -0.125000  
      4.576369  2.745821  0.897500     0.000123    0.000062   -0.125000  
      0.915274  6.406916  0.897500     0.000123    0.000062   -0.125000  
      4.576369  6.406916  0.897500     0.000123    0.000062   -0.125000  
      0.915274  2.745821  4.487499     0.000123    0.000062   -0.125000  
      4.576369  2.745821  4.487499     0.000123    0.000062   -0.125000  
      0.915274  6.406916  4.487499     0.000123    0.000062   -0.125000  
      4.576369  6.406916  4.487499     0.000123    0.000062   -0.125000  
      0.000000  0.000000  1.795000     0.000123    0.000062   -0.125000  
      3.661095  0.000000  1.795000     0.000123    0.000062   -0.125000  
      0.000000  3.661095  1.795000     0.000123    0.000062   -0.125000  
      3.661095  3.661095  1.795000     0.000123    0.000062   -0.125000  
      0.000000  0.000000  5.384999     0.000123    0.000062   -0.125000  
      3.661095  0.000000  5.384999     0.000123    0.000062   -0.125000  
      0.000000  3.661095  5.384999     0.000123    0.000062   -0.125000  
      3.661095  3.661095  5.384999     0.000123    0.000062   -0.125000  
      0.915274  0.915274  2.692500     0.000123    0.000062   -0.125000  
      4.576369  0.915274  2.692500     0.000123    0.000062   -0.125000  
      0.915274  4.576369  2.692500     0.000123    0.000062   -0.125000  
      4.576369  4.576369  2.692500     0.000123    0.000062   -0.125000  
      0.915274  0.915274  6.282499     0.000123    0.000062   -0.125000  
      4.576369  0.915274  6.282499     0.000123    0.000062   -0.125000  
      0.915274  4.576369  6.282499     0.000123    0.000062   -0.125000  
      4.576369  4.576369  6.282499     0.000123    0.000062   -0.125000  
      0.000000  1.830547  0.000000     0.000123    0.000062   -0.125000  
      3.661095  1.830547  0.000000     0.000123    0.000062   -0.125000  
      0.000000  5.491642  0.000000     0.000123    0.000062   -0.125000  
      3.661095  5.491642  0.000000     0.000123    0.000062   -0.125000  
      0.000000  1.830547  3.589999     0.000123    0.000062   -0.125000  
      3.661095  1.830547  3.589999     0.000123    0.000062   -0.125000  
      0.000000  5.491642  3.589999     0.000123    0.000062   -0.125000  
      3.661095  5.491642  3.589999     0.000123    0.000062   -0.125000  
      2.745821  2.745821  2.692500     0.000123    0.000062   -0.125000  
      6.406916  2.745821  2.692500     0.000123    0.000062   -0.125000  
      2.745821  6.406916  2.692500     0.000123    0.000062   -0.125000  
      6.406916  6.406916  2.692500     0.000123    0.000062   -0.125000  
      2.745821  2.745821  6.282499     0.000123    0.000062   -0.125000  
      6.406916  2.745821  6.282499     0.000123    0.000062   -0.125000  
      2.745821  6.406916  6.282499     0.000123    0.000062   -0.125000  
      6.406916  6.406916  6.282499     0.000123    0.000062   -0.125000  
      1.830547  0.000000  0.000000     0.000123    0.000062   -0.125000  
      5.491642  0.000000  0.000000     0.000123    0.000062   -0.125000  
      1.830547  3.661095  0.000000     0.000123    0.000062   -0.125000  
      5.491642  3.661095  0.000000     0.000123    0.000062   -0.125000  
      1.830547  0.000000  3.589999     0.000123    0.000062   -0.125000  
      5.491642  0.000000  3.589999     0.000123    0.000062   -0.125000  
      1.830547  3.661095  3.589999     0.000123    0.000062   -0.125000  
      5.491642  3.661095  3.589999     0.000123    0.000062   -0.125000  
      2.745821  0.915274  0.897500     0.000123    0.000062   -0.125000  
      6.406916  0.915274  0.897500     0.000123    0.000062   -0.125000  
      2.745821  4.576369  0.897500     0.000123    0.000062   -0.125000  
      6.406916  4.576369  0.897500     0.000123    0.000062   -0.125000  
      2.745821  0.915274  4.487499     0.000123    0.000062   -0.125000  
      6.406916  0.915274  4.487499     0.000123    0.000062   -0.125000  
      2.745821  4.576369  4.487499     0.000123    0.000062   -0.125000  
      6.406916  4.576369  4.487499     0.000123    0.000062   -0.125000  
      1.830547  1.830547  1.795000     0.000123    0.000062   -0.125000  
      5.491642  1.830547  1.795000     0.000123    0.000062   -0.125000  
      1.830547  5.491642  1.795000     0.000123    0.000062   -0.125000  
      5.491642  5.491642  1.795000     0.000123    0.000062   -0.125000  
      1.830547  1.830547  5.384999     0.000123    0.000062   -0.125000  
      5.491642  1.830547  5.384999     0.000123    0.000062   -0.125000  
      1.830547  5.491642  5.384999     0.000123    0.000062   -0.125000  
      5.491642  5.491642  5.384999     0.000123    0.000062   -0.125000  
 


--------------------------------------------------------------------------------------------------------



 ELASTIC MODULI CONTR FROM IONIC RELAXATION (kBar)
 Direction    XX          YY          ZZ          XY          YZ          ZX
 --------------------------------------------------------------------------------
 XX          -0.0000     -0.0000      0.0000      0.0000      0.0000      0.0000
 YY          -0.0000     -0.0000      0.0000      0.0000     -0.0000     -0.0000
 ZZ           0.0000      0.0000     -0.0000     -0.0000     -0.0000      0.0000
 XY           0.0000      0.0000     -0.0000     -1.5297      0.0000     -0.0000
 YZ           0.0000     -0.0000     -0.0000      0.0000     -0.3019     -0.0000
 ZX           0.0000     -0.0000      0.0000     -0.0000     -0.0000     -0.3019
 --------------------------------------------------------------------------------



--------------------------------------------------------------------------------------------------------


     LOOP+:  cpu time  825.6666: real time  826.1584
    4ORBIT:  cpu time    0.0000: real time    0.0000

 total amount of memory used by VASP MPI-rank0    68907. kBytes
=======================================================================

   base      :      30000. kBytes
   nonl-proj :      15319. kBytes
   fftplans  :       4537. kBytes
   grid      :       5806. kBytes
   one-center:        196. kBytes
   wavefun   :      13049. kBytes
 
  
  
 General timing and accounting informations for this job:
 ========================================================
  
                  Total CPU time used (sec):      833.556
                            User time (sec):      829.064
                          System time (sec):        4.492
                         Elapsed time (sec):      834.782
  
                   Maximum memory used (kb):      323648.
                   Average memory used (kb):           0.
  
                          Minor page faults:        39258
                          Major page faults:           35
                 Voluntary context switches:          881
