# Thermal properties / unit cell (natom)

unit:
  temperature:   K
  free_energy:   kJ/mol
  entropy:       J/K/mol
  heat_capacity: J/K/mol

natom: 8    
cutoff_frequency:    0.000
num_modes: 2654208
num_integrated_modes: 2654208

zero_point_energy:     130.9346432
high_T_entropy:        444.0022273

thermal_properties:
- temperature:         0.0000000
  free_energy:       130.9346432
  entropy:             0.0000000
  heat_capacity:       0.0000000
  energy:            130.9346432

- temperature:         2.0000000
  free_energy:       130.9346432
  entropy:             0.0000000
  heat_capacity:       0.0000000
  energy:            130.9346432

- temperature:         4.0000000
  free_energy:       130.9346432
  entropy:             0.0000103
  heat_capacity:       0.0000629
  energy:            130.9346432

- temperature:         6.0000000
  free_energy:       130.9346431
  entropy:             0.0000807
  heat_capacity:       0.0003427
  energy:            130.9346436

- temperature:         8.0000000
  free_energy:       130.9346428
  entropy:             0.0002458
  heat_capacity:       0.0008779
  energy:            130.9346448

- temperature:        10.0000000
  free_energy:       130.9346420
  entropy:             0.0005273
  heat_capacity:       0.0017389
  energy:            130.9346473

- temperature:        12.0000000
  free_energy:       130.9346406
  entropy:             0.0009502
  heat_capacity:       0.0030148
  energy:            130.9346520

- temperature:        14.0000000
  free_energy:       130.9346381
  entropy:             0.0015415
  heat_capacity:       0.0047948
  energy:            130.9346597

- temperature:        16.0000000
  free_energy:       130.9346343
  entropy:             0.0023296
  heat_capacity:       0.0071670
  energy:            130.9346716

- temperature:        18.0000000
  free_energy:       130.9346287
  entropy:             0.0033429
  heat_capacity:       0.0102197
  energy:            130.9346888

- temperature:        20.0000000
  free_energy:       130.9346208
  entropy:             0.0046103
  heat_capacity:       0.0140421
  energy:            130.9347130

- temperature:        22.0000000
  free_energy:       130.9346100
  entropy:             0.0061610
  heat_capacity:       0.0187244
  energy:            130.9347456

- temperature:        24.0000000
  free_energy:       130.9345959
  entropy:             0.0080246
  heat_capacity:       0.0243590
  energy:            130.9347885

- temperature:        26.0000000
  free_energy:       130.9345777
  entropy:             0.0102309
  heat_capacity:       0.0310396
  energy:            130.9348437

- temperature:        28.0000000
  free_energy:       130.9345547
  entropy:             0.0128101
  heat_capacity:       0.0388626
  energy:            130.9349134

- temperature:        30.0000000
  free_energy:       130.9345262
  entropy:             0.0157930
  heat_capacity:       0.0479266
  energy:            130.9350000

- temperature:        32.0000000
  free_energy:       130.9344913
  entropy:             0.0192108
  heat_capacity:       0.0583330
  energy:            130.9351060

- temperature:        34.0000000
  free_energy:       130.9344490
  entropy:             0.0230953
  heat_capacity:       0.0701867
  energy:            130.9352343

- temperature:        36.0000000
  free_energy:       130.9343986
  entropy:             0.0274790
  heat_capacity:       0.0835962
  energy:            130.9353878

- temperature:        38.0000000
  free_energy:       130.9343388
  entropy:             0.0323950
  heat_capacity:       0.0986743
  energy:            130.9355698

- temperature:        40.0000000
  free_energy:       130.9342686
  entropy:             0.0378772
  heat_capacity:       0.1155390
  energy:            130.9357837

- temperature:        42.0000000
  free_energy:       130.9341869
  entropy:             0.0439607
  heat_capacity:       0.1343141
  energy:            130.9360332

- temperature:        44.0000000
  free_energy:       130.9340923
  entropy:             0.0506812
  heat_capacity:       0.1551298
  energy:            130.9363223

- temperature:        46.0000000
  free_energy:       130.9339837
  entropy:             0.0580760
  heat_capacity:       0.1781242
  energy:            130.9366552

- temperature:        48.0000000
  free_energy:       130.9338595
  entropy:             0.0661833
  heat_capacity:       0.2034440
  energy:            130.9370363

- temperature:        50.0000000
  free_energy:       130.9337184
  entropy:             0.0750432
  heat_capacity:       0.2312451
  energy:            130.9374706

- temperature:        52.0000000
  free_energy:       130.9335588
  entropy:             0.0846971
  heat_capacity:       0.2616937
  energy:            130.9379631

- temperature:        54.0000000
  free_energy:       130.9333791
  entropy:             0.0951882
  heat_capacity:       0.2949667
  energy:            130.9385193

- temperature:        56.0000000
  free_energy:       130.9331775
  entropy:             0.1065618
  heat_capacity:       0.3312524
  energy:            130.9391450

- temperature:        58.0000000
  free_energy:       130.9329522
  entropy:             0.1188652
  heat_capacity:       0.3707502
  energy:            130.9398464

- temperature:        60.0000000
  free_energy:       130.9327014
  entropy:             0.1321476
  heat_capacity:       0.4136707
  energy:            130.9406302

- temperature:        62.0000000
  free_energy:       130.9324230
  entropy:             0.1464608
  heat_capacity:       0.4602354
  energy:            130.9415035

- temperature:        64.0000000
  free_energy:       130.9321148
  entropy:             0.1618586
  heat_capacity:       0.5106760
  energy:            130.9424738

- temperature:        66.0000000
  free_energy:       130.9317748
  entropy:             0.1783972
  heat_capacity:       0.5652330
  energy:            130.9435490

- temperature:        68.0000000
  free_energy:       130.9314004
  entropy:             0.1961350
  heat_capacity:       0.6241554
  energy:            130.9447376

- temperature:        70.0000000
  free_energy:       130.9309894
  entropy:             0.2151328
  heat_capacity:       0.6876987
  energy:            130.9460487

- temperature:        72.0000000
  free_energy:       130.9305390
  entropy:             0.2354534
  heat_capacity:       0.7561236
  energy:            130.9474917

- temperature:        74.0000000
  free_energy:       130.9300466
  entropy:             0.2571616
  heat_capacity:       0.8296946
  energy:            130.9490766

- temperature:        76.0000000
  free_energy:       130.9295094
  entropy:             0.2803243
  heat_capacity:       0.9086782
  energy:            130.9508141

- temperature:        78.0000000
  free_energy:       130.9289243
  entropy:             0.3050099
  heat_capacity:       0.9933415
  energy:            130.9527151

- temperature:        80.0000000
  free_energy:       130.9282883
  entropy:             0.3312885
  heat_capacity:       1.0839501
  energy:            130.9547914

- temperature:        82.0000000
  free_energy:       130.9275981
  entropy:             0.3592314
  heat_capacity:       1.1807672
  energy:            130.9570550

- temperature:        84.0000000
  free_energy:       130.9268502
  entropy:             0.3889112
  heat_capacity:       1.2840517
  energy:            130.9595188

- temperature:        86.0000000
  free_energy:       130.9260412
  entropy:             0.4204013
  heat_capacity:       1.3940568
  energy:            130.9621957

- temperature:        88.0000000
  free_energy:       130.9251674
  entropy:             0.4537758
  heat_capacity:       1.5110291
  energy:            130.9650996

- temperature:        90.0000000
  free_energy:       130.9242248
  entropy:             0.4891094
  heat_capacity:       1.6352073
  energy:            130.9682447

- temperature:        92.0000000
  free_energy:       130.9232096
  entropy:             0.5264767
  heat_capacity:       1.7668210
  energy:            130.9716454

- temperature:        94.0000000
  free_energy:       130.9221175
  entropy:             0.5659526
  heat_capacity:       1.9060904
  energy:            130.9753170

- temperature:        96.0000000
  free_energy:       130.9209443
  entropy:             0.6076117
  heat_capacity:       2.0532251
  energy:            130.9792750

- temperature:        98.0000000
  free_energy:       130.9196855
  entropy:             0.6515283
  heat_capacity:       2.2084238
  energy:            130.9835353

- temperature:       100.0000000
  free_energy:       130.9183366
  entropy:             0.6977759
  heat_capacity:       2.3718738
  energy:            130.9881142

- temperature:       102.0000000
  free_energy:       130.9168928
  entropy:             0.7464274
  heat_capacity:       2.5437508
  energy:            130.9930284

- temperature:       104.0000000
  free_energy:       130.9153493
  entropy:             0.7975546
  heat_capacity:       2.7242185
  energy:            130.9982950

- temperature:       106.0000000
  free_energy:       130.9137009
  entropy:             0.8512284
  heat_capacity:       2.9134286
  energy:            131.0039311

- temperature:       108.0000000
  free_energy:       130.9119426
  entropy:             0.9075183
  heat_capacity:       3.1115209
  energy:            131.0099546

- temperature:       110.0000000
  free_energy:       130.9100691
  entropy:             0.9664924
  heat_capacity:       3.3186229
  energy:            131.0163832

- temperature:       112.0000000
  free_energy:       130.9080748
  entropy:             1.0282174
  heat_capacity:       3.5348506
  energy:            131.0232352

- temperature:       114.0000000
  free_energy:       130.9059543
  entropy:             1.0927585
  heat_capacity:       3.7603080
  energy:            131.0305288

- temperature:       116.0000000
  free_energy:       130.9037019
  entropy:             1.1601789
  heat_capacity:       3.9950878
  energy:            131.0382826

- temperature:       118.0000000
  free_energy:       130.9013116
  entropy:             1.2305404
  heat_capacity:       4.2392713
  energy:            131.0465154

- temperature:       120.0000000
  free_energy:       130.8987777
  entropy:             1.3039026
  heat_capacity:       4.4929288
  energy:            131.0552460

- temperature:       122.0000000
  free_energy:       130.8960940
  entropy:             1.3803236
  heat_capacity:       4.7561201
  energy:            131.0644935

- temperature:       124.0000000
  free_energy:       130.8932543
  entropy:             1.4598593
  heat_capacity:       5.0288943
  energy:            131.0742769

- temperature:       126.0000000
  free_energy:       130.8902524
  entropy:             1.5425637
  heat_capacity:       5.3112906
  energy:            131.0846155

- temperature:       128.0000000
  free_energy:       130.8870819
  entropy:             1.6284887
  heat_capacity:       5.6033385
  energy:            131.0955285

- temperature:       130.0000000
  free_energy:       130.8837363
  entropy:             1.7176843
  heat_capacity:       5.9050577
  energy:            131.1070353

- temperature:       132.0000000
  free_energy:       130.8802090
  entropy:             1.8101984
  heat_capacity:       6.2164589
  energy:            131.1191552

- temperature:       134.0000000
  free_energy:       130.8764933
  entropy:             1.9060768
  heat_capacity:       6.5375441
  energy:            131.1319076

- temperature:       136.0000000
  free_energy:       130.8725824
  entropy:             2.0053632
  heat_capacity:       6.8683066
  energy:            131.1453118

- temperature:       138.0000000
  free_energy:       130.8684695
  entropy:             2.1080994
  heat_capacity:       7.2087312
  energy:            131.1593872

- temperature:       140.0000000
  free_energy:       130.8641477
  entropy:             2.2143248
  heat_capacity:       7.5587951
  energy:            131.1741531

- temperature:       142.0000000
  free_energy:       130.8596099
  entropy:             2.3240771
  heat_capacity:       7.9184675
  energy:            131.1896288

- temperature:       144.0000000
  free_energy:       130.8548490
  entropy:             2.4373917
  heat_capacity:       8.2877101
  energy:            131.2058334

- temperature:       146.0000000
  free_energy:       130.8498579
  entropy:             2.5543021
  heat_capacity:       8.6664777
  energy:            131.2227860

- temperature:       148.0000000
  free_energy:       130.8446294
  entropy:             2.6748396
  heat_capacity:       9.0547178
  energy:            131.2405056

- temperature:       150.0000000
  free_energy:       130.8391561
  entropy:             2.7990336
  heat_capacity:       9.4523713
  energy:            131.2590111

- temperature:       152.0000000
  free_energy:       130.8334308
  entropy:             2.9269116
  heat_capacity:       9.8593726
  energy:            131.2783213

- temperature:       154.0000000
  free_energy:       130.8274460
  entropy:             3.0584990
  heat_capacity:      10.2756499
  energy:            131.2984548

- temperature:       156.0000000
  free_energy:       130.8211943
  entropy:             3.1938191
  heat_capacity:      10.7011253
  energy:            131.3194301

- temperature:       158.0000000
  free_energy:       130.8146682
  entropy:             3.3328937
  heat_capacity:      11.1357149
  energy:            131.3412654

- temperature:       160.0000000
  free_energy:       130.8078602
  entropy:             3.4757422
  heat_capacity:      11.5793294
  energy:            131.3639789

- temperature:       162.0000000
  free_energy:       130.8007627
  entropy:             3.6223825
  heat_capacity:      12.0318741
  energy:            131.3875887

- temperature:       164.0000000
  free_energy:       130.7933681
  entropy:             3.7728305
  heat_capacity:      12.4932488
  energy:            131.4121123

- temperature:       166.0000000
  free_energy:       130.7856688
  entropy:             3.9271003
  heat_capacity:      12.9633487
  energy:            131.4375675

- temperature:       168.0000000
  free_energy:       130.7776572
  entropy:             4.0852042
  heat_capacity:      13.4420639
  energy:            131.4639715

- temperature:       170.0000000
  free_energy:       130.7693255
  entropy:             4.2471526
  heat_capacity:      13.9292800
  energy:            131.4913414

- temperature:       172.0000000
  free_energy:       130.7606660
  entropy:             4.4129546
  heat_capacity:      14.4248781
  energy:            131.5196942

- temperature:       174.0000000
  free_energy:       130.7516711
  entropy:             4.5826170
  heat_capacity:      14.9287352
  energy:            131.5490464

- temperature:       176.0000000
  free_energy:       130.7423329
  entropy:             4.7561454
  heat_capacity:      15.4407243
  energy:            131.5794145

- temperature:       178.0000000
  free_energy:       130.7326439
  entropy:             4.9335436
  heat_capacity:      15.9607145
  energy:            131.6108147

- temperature:       180.0000000
  free_energy:       130.7225962
  entropy:             5.1148136
  heat_capacity:      16.4885713
  energy:            131.6432626

- temperature:       182.0000000
  free_energy:       130.7121821
  entropy:             5.2999562
  heat_capacity:      17.0241569
  energy:            131.6767741

- temperature:       184.0000000
  free_energy:       130.7013938
  entropy:             5.4889703
  heat_capacity:      17.5673300
  energy:            131.7113643

- temperature:       186.0000000
  free_energy:       130.6902236
  entropy:             5.6818536
  heat_capacity:      18.1179466
  energy:            131.7470484

- temperature:       188.0000000
  free_energy:       130.6786638
  entropy:             5.8786020
  heat_capacity:      18.6758597
  energy:            131.7838410

- temperature:       190.0000000
  free_energy:       130.6667066
  entropy:             6.0792103
  heat_capacity:      19.2409195
  energy:            131.8217566

- temperature:       192.0000000
  free_energy:       130.6543444
  entropy:             6.2836715
  heat_capacity:      19.8129740
  energy:            131.8608093

- temperature:       194.0000000
  free_energy:       130.6415694
  entropy:             6.4919776
  heat_capacity:      20.3918689
  energy:            131.9010130

- temperature:       196.0000000
  free_energy:       130.6283739
  entropy:             6.7041191
  heat_capacity:      20.9774477
  energy:            131.9423813

- temperature:       198.0000000
  free_energy:       130.6147503
  entropy:             6.9200850
  heat_capacity:      21.5695521
  energy:            131.9849272

- temperature:       200.0000000
  free_energy:       130.6006910
  entropy:             7.1398633
  heat_capacity:      22.1680221
  energy:            132.0286637

- temperature:       202.0000000
  free_energy:       130.5861884
  entropy:             7.3634408
  heat_capacity:      22.7726962
  energy:            132.0736034

- temperature:       204.0000000
  free_energy:       130.5712347
  entropy:             7.5908028
  heat_capacity:      23.3834116
  energy:            132.1197585

- temperature:       206.0000000
  free_energy:       130.5558226
  entropy:             7.8219336
  heat_capacity:      24.0000041
  energy:            132.1671410

- temperature:       208.0000000
  free_energy:       130.5399445
  entropy:             8.0568165
  heat_capacity:      24.6223089
  energy:            132.2157623

- temperature:       210.0000000
  free_energy:       130.5235929
  entropy:             8.2954334
  heat_capacity:      25.2501602
  energy:            132.2656339

- temperature:       212.0000000
  free_energy:       130.5067603
  entropy:             8.5377654
  heat_capacity:      25.8833915
  energy:            132.3167666

- temperature:       214.0000000
  free_energy:       130.4894394
  entropy:             8.7837924
  heat_capacity:      26.5218359
  energy:            132.3691709

- temperature:       216.0000000
  free_energy:       130.4716227
  entropy:             9.0334935
  heat_capacity:      27.1653263
  energy:            132.4228573

- temperature:       218.0000000
  free_energy:       130.4533029
  entropy:             9.2868466
  heat_capacity:      27.8136952
  energy:            132.4778355

- temperature:       220.0000000
  free_energy:       130.4344729
  entropy:             9.5438287
  heat_capacity:      28.4667753
  energy:            132.5341152

- temperature:       222.0000000
  free_energy:       130.4151252
  entropy:             9.8044162
  heat_capacity:      29.1243993
  energy:            132.5917056

- temperature:       224.0000000
  free_energy:       130.3952528
  entropy:            10.0685843
  heat_capacity:      29.7864004
  energy:            132.6506157

- temperature:       226.0000000
  free_energy:       130.3748485
  entropy:            10.3363076
  heat_capacity:      30.4526121
  energy:            132.7108540

- temperature:       228.0000000
  free_energy:       130.3539052
  entropy:            10.6075597
  heat_capacity:      31.1228684
  energy:            132.7724289

- temperature:       230.0000000
  free_energy:       130.3324160
  entropy:            10.8823137
  heat_capacity:      31.7970041
  energy:            132.8353481

- temperature:       232.0000000
  free_energy:       130.3103737
  entropy:            11.1605417
  heat_capacity:      32.4748548
  energy:            132.8996194

- temperature:       234.0000000
  free_energy:       130.2877715
  entropy:            11.4422154
  heat_capacity:      33.1562570
  energy:            132.9652499

- temperature:       236.0000000
  free_energy:       130.2646025
  entropy:            11.7273055
  heat_capacity:      33.8410482
  energy:            133.0322466

- temperature:       238.0000000
  free_energy:       130.2408600
  entropy:            12.0157824
  heat_capacity:      34.5290674
  energy:            133.1006162

- temperature:       240.0000000
  free_energy:       130.2165372
  entropy:            12.3076158
  heat_capacity:      35.2201544
  energy:            133.1703650

- temperature:       242.0000000
  free_energy:       130.1916273
  entropy:            12.6027746
  heat_capacity:      35.9141506
  energy:            133.2414988

- temperature:       244.0000000
  free_energy:       130.1661239
  entropy:            12.9012275
  heat_capacity:      36.6108989
  energy:            133.3140234

- temperature:       246.0000000
  free_energy:       130.1400202
  entropy:            13.2029426
  heat_capacity:      37.3102437
  energy:            133.3879441

- temperature:       248.0000000
  free_energy:       130.1133099
  entropy:            13.5078873
  heat_capacity:      38.0120310
  energy:            133.4632660

- temperature:       250.0000000
  free_energy:       130.0859866
  entropy:            13.8160288
  heat_capacity:      38.7161086
  energy:            133.5399938

- temperature:       252.0000000
  free_energy:       130.0580437
  entropy:            14.1273338
  heat_capacity:      39.4223260
  energy:            133.6181319

- temperature:       254.0000000
  free_energy:       130.0294751
  entropy:            14.4417687
  heat_capacity:      40.1305347
  energy:            133.6976844

- temperature:       256.0000000
  free_energy:       130.0002746
  entropy:            14.7592994
  heat_capacity:      40.8405878
  energy:            133.7786552

- temperature:       258.0000000
  free_energy:       129.9704359
  entropy:            15.0798914
  heat_capacity:      41.5523409
  energy:            133.8610479

- temperature:       260.0000000
  free_energy:       129.9399530
  entropy:            15.4035101
  heat_capacity:      42.2656512
  energy:            133.9448656

- temperature:       262.0000000
  free_energy:       129.9088199
  entropy:            15.7301205
  heat_capacity:      42.9803782
  energy:            134.0301114

- temperature:       264.0000000
  free_energy:       129.8770305
  entropy:            16.0596873
  heat_capacity:      43.6963834
  energy:            134.1167880

- temperature:       266.0000000
  free_energy:       129.8445792
  entropy:            16.3921750
  heat_capacity:      44.4135307
  energy:            134.2048977

- temperature:       268.0000000
  free_energy:       129.8114599
  entropy:            16.7275480
  heat_capacity:      45.1316861
  energy:            134.2944428

- temperature:       270.0000000
  free_energy:       129.7776671
  entropy:            17.0657703
  heat_capacity:      45.8507177
  energy:            134.3854251

- temperature:       272.0000000
  free_energy:       129.7431950
  entropy:            17.4068058
  heat_capacity:      46.5704962
  energy:            134.4778462

- temperature:       274.0000000
  free_energy:       129.7080380
  entropy:            17.7506184
  heat_capacity:      47.2908945
  energy:            134.5717074

- temperature:       276.0000000
  free_energy:       129.6721907
  entropy:            18.0971717
  heat_capacity:      48.0117876
  energy:            134.6670101

- temperature:       278.0000000
  free_energy:       129.6356475
  entropy:            18.4464293
  heat_capacity:      48.7330532
  energy:            134.7637548

- temperature:       280.0000000
  free_energy:       129.5984032
  entropy:            18.7983545
  heat_capacity:      49.4545713
  energy:            134.8619424

- temperature:       282.0000000
  free_energy:       129.5604523
  entropy:            19.1529109
  heat_capacity:      50.1762240
  energy:            134.9615732

- temperature:       284.0000000
  free_energy:       129.5217898
  entropy:            19.5100618
  heat_capacity:      50.8978963
  energy:            135.0626473

- temperature:       286.0000000
  free_energy:       129.4824104
  entropy:            19.8697705
  heat_capacity:      51.6194752
  energy:            135.1651647

- temperature:       288.0000000
  free_energy:       129.4423090
  entropy:            20.2320003
  heat_capacity:      52.3408502
  energy:            135.2691251

- temperature:       290.0000000
  free_energy:       129.4014807
  entropy:            20.5967145
  heat_capacity:      53.0619133
  energy:            135.3745279

- temperature:       292.0000000
  free_energy:       129.3599205
  entropy:            20.9638765
  heat_capacity:      53.7825589
  energy:            135.4813725

- temperature:       294.0000000
  free_energy:       129.3176236
  entropy:            21.3334497
  heat_capacity:      54.5026838
  energy:            135.5896578

- temperature:       296.0000000
  free_energy:       129.2745852
  entropy:            21.7053975
  heat_capacity:      55.2221872
  energy:            135.6993828

- temperature:       298.0000000
  free_energy:       129.2308005
  entropy:            22.0796833
  heat_capacity:      55.9409707
  energy:            135.8105461

- temperature:       300.0000000
  free_energy:       129.1862649
  entropy:            22.4562708
  heat_capacity:      56.6589382
  energy:            135.9231461

- temperature:       302.0000000
  free_energy:       129.1409739
  entropy:            22.8351237
  heat_capacity:      57.3759961
  energy:            136.0371812

- temperature:       304.0000000
  free_energy:       129.0949229
  entropy:            23.2162058
  heat_capacity:      58.0920531
  energy:            136.1526495

- temperature:       306.0000000
  free_energy:       129.0481076
  entropy:            23.5994808
  heat_capacity:      58.8070203
  energy:            136.2695487

- temperature:       308.0000000
  free_energy:       129.0005236
  entropy:            23.9849130
  heat_capacity:      59.5208111
  energy:            136.3878768

- temperature:       310.0000000
  free_energy:       128.9521665
  entropy:            24.3724665
  heat_capacity:      60.2333411
  energy:            136.5076311

- temperature:       312.0000000
  free_energy:       128.9030323
  entropy:            24.7621056
  heat_capacity:      60.9445285
  energy:            136.6288092

- temperature:       314.0000000
  free_energy:       128.8531167
  entropy:            25.1537948
  heat_capacity:      61.6542933
  energy:            136.7514083

- temperature:       316.0000000
  free_energy:       128.8024158
  entropy:            25.5474988
  heat_capacity:      62.3625582
  energy:            136.8754254

- temperature:       318.0000000
  free_energy:       128.7509254
  entropy:            25.9431826
  heat_capacity:      63.0692480
  energy:            137.0008575

- temperature:       320.0000000
  free_energy:       128.6986417
  entropy:            26.3408111
  heat_capacity:      63.7742894
  energy:            137.1277013

- temperature:       322.0000000
  free_energy:       128.6455609
  entropy:            26.7403497
  heat_capacity:      64.4776117
  energy:            137.2559535

- temperature:       324.0000000
  free_energy:       128.5916791
  entropy:            27.1417637
  heat_capacity:      65.1791460
  energy:            137.3856106

- temperature:       326.0000000
  free_energy:       128.5369926
  entropy:            27.5450191
  heat_capacity:      65.8788258
  energy:            137.5166688

- temperature:       328.0000000
  free_energy:       128.4814978
  entropy:            27.9500816
  heat_capacity:      66.5765864
  energy:            137.6491246

- temperature:       330.0000000
  free_energy:       128.4251911
  entropy:            28.3569174
  heat_capacity:      67.2723655
  energy:            137.7829739

- temperature:       332.0000000
  free_energy:       128.3680690
  entropy:            28.7654930
  heat_capacity:      67.9661026
  energy:            137.9182127

- temperature:       334.0000000
  free_energy:       128.3101280
  entropy:            29.1757751
  heat_capacity:      68.6577391
  energy:            138.0548369

- temperature:       336.0000000
  free_energy:       128.2513648
  entropy:            29.5877304
  heat_capacity:      69.3472186
  energy:            138.1928422

- temperature:       338.0000000
  free_energy:       128.1917760
  entropy:            30.0013263
  heat_capacity:      70.0344866
  energy:            138.3322243

- temperature:       340.0000000
  free_energy:       128.1313584
  entropy:            30.4165301
  heat_capacity:      70.7194904
  energy:            138.4729786

- temperature:       342.0000000
  free_energy:       128.0701088
  entropy:            30.8333096
  heat_capacity:      71.4021792
  energy:            138.6151007

- temperature:       344.0000000
  free_energy:       128.0080241
  entropy:            31.2516327
  heat_capacity:      72.0825042
  energy:            138.7585858

- temperature:       346.0000000
  free_energy:       127.9451013
  entropy:            31.6714677
  heat_capacity:      72.7604180
  energy:            138.9034291

- temperature:       348.0000000
  free_energy:       127.8813373
  entropy:            32.0927832
  heat_capacity:      73.4358755
  energy:            139.0496258

- temperature:       350.0000000
  free_energy:       127.8167292
  entropy:            32.5155479
  heat_capacity:      74.1088330
  energy:            139.1971709

- temperature:       352.0000000
  free_energy:       127.7512741
  entropy:            32.9397310
  heat_capacity:      74.7792486
  energy:            139.3460594

- temperature:       354.0000000
  free_energy:       127.6849693
  entropy:            33.3653019
  heat_capacity:      75.4470821
  energy:            139.4962862

- temperature:       356.0000000
  free_energy:       127.6178120
  entropy:            33.7922304