<?xml version="1.0" encoding="ISO-8859-1"?>
<modeling>
 <generator>
  <i name="program" type="string">vasp </i>
  <i name="version" type="string">5.4.4.18Apr17-6-g9f103f2a35  </i>
  <i name="subversion" type="string">(build Mar 12 2022 03:36:41) complex            parallel </i>
  <i name="platform" type="string">IFC19.0.3.199_CrayMPICH7.7.19 </i>
  <i name="date" type="string">2022 12 02 </i>
  <i name="time" type="string">11:18:15 </i>
 </generator>
 <incar>
  <i type="string" name="PREC">accurate</i>
  <i type="int" name="IALGO">    38</i>
  <i type="logical" name="ADDGRID"> T  </i>
  <i type="int" name="IBRION">     8</i>
  <i name="EDIFF">      0.00000001</i>
  <i type="logical" name="LREAL"> F  </i>
  <i type="int" name="ISMEAR">     0</i>
  <i name="SIGMA">      0.06000000</i>
  <i type="logical" name="LWAVE"> F  </i>
  <i type="logical" name="LCHARG"> F  </i>
  <v type="int" name="KPOINT_BSE">    -1     0     0     0</v>
 </incar>
 <structure name="primitive_cell" >
  <crystal>
   <varray name="basis" >
    <v>       1.83054747       0.00000000       1.79499968 </v>
    <v>      -1.83054747       0.00000000       1.79499968 </v>
    <v>       0.00000000      -1.83054747      -1.79499968 </v>
   </varray>
   <i name="volume">     12.02974342 </i>
   <varray name="rec_basis" >
    <v>       0.27314233      -0.27314233       0.27855158 </v>
    <v>      -0.27314233      -0.27314233       0.27855158 </v>
    <v>       0.00000000      -0.54628466       0.00000000 </v>
   </varray>
  </crystal>
  <varray name="positions" >
   <v>      -0.25000000       0.25000000      -0.50000000 </v>
   <v>      -0.50000000      -0.50000000       0.00000000 </v>
  </varray>
 </structure>
 <varray name="primitive_index" >
  <v type="int" >        1 </v>
  <v type="int" >       11 </v>
 </varray>
 <kpoints>
  <generation param="Gamma">
   <v type="int" name="divisions">       4        4        4 </v>
   <v name="usershift">      0.00000000       0.00000000       0.00000000 </v>
   <v name="genvec1">      0.25000000       0.00000000       0.00000000 </v>
   <v name="genvec2">      0.00000000       0.25000000       0.00000000 </v>
   <v name="genvec3">      0.00000000       0.00000000       0.25000000 </v>
   <v name="shift">      0.00000000       0.00000000       0.00000000 </v>
  </generation>
  <varray name="kpointlist" >
   <v>       0.00000000       0.00000000       0.00000000 </v>
   <v>       0.25000000       0.00000000       0.00000000 </v>
   <v>       0.50000000       0.00000000       0.00000000 </v>
   <v>       0.25000000       0.25000000       0.00000000 </v>
   <v>       0.50000000       0.25000000       0.00000000 </v>
   <v>       0.50000000       0.50000000       0.00000000 </v>
   <v>       0.00000000       0.00000000       0.25000000 </v>
   <v>       0.25000000       0.00000000       0.25000000 </v>
   <v>       0.50000000       0.00000000       0.25000000 </v>
   <v>       0.25000000       0.25000000       0.25000000 </v>
   <v>       0.50000000       0.25000000       0.25000000 </v>
   <v>       0.50000000       0.50000000       0.25000000 </v>
   <v>       0.00000000       0.00000000       0.50000000 </v>
   <v>       0.25000000       0.00000000       0.50000000 </v>
   <v>       0.50000000       0.00000000       0.50000000 </v>
   <v>       0.25000000       0.25000000       0.50000000 </v>
   <v>       0.50000000       0.25000000       0.50000000 </v>
   <v>       0.50000000       0.50000000       0.50000000 </v>
  </varray>
  <varray name="weights" >
   <v>       0.01562500 </v>
   <v>       0.06250000 </v>
   <v>       0.03125000 </v>
   <v>       0.06250000 </v>
   <v>       0.06250000 </v>
   <v>       0.01562500 </v>
   <v>       0.03125000 </v>
   <v>       0.12500000 </v>
   <v>       0.06250000 </v>
   <v>       0.12500000 </v>
   <v>       0.12500000 </v>
   <v>       0.03125000 </v>
   <v>       0.01562500 </v>
   <v>       0.06250000 </v>
   <v>       0.03125000 </v>
   <v>       0.06250000 </v>
   <v>       0.06250000 </v>
   <v>       0.01562500 </v>
  </varray>
 </kpoints>
 <parameters>
  <separator name="general" >
   <i type="string" name="SYSTEM">unknown system</i>
   <i type="logical" name="LCOMPAT"> F  </i>
  </separator>
  <separator name="electronic" >
   <i type="string" name="PREC">accura</i>
   <i name="ENMAX">    400.00000000</i>
   <i name="ENAUG">    644.87300000</i>
   <i name="EDIFF">      0.00000001</i>
   <i type="int" name="IALGO">    38</i>
   <i type="int" name="IWAVPR">    11</i>
   <i type="int" name="NBANDS">   192</i>
   <i name="NELECT">    256.00000000</i>
   <i type="int" name="TURBO">     0</i>
   <i type="int" name="IRESTART">     0</i>
   <i type="int" name="NREBOOT">     0</i>
   <i type="int" name="NMIN">     0</i>
   <i name="EREF">      0.00000000</i>
   <separator name="electronic smearing" >
    <i type="int" name="ISMEAR">     0</i>
    <i name="SIGMA">      0.06000000</i>
    <i name="KSPACING">      0.50000000</i>
    <i type="logical" name="KGAMMA"> T  </i>
   </separator>
   <separator name="electronic projectors" >
    <i type="logical" name="LREAL"> F  </i>
    <v name="ROPT">      0.00000000</v>
    <i type="int" name="LMAXPAW">  -100</i>
    <i type="int" name="LMAXMIX">     2</i>
    <i type="logical" name="NLSPLINE"> F  </i>
   </separator>
   <separator name="electronic startup" >
    <i type="int" name="ISTART">     0</i>
    <i type="int" name="ICHARG">     2</i>
    <i type="int" name="INIWAV">     1</i>
   </separator>
   <separator name="electronic spin" >
    <i type="int" name="ISPIN">     1</i>
    <i type="logical" name="LNONCOLLINEAR"> F  </i>
    <v name="MAGMOM">      1.00000000      1.00000000      1.00000000      1.00000000      1.00000000      1.00000000      1.00000000      1.00000000      1.00000000      1.00000000      1.00000000      1.00000000      1.00000000      1.00000000      1.00000000      1.00000000      1.00000000      1.00000000      1.00000000      1.00000000
      1.00000000      1.00000000      1.00000000      1.00000000      1.00000000      1.00000000      1.00000000      1.00000000      1.00000000      1.00000000      1.00000000      1.00000000      1.00000000      1.00000000      1.00000000      1.00000000      1.00000000      1.00000000      1.00000000      1.00000000
      1.00000000      1.00000000      1.00000000      1.00000000      1.00000000      1.00000000      1.00000000      1.00000000      1.00000000      1.00000000      1.00000000      1.00000000      1.00000000      1.00000000      1.00000000      1.00000000      1.00000000      1.00000000      1.00000000      1.00000000
      1.00000000      1.00000000      1.00000000      1.00000000</v>
    <i name="NUPDOWN">     -1.00000000</i>
    <i type="logical" name="LSORBIT"> F  </i>
    <v name="SAXIS">      0.00000000      0.00000000      1.00000000</v>
    <i type="logical" name="LSPIRAL"> F  </i>
    <v name="QSPIRAL">      0.00000000      0.00000000      0.00000000</v>
    <i type="logical" name="LZEROZ"> F  </i>
   </separator>
   <separator name="electronic exchange-correlation" >
    <i type="logical" name="LASPH"> F  </i>
    <i type="logical" name="LMETAGGA"> F  </i>
   </separator>
   <separator name="electronic convergence" >
    <i type="int" name="NELM">    60</i>
    <i type="int" name="NELMDL">     0</i>
    <i type="int" name="NELMIN">     2</i>
    <i name="ENINI">    400.00000000</i>
    <separator name="electronic convergence detail" >
     <i type="logical" name="LDIAG"> T  </i>
     <i type="logical" name="LSUBROT"> F  </i>
     <i name="WEIMIN">      0.00100000</i>
     <i name="EBREAK">      0.00000000</i>
     <i name="DEPER">      0.30000000</i>
     <i type="int" name="NRMM">     4</i>
     <i name="TIME">      0.40000000</i>
    </separator>
   </separator>
   <separator name="electronic mixer" >
    <i name="AMIX">      0.40000000</i>
    <i name="BMIX">      1.00000000</i>
    <i name="AMIN">      0.10000000</i>
    <i name="AMIX_MAG">      1.60000000</i>
    <i name="BMIX_MAG">      1.00000000</i>
    <separator name="electronic mixer details" >
     <i type="int" name="IMIX">     4</i>
     <i type="logical" name="MIXFIRST"> F  </i>
     <i type="int" name="MAXMIX">   -45</i>
     <i name="WC">    100.00000000</i>
     <i type="int" name="INIMIX">     1</i>
     <i type="int" name="MIXPRE">     1</i>
     <i type="int" name="MREMOVE">     5</i>
    </separator>
   </separator>
   <separator name="electronic dipolcorrection" >
    <i type="logical" name="LDIPOL"> F  </i>
    <i type="logical" name="LMONO"> F  </i>
    <i type="int" name="IDIPOL">     0</i>
    <i name="EPSILON">      1.00000000</i>
    <v name="DIPOL">   -100.00000000   -100.00000000   -100.00000000</v>
    <i name="EFIELD">      0.00000000</i>
   </separator>
  </separator>
  <separator name="grids" >
   <i type="int" name="NGX">    48</i>
   <i type="int" name="NGY">    48</i>
   <i type="int" name="NGZ">    48</i>
   <i type="int" name="NGXF">    96</i>
   <i type="int" name="NGYF">    96</i>
   <i type="int" name="NGZF">    96</i>
   <i type="logical" name="ADDGRID"> T  </i>
  </separator>
  <separator name="ionic" >
   <i type="int" name="NSW">     1</i>
   <i type="int" name="IBRION">     8</i>
   <i type="int" name="MDALGO">     0</i>
   <i type="int" name="ISIF">     2</i>
   <i name="PSTRESS">      0.00000000</i>
   <i name="EDIFFG">      0.00000010</i>
   <i type="int" name="NFREE">     0</i>
   <i name="POTIM">      0.50000000</i>
   <i name="SMASS">     -3.00000000</i>
   <i name="SCALEE">      1.00000000</i>
  </separator>
  <separator name="ionic md" >
   <i name="TEBEG">      0.00010000</i>
   <i name="TEEND">      0.00010000</i>
   <i type="int" name="NBLOCK">     1</i>
   <i type="int" name="KBLOCK">     1</i>
   <i type="int" name="NPACO">   256</i>
   <i name="APACO">     16.00000000</i>
  </separator>
  <separator name="symmetry" >
   <i type="int" name="ISYM">     2</i>
   <i name="SYMPREC">      0.00001000</i>
  </separator>
  <separator name="dos" >
   <i type="int" name="LORBIT">     0</i>
   <v name="RWIGS">     -1.00000000</v>
   <i type="int" name="NEDOS">   301</i>
   <i name="EMIN">     10.00000000</i>
   <i name="EMAX">    -10.00000000</i>
   <i name="EFERMI">      0.00000000</i>
  </separator>
  <separator name="writing" >
   <i type="int" name="NWRITE">     2</i>
   <i type="logical" name="LWAVE"> F  </i>
   <i type="logical" name="LDOWNSAMPLE"> F  </i>
   <i type="logical" name="LCHARG"> F  </i>
   <i type="logical" name="LPARD"> F  </i>
   <i type="logical" name="LVTOT"> F  </i>
   <i type="logical" name="LVHAR"> F  </i>
   <i type="logical" name="LELF"> F  </i>
   <i type="logical" name="LOPTICS"> F  </i>
   <v name="STM">      0.00000000      0.00000000      0.00000000      0.00000000      0.00000000      0.00000000      0.00000000</v>
  </separator>
  <separator name="performance" >
   <i type="int" name="NPAR">    32</i>
   <i type="int" name="NSIM">     4</i>
   <i type="int" name="NBLK">    -1</i>
   <i type="logical" name="LPLANE"> T  </i>
   <i type="logical" name="LSCALAPACK"> T  </i>
   <i type="logical" name="LSCAAWARE"> F  </i>
   <i type="logical" name="LSCALU"> F  </i>
   <i type="logical" name="LASYNC"> F  </i>
   <i type="logical" name="LORBITALREAL"> F  </i>
  </separator>
  <separator name="miscellaneous" >
   <i type="int" name="IDIOT">     3</i>
   <i type="int" name="ISPECIAL">     0</i>
   <i type="logical" name="LMUSIC"> F  </i>
   <v name="POMASS">     12.01100000</v>
   <v name="DARWINR">      0.00000000</v>
   <v name="DARWINV">      1.00000000</v>
   <i type="logical" name="LCORR"> T  </i>
  </separator>
  <i type="logical" name="GGA_COMPAT"> T  </i>
  <i type="logical" name="LBERRY"> F  </i>
  <i type="int" name="ICORELEVEL">     0</i>
  <i type="logical" name="LDAU"> F  </i>
  <i type="int" name="I_CONSTRAINED_M">     0</i>
  <separator name="electronic exchange-correlation" >
   <i type="string" name="GGA">--</i>
   <i type="int" name="VOSKOWN">     0</i>
   <i type="logical" name="LHFCALC"> F  </i>
   <i type="string" name="PRECFOCK"></i>
   <i type="logical" name="LSYMGRAD"> F  </i>
   <i type="logical" name="LHFONE"> F  </i>
   <i type="logical" name="LRHFCALC"> F  </i>
   <i type="logical" name="LTHOMAS"> F  </i>
   <i type="logical" name="LMODELHF"> F  </i>
   <i name="ENCUT4O">     -1.00000000</i>
   <i type="int" name="EXXOEP">     0</i>
   <i type="int" name="FOURORBIT">     0</i>
   <i name="AEXX">      0.00000000</i>
   <i name="HFALPHA">      0.00000000</i>
   <i name="MCALPHA">      0.00000000</i>
   <i name="ALDAX">      1.00000000</i>
   <i name="AGGAX">      1.00000000</i>
   <i name="ALDAC">      1.00000000</i>
   <i name="AGGAC">      1.00000000</i>
   <i type="int" name="NKREDX">     1</i>
   <i type="int" name="NKREDY">     1</i>
   <i type="int" name="NKREDZ">     1</i>
   <i type="logical" name="SHIFTRED"> F  </i>
   <i type="logical" name="ODDONLY"> F  </i>
   <i type="logical" name="EVENONLY"> F  </i>
   <i type="int" name="LMAXFOCK">     0</i>
   <i type="int" name="NMAXFOCKAE">     0</i>
   <i type="logical" name="LFOCKAEDFT"> F  </i>
   <i name="HFSCREEN">      0.00000000</i>
   <i name="HFSCREENC">      0.00000000</i>
   <i type="int" name="NBANDSGWLOW">     0</i>
  </separator>
  <separator name="vdW DFT" >
   <i type="logical" name="LUSE_VDW"> F  </i>
   <i name="Zab_VDW">     -0.84910000</i>
   <i name="PARAM1">      0.12340000</i>
   <i name="PARAM2">      1.00000000</i>
   <i name="PARAM3">      0.00000000</i>
  </separator>
  <separator name="model GW" >
   <i type="int" name="MODEL_GW">     0</i>
   <i name="MODEL_EPS0">      3.60892303</i>
   <i name="MODEL_ALPHA">      1.00000000</i>
  </separator>
  <separator name="linear response parameters" >
   <i type="logical" name="LEPSILON"> F  </i>
   <i type="logical" name="LRPA"> F  </i>
   <i type="logical" name="LNABLA"> F  </i>
   <i type="logical" name="LVEL"> F  </i>
   <i type="int" name="KINTER">     0</i>
   <i name="CSHIFT">      0.10000000</i>
   <i name="OMEGAMAX">     -1.00000000</i>
   <i name="DEG_THRESHOLD">      0.00200000</i>
   <i name="RTIME">     -0.10000000</i>
   <i name="WPLASMAI">      0.00000000</i>
   <v name="DFIELD">      0.00000000      0.00000000      0.00000000</v>
   <v name="WPLASMA">      0.00000000      0.00000000      0.00000000      0.00000000      0.00000000      0.00000000      0.00000000      0.00000000      0.00000000</v>
  </separator>
  <separator name="orbital magnetization" >
   <i type="logical" name="NUCIND"> F  </i>
   <v name="MAGPOS">      0.00000000      0.00000000      0.00000000</v>
   <i type="logical" name="LNICSALL"> T  </i>
   <i type="logical" name="ORBITALMAG"> F  </i>
   <i type="logical" name="LMAGBLOCH"> F  </i>
   <i type="logical" name="LCHIMAG"> F  </i>
   <i type="logical" name="LGAUGE"> T  </i>
   <i type="int" name="MAGATOM">     0</i>
   <v name="MAGDIPOL">      0.00000000      0.00000000      0.00000000</v>
   <v name="AVECCONST">      0.00000000      0.00000000      0.00000000</v>
  </separator>
  <separator name="response functions" >
   <i type="logical" name="LADDER"> F  </i>
   <i type="logical" name="LRPAFORCE"> F  </i>
   <i type="logical" name="LFXC"> F  </i>
   <i type="logical" name="LHARTREE"> T  </i>
   <i type="int" name="IBSE">     0</i>
   <v type="int" name="KPOINT">    -1     0     0     0</v>
   <i type="logical" name="LTCTE"> F  </i>
   <i type="logical" name="LTETE"> F  </i>
   <i type="logical" name="LTRIPLET"> F  </i>
   <i type="logical" name="LFXCEPS"> F  </i>
   <i type="logical" name="LFXHEG"> F  </i>
   <i type="int" name="NATURALO">     2</i>
   <i type="logical" name="L2ORDER"> F  </i>
   <i type="logical" name="LMP2LT"> F  </i>
   <i type="logical" name="LUSEW"> F  </i>
   <i name="ENCUTGW">     -2.00000000</i>
   <i name="ENCUTGWSOFT">     -2.00000000</i>
   <i name="ENCUTLF">     -1.00000000</i>
   <i type="int" name="LMAXMP2">    -1</i>
   <i name="SCISSOR">      0.00000000</i>
   <i type="int" name="NOMEGA">     0</i>
   <i type="int" name="NOMEGAR">     0</i>
   <i type="int" name="NBANDSGW">    -1</i>
   <i type="int" name="NBANDSO">    -1</i>
   <i type="int" name="NBANDSV">    -1</i>
   <i type="int" name="NELM">     1</i>
   <i type="int" name="NELMHF">     1</i>
   <i type="int" name="DIM">     3</i>
   <i type="int" name="ANTIRES">     0</i>
   <i name="OMEGAMAX">    -30.00000000</i>
   <i name="OMEGAMIN">    -30.00000000</i>
   <i name="OMEGATL">   -200.00000000</i>
   <i type="int" name="OMEGAGRID">   140</i>
   <i name="CSHIFT">     -0.10000000</i>
   <i type="logical" name="SELFENERGY"> F  </i>
   <i type="logical" name="LSPECTRAL"> F  </i>
   <i type="logical" name="LSPECTRALGW"> F  </i>
   <i type="logical" name="LSINGLES"> F  </i>
   <i type="logical" name="LFERMIGW"> F  </i>
   <i type="logical" name="ODDONLYGW"> F  </i>
   <i type="logical" name="EVENONLYGW"> F  </i>
   <i type="int" name="NKREDLFX">     1</i>
   <i type="int" name="NKREDLFY">     1</i>
   <i type="int" name="NKREDLFZ">     1</i>
   <i type="int" name="MAXMEM">  2800</i>
   <i type="int" name="TELESCOPE">     0</i>
   <i type="int" name="TAUPAR">     1</i>
   <i type="int" name="OMEGAPAR">    -1</i>
   <i name="LAMBDA">      1.00000000</i>
  </separator>
  <separator name="External order field" >
   <i name="OFIELD_KAPPA">      0.00000000</i>
   <v name="OFIELD_K">      0.00000000      0.00000000      0.00000000</v>
   <i name="OFIELD_Q6_NEAR">      0.00000000</i>
   <i name="OFIELD_Q6_FAR">      0.00000000</i>
   <i name="OFIELD_A">      0.00000000</i>
  </separator>
 </parameters>
 <atominfo>
  <atoms>      64 </atoms>
  <types>       1 </types>
  <array name="atoms" >
   <dimension dim="1">ion</dimension>
   <field type="string">element</field>
   <field type="int">atomtype</field>
   <set>
    <rc><c>C </c><c>   1</c></rc>
    <rc><c>C </c><c>   1</c></rc>
    <rc><c>C </c><c>   1</c></rc>
    <rc><c>C </c><c>   1</c></rc>
    <rc><c>C </c><c>   1</c></rc>
    <rc><c>C </c><c>   1</c></rc>
    <rc><c>C </c><c>   1</c></rc>
    <rc><c>C </c><c>   1</c></rc>
    <rc><c>C </c><c>   1</c></rc>
    <rc><c>C </c><c>   1</c></rc>
    <rc><c>C </c><c>   1</c></rc>
    <rc><c>C </c><c>   1</c></rc>
    <rc><c>C </c><c>   1</c></rc>
    <rc><c>C </c><c>   1</c></rc>
    <rc><c>C </c><c>   1</c></rc>
    <rc><c>C </c><c>   1</c></rc>
    <rc><c>C </c><c>   1</c></rc>
    <rc><c>C </c><c>   1</c></rc>
    <rc><c>C </c><c>   1</c></rc>
    <rc><c>C </c><c>   1</c></rc>
    <rc><c>C </c><c>   1</c></rc>
    <rc><c>C </c><c>   1</c></rc>
    <rc><c>C </c><c>   1</c></rc>
    <rc><c>C </c><c>   1</c></rc>
    <rc><c>C </c><c>   1</c></rc>
    <rc><c>C </c><c>   1</c></rc>
    <rc><c>C </c><c>   1</c></rc>
    <rc><c>C </c><c>   1</c></rc>
    <rc><c>C </c><c>   1</c></rc>
    <rc><c>C </c><c>   1</c></rc>
    <rc><c>C </c><c>   1</c></rc>
    <rc><c>C </c><c>   1</c></rc>
    <rc><c>C </c><c>   1</c></rc>
    <rc><c>C </c><c>   1</c></rc>
    <rc><c>C </c><c>   1</c></rc>
    <rc><c>C </c><c>   1</c></rc>
    <rc><c>C </c><c>   1</c></rc>
    <rc><c>C </c><c>   1</c></rc>
    <rc><c>C </c><c>   1</c></rc>
    <rc><c>C </c><c>   1</c></rc>
    <rc><c>C </c><c>   1</c></rc>
    <rc><c>C </c><c>   1</c></rc>
    <rc><c>C </c><c>   1</c></rc>
    <rc><c>C </c><c>   1</c></rc>
    <rc><c>C </c><c>   1</c></rc>
    <rc><c>C </c><c>   1</c></rc>
    <rc><c>C </c><c>   1</c></rc>
    <rc><c>C </c><c>   1</c></rc>
    <rc><c>C </c><c>   1</c></rc>
    <rc><c>C </c><c>   1</c></rc>
    <rc><c>C </c><c>   1</c></rc>
    <rc><c>C </c><c>   1</c></rc>
    <rc><c>C </c><c>   1</c></rc>
    <rc><c>C </c><c>   1</c></rc>
    <rc><c>C </c><c>   1</c></rc>
    <rc><c>C </c><c>   1</c></rc>
    <rc><c>C </c><c>   1</c></rc>
    <rc><c>C </c><c>   1</c></rc>
    <rc><c>C </c><c>   1</c></rc>
    <rc><c>C </c><c>   1</c></rc>
    <rc><c>C </c><c>   1</c></rc>
    <rc><c>C </c><c>   1</c></rc>
    <rc><c>C </c><c>   1</c></rc>
    <rc><c>C </c><c>   1</c></rc>
   </set>
  </array>
  <array name="atomtypes" >
   <dimension dim="1">type</dimension>
   <field type="int">atomspertype</field>
   <field type="string">element</field>
   <field>mass</field>
   <field>valence</field>
   <field type="string">pseudopotential</field>
   <set>
    <rc><c>  64</c><c>C </c><c>     12.01100000</c><c>      4.00000000</c><c> PAW_PBE C 08Apr2002                    </c></rc>
   </set>
  </array>
 </atominfo>
 <structure name="initialpos" >
  <crystal>
   <varray name="basis" >
    <v>       7.32218990       0.00000000       0.00000000 </v>
    <v>       0.00000000       7.32218990       0.00000000 </v>
    <v>       0.00000000       0.00000000       7.17999872 </v>
   </varray>
   <i name="volume">    384.95178947 </i>
   <varray name="rec_basis" >
    <v>       0.13657116       0.00000000       0.00000000 </v>
    <v>       0.00000000       0.13657116       0.00000000 </v>
    <v>       0.00000000       0.00000000       0.13927579 </v>
   </varray>
  </crystal>
  <varray name="positions" >
   <v>       0.12500000       0.37500000       0.12500000 </v>
   <v>       0.62500000       0.37500000       0.12500000 </v>
   <v>       0.12500000       0.87500000       0.12500000 </v>
   <v>       0.62500000       0.87500000       0.12500000 </v>
   <v>       0.12500000       0.37500000       0.62500000 </v>
   <v>       0.62500000       0.37500000       0.62500000 </v>
   <v>       0.12500000       0.87500000       0.62500000 </v>
   <v>       0.62500000       0.87500000       0.62500000 </v>
   <v>       0.00000000       0.00000000       0.25000000 </v>
   <v>       0.50000000       0.00000000       0.25000000 </v>
   <v>       0.00000000       0.50000000       0.25000000 </v>
   <v>       0.50000000       0.50000000       0.25000000 </v>
   <v>       0.00000000       0.00000000       0.75000000 </v>
   <v>       0.50000000       0.00000000       0.75000000 </v>
   <v>       0.00000000       0.50000000       0.75000000 </v>
   <v>       0.50000000       0.50000000       0.75000000 </v>
   <v>       0.12500000       0.12500000       0.37500000 </v>
   <v>       0.62500000       0.12500000       0.37500000 </v>
   <v>       0.12500000       0.62500000       0.37500000 </v>
   <v>       0.62500000       0.62500000       0.37500000 </v>
   <v>       0.12500000       0.12500000       0.87500000 </v>
   <v>       0.62500000       0.12500000       0.87500000 </v>
   <v>       0.12500000       0.62500000       0.87500000 </v>
   <v>       0.62500000       0.62500000       0.87500000 </v>
   <v>       0.00000000       0.25000000       0.00000000 </v>
   <v>       0.50000000       0.25000000       0.00000000 </v>
   <v>       0.00000000       0.75000000       0.00000000 </v>
   <v>       0.50000000       0.75000000       0.00000000 </v>
   <v>       0.00000000       0.25000000       0.50000000 </v>
   <v>       0.50000000       0.25000000       0.50000000 </v>
   <v>       0.00000000       0.75000000       0.50000000 </v>
   <v>       0.50000000       0.75000000       0.50000000 </v>
   <v>       0.37500000       0.37500000       0.37500000 </v>
   <v>       0.87500000       0.37500000       0.37500000 </v>
   <v>       0.37500000       0.87500000       0.37500000 </v>
   <v>       0.87500000       0.87500000       0.37500000 </v>
   <v>       0.37500000       0.37500000       0.87500000 </v>
   <v>       0.87500000       0.37500000       0.87500000 </v>
   <v>       0.37500000       0.87500000       0.87500000 </v>
   <v>       0.87500000       0.87500000       0.87500000 </v>
   <v>       0.25000000       0.00000000       0.00000000 </v>
   <v>       0.75000000       0.00000000       0.00000000 </v>
   <v>       0.25000000       0.50000000       0.00000000 </v>
   <v>       0.75000000       0.50000000       0.00000000 </v>
   <v>       0.25000000       0.00000000       0.50000000 </v>
   <v>       0.75000000       0.00000000       0.50000000 </v>
   <v>       0.25000000       0.50000000       0.50000000 </v>
   <v>       0.75000000       0.50000000       0.50000000 </v>
   <v>       0.37500000       0.12500000       0.12500000 </v>
   <v>       0.87500000       0.12500000       0.12500000 </v>
   <v>       0.37500000       0.62500000       0.12500000 </v>
   <v>       0.87500000       0.62500000       0.12500000 </v>
   <v>       0.37500000       0.12500000       0.62500000 </v>
   <v>       0.87500000       0.12500000       0.62500000 </v>
   <v>       0.37500000       0.62500000       0.62500000 </v>
   <v>       0.87500000       0.62500000       0.62500000 </v>
   <v>       0.25000000       0.25000000       0.25000000 </v>
   <v>       0.75000000       0.25000000       0.25000000 </v>
   <v>       0.25000000       0.75000000       0.25000000 </v>
   <v>       0.75000000       0.75000000       0.25000000 </v>
   <v>       0.25000000       0.25000000       0.75000000 </v>
   <v>       0.75000000       0.25000000       0.75000000 </v>
   <v>       0.25000000       0.75000000       0.75000000 </v>
   <v>       0.75000000       0.75000000       0.75000000 </v>
  </varray>
 </structure>
 <calculation>
  <scstep>
   <time name="dav">   11.57   11.58</time>
   <time name="total">   11.68   11.83</time>
   <energy>
    <i name="alphaZ">    866.97285445 </i>
    <i name="ewald"> -10919.68759552 </i>
    <i name="hartreedc">   -605.35705231 </i>
    <i name="XCdc">    903.34427900 </i>
    <i name="pawpsdc">   2421.21235816 </i>
    <i name="pawaedc">  -2494.84305711 </i>
    <i name="eentropy">     -0.00931032 </i>
    <i name="bandstr">    911.29813505 </i>
    <i name="atom">   9416.14232778 </i>
    <i name="e_fr_energy">    499.07293918 </i>
    <i name="e_wo_entrp">    499.08224950 </i>
    <i name="e_0_energy">    499.07759434 </i>
   </energy>
  </scstep>
  <scstep>
   <time name="dav">   14.65   14.65</time>
   <time name="total">   14.65   14.65</time>
   <energy>
    <i name="e_fr_energy">   -554.65031516 </i>
    <i name="e_wo_entrp">   -554.65031516 </i>
    <i name="e_0_energy">   -554.65031516 </i>
   </energy>
  </scstep>
  <scstep>
   <time name="dav">   14.75   14.75</time>
   <time name="total">   14.75   14.75</time>
   <energy>
    <i name="e_fr_energy">   -596.64244076 </i>
    <i name="e_wo_entrp">   -596.64244076 </i>
    <i name="e_0_energy">   -596.64244076 </i>
   </energy>
  </scstep>
  <scstep>
   <time name="dav">   14.66   14.66</time>
   <time name="total">   14.66   14.66</time>
   <energy>
    <i name="e_fr_energy">   -597.13663416 </i>
    <i name="e_wo_entrp">   -597.13663416 </i>
    <i name="e_0_energy">   -597.13663416 </i>
   </energy>
  </scstep>
  <scstep>
   <time name="dav">   13.78   13.78</time>
   <time name="total">   14.23   14.23</time>
   <energy>
    <i name="e_fr_energy">   -597.14771964 </i>
    <i name="e_wo_entrp">   -597.14771964 </i>
    <i name="e_0_energy">   -597.14771964 </i>
   </energy>
  </scstep>
  <scstep>
   <time name="dav">   13.42   13.42</time>
   <time name="total">   13.97   13.97</time>
   <energy>
    <i name="e_fr_energy">   -584.55625428 </i>
    <i name="e_wo_entrp">   -584.55625428 </i>
    <i name="e_0_energy">   -584.55625428 </i>
   </energy>
  </scstep>
  <scstep>
   <time name="dav">   13.66   13.66</time>
   <time name="total">   14.21   14.21</time>
   <energy>
    <i name="e_fr_energy">   -580.29714040 </i>
    <i name="e_wo_entrp">   -580.29714040 </i>
    <i name="e_0_energy">   -580.29714040 </i>
   </energy>
  </scstep>
  <scstep>
   <time name="dav">   14.10   14.10</time>
   <time name="total">   14.65   14.65</time>
   <energy>
    <i name="e_fr_energy">   -580.35130546 </i>
    <i name="e_wo_entrp">   -580.35130546 </i>
    <i name="e_0_energy">   -580.35130546 </i>
   </energy>
  </scstep>
  <scstep>
   <time name="dav">   14.66   14.66</time>
   <time name="total">   15.22   15.22</time>
   <energy>
    <i name="e_fr_energy">   -580.35347718 </i>
    <i name="e_wo_entrp">   -580.35347718 </i>
    <i name="e_0_energy">   -580.35347718 </i>
   </energy>
  </scstep>
  <scstep>
   <time name="dav">   13.86   13.86</time>
   <time name="total">   14.40   14.40</time>
   <energy>
    <i name="e_fr_energy">   -580.35394503 </i>
    <i name="e_wo_entrp">   -580.35394503 </i>
    <i name="e_0_energy">   -580.35394503 </i>
   </energy>
  </scstep>
  <scstep>
   <time name="dav">   14.69   14.69</time>
   <time name="total">   15.24   15.24</time>
   <energy>
    <i name="e_fr_energy">   -580.35394896 </i>
    <i name="e_wo_entrp">   -580.35394896 </i>
    <i name="e_0_energy">   -580.35394896 </i>
   </energy>
  </scstep>
  <scstep>
   <time name="dav">   14.30   14.30</time>
   <time name="total">   14.85   14.85</time>
   <energy>
    <i name="e_fr_energy">   -580.35394920 </i>
    <i name="e_wo_entrp">   -580.35394920 </i>
    <i name="e_0_energy">   -580.35394920 </i>
   </energy>
  </scstep>
  <scstep>
   <time name="dav">   12.14   12.14</time>
   <time name="total">   12.69   12.69</time>
   <energy>
    <i name="e_fr_energy">   -580.35394933 </i>
    <i name="e_wo_entrp">   -580.35394933 </i>
    <i name="e_0_energy">   -580.35394933 </i>
   </energy>
  </scstep>
  <scstep>
   <time name="dav">   11.44   11.44</time>
   <time name="total">   11.99   11.99</time>
   <energy>
    <i name="e_fr_energy">   -580.35394934 </i>
    <i name="e_wo_entrp">   -580.35394934 </i>
    <i name="e_0_energy">   -580.35394934 </i>
   </energy>
  </scstep>
  <scstep>
   <time name="dav">   10.79   10.79</time>
   <time name="total">   10.89   10.89</time>
   <energy>
    <i name="alphaZ">    866.97285445 </i>
    <i name="ewald"> -10919.68759552 </i>
    <i name="hartreedc">   -870.20990495 </i>
    <i name="XCdc">    928.21393999 </i>
    <i name="pawpsdc">   3982.65582940 </i>
    <i name="pawaedc">  -4062.46072769 </i>
    <i name="eentropy">     -0.00000000 </i>
    <i name="bandstr">     78.01932720 </i>
    <i name="atom">   9416.14232778 </i>
    <i name="e_fr_energy">   -580.35394934 </i>
    <i name="e_wo_entrp">   -580.35394934 </i>
    <i name="e_0_energy">   -580.35394934 </i>
   </energy>
  </scstep>
  <structure>
   <crystal>
    <varray name="basis" >
     <v>       7.32218990       0.00000000       0.00000000 </v>
     <v>       0.00000000       7.32218990       0.00000000 </v>
     <v>       0.00000000       0.00000000       7.17999872 </v>
    </varray>
    <i name="volume">    384.95178947 </i>
    <varray name="rec_basis" >
     <v>       0.13657116       0.00000000       0.00000000 </v>
     <v>       0.00000000       0.13657116       0.00000000 </v>
     <v>       0.00000000       0.00000000       0.13927579 </v>
    </varray>
   </crystal>
   <varray name="positions" >
    <v>       0.12500000       0.37500000       0.12500000 </v>
    <v>       0.62500000       0.37500000       0.12500000 </v>
    <v>       0.12500000       0.87500000       0.12500000 </v>
    <v>       0.62500000       0.87500000       0.12500000 </v>
    <v>       0.12500000       0.37500000       0.62500000 </v>
    <v>       0.62500000       0.37500000       0.62500000 </v>
    <v>       0.12500000       0.87500000       0.62500000 </v>
    <v>       0.62500000       0.87500000       0.62500000 </v>
    <v>       0.00000000       0.00000000       0.25000000 </v>
    <v>       0.50000000       0.00000000       0.25000000 </v>
    <v>       0.00000000       0.50000000       0.25000000 </v>
    <v>       0.50000000       0.50000000       0.25000000 </v>
    <v>       0.00000000       0.00000000       0.75000000 </v>
    <v>       0.50000000       0.00000000       0.75000000 </v>
    <v>       0.00000000       0.50000000       0.75000000 </v>
    <v>       0.50000000       0.50000000       0.75000000 </v>
    <v>       0.12500000       0.12500000       0.37500000 </v>
    <v>       0.62500000       0.12500000       0.37500000 </v>
    <v>       0.12500000       0.62500000       0.37500000 </v>
    <v>       0.62500000       0.62500000       0.37500000 </v>
    <v>       0.12500000       0.12500000       0.87500000 </v>
    <v>       0.62500000       0.12500000       0.87500000 </v>
    <v>       0.12500000       0.62500000       0.87500000 </v>
    <v>       0.62500000       0.62500000       0.87500000 </v>
    <v>       0.00000000       0.25000000       0.00000000 </v>
    <v>       0.50000000       0.25000000       0.00000000 </v>
    <v>       0.00000000       0.75000000       0.00000000 </v>
    <v>       0.50000000       0.75000000       0.00000000 </v>
    <v>       0.00000000       0.25000000       0.50000000 </v>
    <v>       0.50000000       0.25000000       0.50000000 </v>
    <v>       0.00000000       0.75000000       0.50000000 </v>
    <v>       0.50000000       0.75000000       0.50000000 </v>
    <v>       0.37500000       0.37500000       0.37500000 </v>
    <v>       0.87500000       0.37500000       0.37500000 </v>
    <v>       0.37500000       0.87500000       0.37500000 </v>
    <v>       0.87500000       0.87500000       0.37500000 </v>
    <v>       0.37500000       0.37500000       0.87500000 </v>
    <v>       0.87500000       0.37500000       0.87500000 </v>
    <v>       0.37500000       0.87500000       0.87500000 </v>
    <v>       0.87500000       0.87500000       0.87500000 </v>
    <v>       0.25000000       0.00000000       0.00000000 </v>
    <v>       0.75000000       0.00000000       0.00000000 </v>
    <v>       0.25000000       0.50000000       0.00000000 </v>
    <v>       0.75000000       0.50000000       0.00000000 </v>
    <v>       0.25000000       0.00000000       0.50000000 </v>
    <v>       0.75000000       0.00000000       0.50000000 </v>
    <v>       0.25000000       0.50000000       0.50000000 </v>
    <v>       0.75000000       0.50000000       0.50000000 </v>
    <v>       0.37500000       0.12500000       0.12500000 </v>
    <v>       0.87500000       0.12500000       0.12500000 </v>
    <v>       0.37500000       0.62500000       0.12500000 </v>
    <v>       0.87500000       0.62500000       0.12500000 </v>
    <v>       0.37500000       0.12500000       0.62500000 </v>
    <v>       0.87500000       0.12500000       0.62500000 </v>
    <v>       0.37500000       0.62500000       0.62500000 </v>
    <v>       0.87500000       0.62500000       0.62500000 </v>
    <v>       0.25000000       0.25000000       0.25000000 </v>
    <v>       0.75000000       0.25000000       0.25000000 </v>
    <v>       0.25000000       0.75000000       0.25000000 </v>
    <v>       0.75000000       0.75000000       0.25000000 </v>
    <v>       0.25000000       0.25000000       0.75000000 </v>
    <v>       0.75000000       0.25000000       0.75000000 </v>
    <v>       0.25000000       0.75000000       0.75000000 </v>
    <v>       0.75000000       0.75000000       0.75000000 </v>
   </varray>
  </structure>
  <varray name="forces" >
   <v>       0.00000000       0.00000000       0.00000000 </v>
   <v>       0.00000000       0.00000000      -0.00000000 </v>
   <v>      -0.00000000       0.00000000       0.00000000 </v>
   <v>      -0.00000000       0.00000000      -0.00000000 </v>
   <v>       0.00000000       0.00000000      -0.00000000 </v>
   <v>       0.00000000       0.00000000       0.00000000 </v>
   <v>       0.00000000       0.00000000      -0.00000000 </v>
   <v>      -0.00000000       0.00000000       0.00000000 </v>
   <v>      -0.00000000      -0.00000000       0.00000000 </v>
   <v>       0.00000000      -0.00000000      -0.00000000 </v>
   <v>       0.00000000      -0.00000000       0.00000000 </v>
   <v>      -0.00000000      -0.00000000      -0.00000000 </v>
   <v>      -0.00000000      -0.00000000      -0.00000000 </v>
   <v>       0.00000000      -0.00000000       0.00000000 </v>
   <v>       0.00000000      -0.00000000      -0.00000000 </v>
   <v>       0.00000000      -0.00000000       0.00000000 </v>
   <v>      -0.00000000       0.00000000       0.00000000 </v>
   <v>      -0.00000000       0.00000000      -0.00000000 </v>
   <v>      -0.00000000       0.00000000      -0.00000000 </v>
   <v>       0.00000000       0.00000000       0.00000000 </v>
   <v>       0.00000000       0.00000000       0.00000000 </v>
   <v>      -0.00000000       0.00000000       0.00000000 </v>
   <v>      -0.00000000       0.00000000       0.00000000 </v>
   <v>      -0.00000000       0.00000000       0.00000000 </v>
   <v>       0.00000000      -0.00000000       0.00000000 </v>
   <v>       0.00000000      -0.00000000       0.00000000 </v>
   <v>      -0.00000000      -0.00000000       0.00000000 </v>
   <v>      -0.00000000      -0.00000000      -0.00000000 </v>
   <v>      -0.00000000      -0.00000000      -0.00000000 </v>
   <v>       0.00000000      -0.00000000      -0.00000000 </v>
   <v>       0.00000000      -0.00000000      -0.00000000 </v>
   <v>       0.00000000      -0.00000000       0.00000000 </v>
   <v>      -0.00000000      -0.00000000      -0.00000000 </v>
   <v>      -0.00000000       0.00000000      -0.00000000 </v>
   <v>       0.00000000       0.00000000       0.00000000 </v>
   <v>       0.00000000       0.00000000       0.00000000 </v>
   <v>       0.00000000       0.00000000      -0.00000000 </v>
   <v>       0.00000000      -0.00000000       0.00000000 </v>
   <v>      -0.00000000       0.00000000      -0.00000000 </v>
   <v>       0.00000000       0.00000000       0.00000000 </v>
   <v>      -0.00000000      -0.00000000      -0.00000000 </v>
   <v>       0.00000000      -0.00000000       0.00000000 </v>
   <v>      -0.00000000      -0.00000000      -0.00000000 </v>
   <v>      -0.00000000      -0.00000000       0.00000000 </v>
   <v>      -0.00000000      -0.00000000       0.00000000 </v>
   <v>      -0.00000000      -0.00000000      -0.00000000 </v>
   <v>       0.00000000      -0.00000000       0.00000000 </v>
   <v>      -0.00000000      -0.00000000      -0.00000000 </v>
   <v>       0.00000000       0.00000000      -0.00000000 </v>
   <v>      -0.00000000       0.00000000      -0.00000000 </v>
   <v>      -0.00000000       0.00000000       0.00000000 </v>
   <v>       0.00000000       0.00000000       0.00000000 </v>
   <v>      -0.00000000       0.00000000       0.00000000 </v>
   <v>       0.00000000       0.00000000       0.00000000 </v>
   <v>      -0.00000000       0.00000000       0.00000000 </v>
   <v>      -0.00000000       0.00000000      -0.00000000 </v>
   <v>       0.00000000      -0.00000000      -0.00000000 </v>
   <v>       0.00000000      -0.00000000       0.00000000 </v>
   <v>      -0.00000000       0.00000000       0.00000000 </v>
   <v>       0.00000000      -0.00000000      -0.00000000 </v>
   <v>      -0.00000000      -0.00000000       0.00000000 </v>
   <v>      -0.00000000      -0.00000000       0.00000000 </v>
   <v>      -0.00000000      -0.00000000       0.00000000 </v>
   <v>       0.00000000      -0.00000000       0.00000000 </v>
  </varray>
  <varray name="stress" >
   <v>    -306.41117637       0.00000000       0.00000000 </v>
   <v>       0.00000000    -306.41117637       0.00000000 </v>
   <v>       0.00000000       0.00000000    -138.79612812 </v>
  </varray>
  <energy>
   <i name="e_fr_energy">   -580.35394934 </i>
   <i name="e_wo_entrp">   -580.35394934 </i>
   <i name="e_0_energy">     -0.00000000 </i>
  </energy>
  <kpoints>
   <generation param="Gamma">
    <v type="int" name="divisions">       4        4        4 </v>
    <v name="usershift">      0.00000000       0.00000000       0.00000000 </v>
    <v name="genvec1">      0.25000000       0.00000000       0.00000000 </v>
    <v name="genvec2">      0.00000000       0.25000000       0.00000000 </v>
    <v name="genvec3">      0.00000000       0.00000000       0.25000000 </v>
    <v name="shift">      0.00000000       0.00000000       0.00000000 </v>
   </generation>
   <varray name="kpointlist" >
    <v>       0.00000000       0.00000000       0.00000000 </v>
    <v>       0.25000000       0.00000000       0.00000000 </v>
    <v>       0.50000000       0.00000000       0.00000000 </v>
    <v>       0.00000000       0.25000000       0.00000000 </v>
    <v>       0.25000000       0.25000000       0.00000000 </v>
    <v>       0.50000000       0.25000000       0.00000000 </v>
    <v>       0.00000000       0.50000000       0.00000000 </v>
    <v>       0.25000000       0.50000000       0.00000000 </v>
    <v>       0.50000000       0.50000000       0.00000000 </v>
    <v>       0.00000000       0.00000000       0.25000000 </v>
    <v>       0.25000000       0.00000000       0.25000000 </v>
    <v>       0.50000000       0.00000000       0.25000000 </v>
    <v>       0.00000000       0.25000000       0.25000000 </v>
    <v>       0.25000000       0.25000000       0.25000000 </v>
    <v>       0.50000000       0.25000000       0.25000000 </v>
    <v>       0.00000000       0.50000000       0.25000000 </v>
    <v>       0.25000000       0.50000000       0.25000000 </v>
    <v>       0.50000000       0.50000000       0.25000000 </v>
    <v>       0.00000000      -0.25000000       0.25000000 </v>
    <v>       0.25000000      -0.25000000       0.25000000 </v>
    <v>       0.50000000      -0.25000000       0.25000000 </v>
    <v>       0.00000000       0.00000000       0.50000000 </v>
    <v>       0.25000000       0.00000000       0.50000000 </v>
    <v>       0.50000000       0.00000000       0.50000000 </v>
    <v>       0.00000000       0.25000000       0.50000000 </v>
    <v>       0.25000000       0.25000000       0.50000000 </v>
    <v>       0.50000000       0.25000000       0.50000000 </v>
    <v>       0.00000000       0.50000000       0.50000000 </v>
    <v>       0.25000000       0.50000000       0.50000000 </v>
    <v>       0.50000000       0.50000000       0.50000000 </v>
   </varray>
   <varray name="weights" >
    <v>       0.01562500 </v>
    <v>       0.03125000 </v>
    <v>       0.01562500 </v>
    <v>       0.03125000 </v>
    <v>       0.06250000 </v>
    <v>       0.03125000 </v>
    <v>       0.01562500 </v>
    <v>       0.03125000 </v>
    <v>       0.01562500 </v>
    <v>       0.03125000 </v>
    <v>       0.06250000 </v>
    <v>       0.03125000 </v>
    <v>       0.03125000 </v>
    <v>       0.06250000 </v>
    <v>       0.03125000 </v>
    <v>       0.03125000 </v>
    <v>       0.06250000 </v>
    <v>       0.03125000 </v>
    <v>       0.03125000 </v>
    <v>       0.06250000 </v>
    <v>       0.03125000 </v>
    <v>       0.01562500 </v>
    <v>       0.03125000 </v>
    <v>       0.01562500 </v>
    <v>       0.03125000 </v>
    <v>       0.06250000 </v>
    <v>       0.03125000 </v>
    <v>       0.01562500 </v>
    <v>       0.03125000 </v>
    <v>       0.01562500 </v>
   </varray>
  </kpoints>
  <scstep>
   <time name="total">   25.13   25.13</time>
   <energy>
    <i name="e_fr_energy">   -355.04656939 </i>
    <i name="e_wo_entrp">   -355.04656939 </i>
    <i name="e_0_energy">   -355.04656939 </i>
   </energy>
  </scstep>
  <scstep>
   <time name="total">   18.84   18.84</time>
   <energy>
    <i name="e_fr_energy">   -304.33817904 </i>
    <i name="e_wo_entrp">   -304.33817904 </i>
    <i name="e_0_energy">   -304.33817904 </i>
   </energy>
  </scstep>
  <scstep>
   <time name="total">   19.08   19.08</time>
   <energy>
    <i name="e_fr_energy">   -304.13707463 </i>
    <i name="e_wo_entrp">   -304.13707463 </i>
    <i name="e_0_energy">   -304.13707463 </i>
   </energy>
  </scstep>
  <scstep>
   <time name="total">   19.17   19.17</time>
   <energy>
    <i name="e_fr_energy">   -304.71705998 </i>
    <i name="e_wo_entrp">   -304.71705998 </i>
    <i name="e_0_energy">   -304.71705998 </i>
   </energy>
  </scstep>
  <scstep>
   <time name="total">   19.24   19.24</time>
   <energy>
    <i name="e_fr_energy">   -304.88526997 </i>
    <i name="e_wo_entrp">   -304.88526997 </i>
    <i name="e_0_energy">   -304.88526997 </i>
   </energy>
  </scstep>
  <scstep>
   <time name="total">   19.51   19.51</time>
   <energy>
    <i name="e_fr_energy">   -304.84516680 </i>
    <i name="e_wo_entrp">   -304.84516680 </i>
    <i name="e_0_energy">   -304.84516680 </i>
   </energy>
  </scstep>
  <scstep>
   <time name="total">   19.62   19.62</time>
   <energy>
    <i name="e_fr_energy">   -304.82210729 </i>
    <i name="e_wo_entrp">   -304.82210729 </i>
    <i name="e_0_energy">   -304.82210729 </i>
   </energy>
  </scstep>
  <scstep>
   <time name="total">   20.06   20.06</time>
   <energy>
    <i name="e_fr_energy">   -304.82014572 </i>
    <i name="e_wo_entrp">   -304.82014572 </i>
    <i name="e_0_energy">   -304.82014572 </i>
   </energy>
  </scstep>
  <scstep>
   <time name="total">   20.62   20.62</time>
   <energy>
    <i name="e_fr_energy">   -304.81994798 </i>
    <i name="e_wo_entrp">   -304.81994798 </i>
    <i name="e_0_energy">   -304.81994798 </i>
   </energy>
  </scstep>
  <scstep>
   <time name="total">   21.13   21.13</time>
   <energy>
    <i name="e_fr_energy">   -304.81990517 </i>
    <i name="e_wo_entrp">   -304.81990517 </i>
    <i name="e_0_energy">   -304.81990517 </i>
   </energy>
  </scstep>
  <scstep>
   <time name="total">   21.20   21.20</time>
   <energy>
    <i name="e_fr_energy">   -304.82031908 </i>
    <i name="e_wo_entrp">   -304.82031908 </i>
    <i name="e_0_energy">   -304.82031908 </i>
   </energy>
  </scstep>
  <kpoints>
   <generation param="Gamma">
    <v type="int" name="divisions">       4        4        4 </v>
    <v name="usershift">      0.00000000       0.00000000       0.00000000 </v>
    <v name="genvec1">      0.25000000       0.00000000       0.00000000 </v>
    <v name="genvec2">      0.00000000       0.25000000       0.00000000 </v>
    <v name="genvec3">      0.00000000       0.00000000       0.25000000 </v>
    <v name="shift">      0.00000000       0.00000000       0.00000000 </v>
   </generation>
   <varray name="kpointlist" >
    <v>       0.00000000       0.00000000       0.00000000 </v>
    <v>       0.25000000       0.00000000       0.00000000 </v>
    <v>       0.50000000       0.00000000       0.00000000 </v>
    <v>       0.25000000       0.25000000       0.00000000 </v>
    <v>       0.50000000       0.25000000       0.00000000 </v>
    <v>      -0.25000000       0.25000000       0.00000000 </v>
    <v>       0.50000000       0.50000000       0.00000000 </v>
    <v>       0.00000000       0.00000000       0.25000000 </v>
    <v>       0.25000000       0.00000000       0.25000000 </v>
    <v>       0.50000000       0.00000000       0.25000000 </v>
    <v>       0.25000000       0.25000000       0.25000000 </v>
    <v>       0.50000000       0.25000000       0.25000000 </v>
    <v>      -0.25000000       0.25000000       0.25000000 </v>
    <v>       0.50000000       0.50000000       0.25000000 </v>
    <v>       0.00000000       0.00000000       0.50000000 </v>
    <v>       0.25000000       0.00000000       0.50000000 </v>
    <v>       0.50000000       0.00000000       0.50000000 </v>
    <v>       0.25000000       0.25000000       0.50000000 </v>
    <v>       0.50000000       0.25000000       0.50000000 </v>
    <v>      -0.25000000       0.25000000       0.50000000 </v>
    <v>       0.50000000       0.50000000       0.50000000 </v>
   </varray>
   <varray name="weights" >
    <v>       0.01562500 </v>
    <v>       0.06250000 </v>
    <v>       0.03125000 </v>
    <v>       0.03125000 </v>
    <v>       0.06250000 </v>
    <v>       0.03125000 </v>
    <v>       0.01562500 </v>
    <v>       0.03125000 </v>
    <v>       0.12500000 </v>
    <v>       0.06250000 </v>
    <v>       0.06250000 </v>
    <v>       0.12500000 </v>
    <v>       0.06250000 </v>
    <v>       0.03125000 </v>
    <v>       0.01562500 </v>
    <v>       0.06250000 </v>
    <v>       0.03125000 </v>
    <v>       0.03125000 </v>
    <v>       0.06250000 </v>
    <v>       0.03125000 </v>
    <v>       0.01562500 </v>
   </varray>
  </kpoints>
  <scstep>
   <time name="total">   17.50   17.50</time>
   <energy>
    <i name="e_fr_energy">   -353.28912835 </i>
    <i name="e_wo_entrp">   -353.28912835 </i>
    <i name="e_0_energy">   -353.28912835 </i>
   </energy>
  </scstep>
  <scstep>
   <time name="total">   13.27   13.27</time>
   <energy>
    <i name="e_fr_energy">   -305.04248584 </i>
    <i name="e_wo_entrp">   -305.04248584 </i>
    <i name="e_0_energy">   -305.04248584 </i>
   </energy>
  </scstep>
  <scstep>
   <time name="total">   13.43   13.43</time>
   <energy>
    <i name="e_fr_energy">   -304.82635135 </i>
    <i name="e_wo_entrp">   -304.82635135 </i>
    <i name="e_0_energy">   -304.82635135 </i>
   </energy>
  </scstep>
  <scstep>
   <time name="total">   13.50   13.50</time>
   <energy>
    <i name="e_fr_energy">   -305.39347037 </i>
    <i name="e_wo_entrp">   -305.39347037 </i>
    <i name="e_0_energy">   -305.39347037 </i>
   </energy>
  </scstep>
  <scstep>
   <time name="total">   13.58   13.58</time>
   <energy>
    <i name="e_fr_energy">   -305.56618198 </i>
    <i name="e_wo_entrp">   -305.56618198 </i>
    <i name="e_0_energy">   -305.56618198 </i>
   </energy>
  </scstep>
  <scstep>
   <time name="total">   13.75   13.75</time>
   <energy>
    <i name="e_fr_energy">   -305.52391032 </i>
    <i name="e_wo_entrp">   -305.52391032 </i>
    <i name="e_0_energy">   -305.52391032 </i>
   </energy>
  </scstep>
  <scstep>
   <time name="total">   13.68   13.68</time>
   <energy>
    <i name="e_fr_energy">   -305.50272724 </i>
    <i name="e_wo_entrp">   -305.50272724 </i>
    <i name="e_0_energy">   -305.50272724 </i>
   </energy>
  </scstep>
  <scstep>
   <time name="total">   13.92   13.92</time>
   <energy>
    <i name="e_fr_energy">   -305.50064584 </i>
    <i name="e_wo_entrp">   -305.50064584 </i>
    <i name="e_0_energy">   -305.50064584 </i>
   </energy>
  </scstep>
  <scstep>
   <time name="total">   14.40   14.41</time>
   <energy>
    <i name="e_fr_energy">   -305.50062942 </i>
    <i name="e_wo_entrp">   -305.50062942 </i>
    <i name="e_0_energy">   -305.50062942 </i>
   </energy>
  </scstep>
  <scstep>
   <time name="total">   14.86   14.86</time>
   <energy>
    <i name="e_fr_energy">   -305.50032282 </i>
    <i name="e_wo_entrp">   -305.50032282 </i>
    <i name="e_0_energy">   -305.50032282 </i>
   </energy>
  </scstep>
  <scstep>
   <time name="total">   14.81   14.81</time>
   <energy>
    <i name="e_fr_energy">   -305.50027443 </i>
    <i name="e_wo_entrp">   -305.50027443 </i>
    <i name="e_0_energy">   -305.50027443 </i>
   </energy>
  </scstep>
  <kpoints>
   <generation param="Gamma">
    <v type="int" name="divisions">       4        4        4 </v>
    <v name="usershift">      0.00000000       0.00000000       0.00000000 </v>
    <v name="genvec1">      0.25000000       0.00000000       0.00000000 </v>
    <v name="genvec2">      0.00000000       0.25000000       0.00000000 </v>
    <v name="genvec3">      0.00000000       0.00000000       0.25000000 </v>
    <v name="shift">      0.00000000       0.00000000       0.00000000 </v>
   </generation>
   <varray name="kpointlist" >
    <v>       0.00000000       0.00000000       0.00000000 </v>
    <v>       0.25000000       0.00000000       0.00000000 </v>
    <v>       0.50000000       0.00000000       0.00000000 </v>
    <v>       0.25000000       0.25000000       0.00000000 </v>
    <v>       0.50000000       0.25000000       0.00000000 </v>
    <v>       0.50000000       0.50000000       0.00000000 </v>
    <v>       0.00000000       0.00000000       0.25000000 </v>
    <v>       0.25000000       0.00000000       0.25000000 </v>
    <v>       0.50000000       0.00000000       0.25000000 </v>
    <v>       0.25000000       0.25000000       0.25000000 </v>
    <v>       0.50000000       0.25000000       0.25000000 </v>
    <v>       0.50000000       0.50000000       0.25000000 </v>
    <v>       0.00000000       0.00000000       0.50000000 </v>
    <v>       0.25000000       0.00000000       0.50000000 </v>
    <v>       0.50000000       0.00000000       0.50000000 </v>
    <v>       0.25000000       0.25000000       0.50000000 </v>
    <v>       0.50000000       0.25000000       0.50000000 </v>
    <v>       0.50000000       0.50000000       0.50000000 </v>
   </varray>
   <varray name="weights" >
    <v>       0.01562500 </v>
    <v>       0.06250000 </v>
    <v>       0.03125000 </v>
    <v>       0.06250000 </v>
    <v>       0.06250000 </v>
    <v>       0.01562500 </v>
    <v>       0.03125000 </v>
    <v>       0.12500000 </v>
    <v>       0.06250000 </v>
    <v>       0.12500000 </v>
    <v>       0.12500000 </v>
    <v>       0.03125000 </v>
    <v>       0.01562500 </v>
    <v>       0.06250000 </v>
    <v>       0.03125000 </v>
    <v>       0.06250000 </v>
    <v>       0.06250000 </v>
    <v>       0.01562500 </v>
   </varray>
  </kpoints>
  <dynmat>
   <varray name="hessian" >
    <v>      -3.25671538       0.00000000      -0.00000000       0.01252966       0.00000000      -0.00000000       0.00744754      -0.00000000      -0.00000000       0.00799926       0.00000000       0.00000000       0.00693617       0.00000000       0.00000000       0.00865839       0.00000000       0.00000000      -0.04590862      -0.00000000      -0.00000000       0.00399178       0.00000000       0.00000000      -0.01231276      -0.00786409       0.00158187       0.00479349      -0.00603014      -0.01655895       0.67535541      -0.10855425      -0.10389174      -0.00590150      -0.00786409      -0.00801281       0.02748929      -0.01693317      -0.01642314      -0.00263783      -0.00271529      -0.00254269      -0.01206999       0.00055815      -0.00674294       0.00653621      -0.01693317      -0.00842219      -0.10898466       0.05418184      -0.05604899      -0.00389629       0.00298222      -0.00287473      -0.10898466       0.05418184       0.05604899      -0.00389629       0.00298222       0.00287473      -0.10898466      -0.05418184      -0.05604899      -0.00389629      -0.00298222      -0.00287473      -0.10898466      -0.05418184       0.05604899      -0.00389629      -0.00298222       0.00287473       0.67535541       0.10855425       0.10389174      -0.00590150       0.00786409       0.00801281      -0.01231276       0.00786409      -0.00158187       0.00479349       0.00603014       0.01655895      -0.01206999      -0.00055815       0.00674294       0.00653621       0.01693317       0.00842219       0.02748929       0.01693317       0.01642314      -0.00263783       0.00271529       0.00254269       0.11909241      -0.05418184       0.12311984       0.11909241      -0.05418184      -0.12311984       0.00653201      -0.00298222      -0.00629392       0.00653201      -0.00298222       0.00629392       0.11909241       0.05418184      -0.12311984       0.11909241       0.05418184       0.12311984       0.00653201       0.00298222       0.00629392       0.00653201       0.00298222      -0.00629392      -0.01231276       0.00786409       0.00158187       0.00479349       0.00603014      -0.01655895       0.67535541       0.10855425      -0.10389174      -0.00590150       0.00786409      -0.00801281       0.02748929       0.01693317      -0.01642314      -0.00263783       0.00271529      -0.00254269      -0.01206999      -0.00055815      -0.00674294       0.00653621       0.01693317      -0.00842219       0.11305300      -0.11501813       0.05496215       0.11305300       0.11501813       0.05496215       0.11305300       0.11501813      -0.05496215       0.11305300      -0.11501813      -0.05496215       0.00671651       0.00663399       0.00279545       0.00671651      -0.00663399       0.00279545       0.00671651      -0.00663399      -0.00279545       0.00671651       0.00663399      -0.00279545       0.67535541      -0.10855425       0.10389174      -0.00590150      -0.00786409       0.00801281      -0.01231276      -0.00786409      -0.00158187       0.00479349      -0.00603014       0.01655895      -0.01206999       0.00055815       0.00674294       0.00653621      -0.01693317       0.00842219       0.02748929      -0.01693317       0.01642314      -0.00263783      -0.00271529       0.00254269 </v>
    <v>       0.00000000      -3.25671538      -0.00000000       0.00000000       0.00744754      -0.00000000      -0.00000000       0.01252966      -0.00000000       0.00000000       0.00799926       0.00000000       0.00000000       0.00693617      -0.00000000       0.00000000      -0.04590862       0.00000000      -0.00000000       0.00865839       0.00000000       0.00000000       0.00399178       0.00000000      -0.00786409      -0.00590150       0.00801281      -0.00603014       0.00479349       0.01655895      -0.10855425       0.67535541       0.10389174      -0.00786409      -0.01231276      -0.00158187      -0.01693317       0.00653621       0.00842219      -0.00271529      -0.00263783       0.00254269       0.00055815      -0.01206999       0.00674294      -0.01693317       0.02748929       0.01642314      -0.05418184       0.11909241      -0.12311984      -0.00298222       0.00653201       0.00629392      -0.05418184       0.11909241       0.12311984      -0.00298222       0.00653201      -0.00629392       0.05418184       0.11909241       0.12311984       0.00298222       0.00653201      -0.00629392       0.05418184       0.11909241      -0.12311984       0.00298222       0.00653201       0.00629392       0.10855425       0.67535541       0.10389174       0.00786409      -0.01231276      -0.00158187       0.00786409      -0.00590150       0.00801281       0.00603014       0.00479349       0.01655895      -0.00055815      -0.01206999       0.00674294       0.01693317       0.02748929       0.01642314       0.01693317       0.00653621       0.00842219       0.00271529      -0.00263783       0.00254269       0.05418184      -0.10898466       0.05604899       0.05418184      -0.10898466      -0.05604899       0.00298222      -0.00389629       0.00287473       0.00298222      -0.00389629      -0.00287473      -0.05418184      -0.10898466       0.05604899      -0.05418184      -0.10898466      -0.05604899      -0.00298222      -0.00389629       0.00287473      -0.00298222      -0.00389629      -0.00287473       0.00786409      -0.00590150      -0.00801281       0.00603014       0.00479349      -0.01655895       0.10855425       0.67535541      -0.10389174       0.00786409      -0.01231276       0.00158187       0.01693317       0.00653621      -0.00842219       0.00271529      -0.00263783      -0.00254269      -0.00055815      -0.01206999      -0.00674294       0.01693317       0.02748929      -0.01642314      -0.11501813       0.11305300      -0.05496215       0.11501813       0.11305300       0.05496215       0.11501813       0.11305300      -0.05496215      -0.11501813       0.11305300       0.05496215       0.00663399       0.00671651      -0.00279545      -0.00663399       0.00671651       0.00279545      -0.00663399       0.00671651      -0.00279545       0.00663399       0.00671651       0.00279545      -0.10855425       0.67535541      -0.10389174      -0.00786409      -0.01231276       0.00158187      -0.00786409      -0.00590150      -0.00801281      -0.00603014       0.00479349      -0.01655895       0.00055815      -0.01206999      -0.00674294      -0.01693317       0.02748929      -0.01642314      -0.01693317       0.00653621      -0.00842219      -0.00271529      -0.00263783      -0.00254269 </v>
    <v>      -0.00000000      -0.00000000      -3.31615866      -0.00000000      -0.00000000       0.00838472      -0.00000000      -0.00000000       0.00838472       0.00000000       0.00000000      -0.04782074       0.00000000      -0.00000000       0.01199608       0.00000000       0.00000000       0.00892857      -0.00000000       0.00000000       0.00892857       0.00000000       0.00000000       0.00416045       0.00158187       0.00801281      -0.01310408      -0.01655895       0.01655895       0.02916944      -0.10389174       0.10389174       0.68916166      -0.00801281      -0.00158187      -0.01310408      -0.01642314       0.00842219       0.00702257      -0.00254269       0.00254269      -0.00278075      -0.00674294       0.00674294      -0.00410740      -0.00842219       0.01642314       0.00702257       0.05604899      -0.12311984       0.11633848       0.00287473       0.00629392       0.00647888      -0.05604899       0.12311984       0.11633848      -0.00287473      -0.00629392       0.00647888       0.05604899       0.12311984       0.11633848       0.00287473      -0.00629392       0.00647888      -0.05604899      -0.12311984       0.11633848      -0.00287473       0.00629392       0.00647888       0.10389174       0.10389174       0.68916166       0.00801281      -0.00158187      -0.01310408      -0.00158187       0.00801281      -0.01310408       0.01655895       0.01655895       0.02916944       0.00674294       0.00674294      -0.00410740       0.00842219       0.01642314       0.00702257       0.01642314       0.00842219       0.00702257       0.00254269       0.00254269      -0.00278075       0.12311984      -0.05604899       0.11633848      -0.12311984       0.05604899       0.11633848      -0.00629392      -0.00287473       0.00647888       0.00629392       0.00287473       0.00647888      -0.12311984      -0.05604899       0.11633848       0.12311984       0.05604899       0.11633848       0.00629392      -0.00287473       0.00647888      -0.00629392       0.00287473       0.00647888       0.00158187      -0.00801281      -0.01310408      -0.01655895      -0.01655895       0.02916944      -0.10389174      -0.10389174       0.68916166      -0.00801281       0.00158187      -0.01310408      -0.01642314      -0.00842219       0.00702257      -0.00254269      -0.00254269      -0.00278075      -0.00674294      -0.00674294      -0.00410740      -0.00842219      -0.01642314       0.00702257      -0.05496215       0.05496215      -0.11193997      -0.05496215      -0.05496215      -0.11193997       0.05496215       0.05496215      -0.11193997       0.05496215      -0.05496215      -0.11193997      -0.00279545       0.00279545      -0.00467561      -0.00279545      -0.00279545      -0.00467561       0.00279545       0.00279545      -0.00467561       0.00279545      -0.00279545      -0.00467561       0.10389174      -0.10389174       0.68916166       0.00801281       0.00158187      -0.01310408      -0.00158187      -0.00801281      -0.01310408       0.01655895      -0.01655895       0.02916944       0.00674294      -0.00674294      -0.00410740       0.00842219      -0.01642314       0.00702257       0.01642314      -0.00842219       0.00702257       0.00254269      -0.00254269      -0.00278075 </v>
    <v>       0.01252966       0.00000000      -0.00000000      -3.25671538       0.00000000      -0.00000000       0.00799926       0.00000000       0.00000000       0.00744754      -0.00000000      -0.00000000       0.00865839       0.00000000       0.00000000       0.00693617       0.00000000       0.00000000       0.00399178       0.00000000       0.00000000      -0.04590862      -0.00000000      -0.00000000       0.00479349      -0.00603014      -0.01655895      -0.01231276      -0.00786409       0.00158187      -0.00590150      -0.00786409      -0.00801281       0.67535541      -0.10855425      -0.10389174      -0.00263783      -0.00271529      -0.00254269       0.02748929      -0.01693317      -0.01642314       0.00653621      -0.01693317      -0.00842219      -0.01206999       0.00055815      -0.00674294      -0.00389629       0.00298222      -0.00287473      -0.10898466       0.05418184      -0.05604899      -0.00389629       0.00298222       0.00287473      -0.10898466       0.05418184       0.05604899      -0.00389629      -0.00298222      -0.00287473      -0.10898466      -0.05418184      -0.05604899      -0.00389629      -0.00298222       0.00287473      -0.10898466      -0.05418184       0.05604899      -0.00590150       0.00786409       0.00801281       0.67535541       0.10855425       0.10389174       0.00479349       0.00603014       0.01655895      -0.01231276       0.00786409      -0.00158187       0.00653621       0.01693317       0.00842219      -0.01206999      -0.00055815       0.00674294      -0.00263783       0.00271529       0.00254269       0.02748929       0.01693317       0.01642314       0.11909241      -0.05418184      -0.12311984       0.11909241      -0.05418184       0.12311984       0.00653201      -0.00298222       0.00629392       0.00653201      -0.00298222      -0.00629392       0.11909241       0.05418184       0.12311984       0.11909241       0.05418184      -0.12311984       0.00653201       0.00298222      -0.00629392       0.00653201       0.00298222       0.00629392       0.00479349       0.00603014      -0.01655895      -0.01231276       0.00786409       0.00158187      -0.00590150       0.00786409      -0.00801281       0.67535541       0.10855425      -0.10389174      -0.00263783       0.00271529      -0.00254269       0.02748929       0.01693317      -0.01642314       0.00653621       0.01693317      -0.00842219      -0.01206999      -0.00055815      -0.00674294       0.11305300       0.11501813       0.05496215       0.11305300      -0.11501813       0.05496215       0.11305300      -0.11501813      -0.05496215       0.11305300       0.11501813      -0.05496215       0.00671651      -0.00663399       0.00279545       0.00671651       0.00663399       0.00279545       0.00671651       0.00663399      -0.00279545       0.00671651      -0.00663399      -0.00279545      -0.00590150      -0.00786409       0.00801281       0.67535541      -0.10855425       0.10389174       0.00479349      -0.00603014       0.01655895      -0.01231276      -0.00786409      -0.00158187       0.00653621      -0.01693317       0.00842219      -0.01206999       0.00055815       0.00674294      -0.00263783      -0.00271529       0.00254269       0.02748929      -0.01693317       0.01642314 </v>
    <v>       0.00000000       0.00744754      -0.00000000       0.00000000      -3.25671538      -0.00000000       0.00000000       0.00799926       0.00000000      -0.00000000       0.01252966      -0.00000000       0.00000000      -0.04590862       0.00000000       0.00000000       0.00693617      -0.00000000       0.00000000       0.00399178       0.00000000      -0.00000000       0.00865839       0.00000000      -0.00603014       0.00479349       0.01655895      -0.00786409      -0.00590150       0.00801281      -0.00786409      -0.01231276      -0.00158187      -0.10855425       0.67535541       0.10389174      -0.00271529      -0.00263783       0.00254269      -0.01693317       0.00653621       0.00842219      -0.01693317       0.02748929       0.01642314       0.00055815      -0.01206999       0.00674294      -0.00298222       0.00653201       0.00629392      -0.05418184       0.11909241      -0.12311984      -0.00298222       0.00653201      -0.00629392      -0.05418184       0.11909241       0.12311984       0.00298222       0.00653201      -0.00629392       0.05418184       0.11909241       0.12311984       0.00298222       0.00653201       0.00629392       0.05418184       0.11909241      -0.12311984       0.00786409      -0.01231276      -0.00158187       0.10855425       0.67535541       0.10389174       0.00603014       0.00479349       0.01655895       0.00786409      -0.00590150       0.00801281       0.01693317       0.02748929       0.01642314      -0.00055815      -0.01206999       0.00674294       0.00271529      -0.00263783       0.00254269       0.01693317       0.00653621       0.00842219       0.05418184      -0.10898466      -0.05604899       0.05418184      -0.10898466       0.05604899       0.00298222      -0.00389629      -0.00287473       0.00298222      -0.00389629       0.00287473      -0.05418184      -0.10898466      -0.05604899      -0.05418184      -0.10898466       0.05604899      -0.00298222      -0.00389629      -0.00287473      -0.00298222      -0.00389629       0.00287473       0.00603014       0.00479349      -0.01655895       0.00786409      -0.00590150      -0.00801281       0.00786409      -0.01231276       0.00158187       0.10855425       0.67535541      -0.10389174       0.00271529      -0.00263783      -0.00254269       0.01693317       0.00653621      -0.00842219       0.01693317       0.02748929      -0.01642314      -0.00055815      -0.01206999      -0.00674294       0.11501813       0.11305300       0.05496215      -0.11501813       0.11305300      -0.05496215      -0.11501813       0.11305300       0.05496215       0.11501813       0.11305300      -0.05496215      -0.00663399       0.00671651       0.00279545       0.00663399       0.00671651      -0.00279545       0.00663399       0.00671651       0.00279545      -0.00663399       0.00671651      -0.00279545      -0.00786409      -0.01231276       0.00158187      -0.10855425       0.67535541      -0.10389174      -0.00603014       0.00479349      -0.01655895      -0.00786409      -0.00590150      -0.00801281      -0.01693317       0.02748929      -0.01642314       0.00055815      -0.01206999      -0.00674294      -0.00271529      -0.00263783      -0.00254269      -0.01693317       0.00653621      -0.00842219 </v>
    <v>      -0.00000000      -0.00000000       0.00838472      -0.00000000      -0.00000000      -3.31615866       0.00000000       0.00000000      -0.04782074      -0.00000000      -0.00000000       0.00838472       0.00000000       0.00000000       0.00892857       0.00000000      -0.00000000       0.01199608       0.00000000       0.00000000       0.00416045      -0.00000000       0.00000000       0.00892857      -0.01655895       0.01655895       0.02916944       0.00158187       0.00801281      -0.01310408      -0.00801281      -0.00158187      -0.01310408      -0.10389174       0.10389174       0.68916166      -0.00254269       0.00254269      -0.00278075      -0.01642314       0.00842219       0.00702257      -0.00842219       0.01642314       0.00702257      -0.00674294       0.00674294      -0.00410740       0.00287473       0.00629392       0.00647888       0.05604899      -0.12311984       0.11633848      -0.00287473      -0.00629392       0.00647888      -0.05604899       0.12311984       0.11633848       0.00287473      -0.00629392       0.00647888       0.05604899       0.12311984       0.11633848      -0.00287473       0.00629392       0.00647888      -0.05604899      -0.12311984       0.11633848       0.00801281      -0.00158187      -0.01310408       0.10389174       0.10389174       0.68916166       0.01655895       0.01655895       0.02916944      -0.00158187       0.00801281      -0.01310408       0.00842219       0.01642314       0.00702257       0.00674294       0.00674294      -0.00410740       0.00254269       0.00254269      -0.00278075       0.01642314       0.00842219       0.00702257      -0.12311984       0.05604899       0.11633848       0.12311984      -0.05604899       0.11633848       0.00629392       0.00287473       0.00647888      -0.00629392      -0.00287473       0.00647888       0.12311984       0.05604899       0.11633848      -0.12311984      -0.05604899       0.11633848      -0.00629392       0.00287473       0.00647888       0.00629392      -0.00287473       0.00647888      -0.01655895      -0.01655895       0.02916944       0.00158187      -0.00801281      -0.01310408      -0.00801281       0.00158187      -0.01310408      -0.10389174      -0.10389174       0.68916166      -0.00254269      -0.00254269      -0.00278075      -0.01642314      -0.00842219       0.00702257      -0.00842219      -0.01642314       0.00702257      -0.00674294      -0.00674294      -0.00410740      -0.05496215      -0.05496215      -0.11193997      -0.05496215       0.05496215      -0.11193997       0.05496215      -0.05496215      -0.11193997       0.05496215       0.05496215      -0.11193997      -0.00279545      -0.00279545      -0.00467561      -0.00279545       0.00279545      -0.00467561       0.00279545      -0.00279545      -0.00467561       0.00279545       0.00279545      -0.00467561       0.00801281       0.00158187      -0.01310408       0.10389174      -0.10389174       0.68916166       0.01655895      -0.01655895       0.02916944      -0.00158187      -0.00801281      -0.01310408       0.00842219      -0.01642314       0.00702257       0.00674294      -0.00674294      -0.00410740       0.00254269      -0.00254269      -0.00278075       0.01642314      -0.00842219       0.00702257 </v>
    <v>       0.00744754      -0.00000000      -0.00000000       0.00799926       0.00000000       0.00000000      -3.25671538       0.00000000      -0.00000000       0.01252966       0.00000000      -0.00000000      -0.04590862      -0.00000000      -0.00000000       0.00399178       0.00000000       0.00000000       0.00693617       0.00000000       0.00000000       0.00865839       0.00000000       0.00000000       0.67535541      -0.10855425      -0.10389174      -0.00590150      -0.00786409      -0.00801281      -0.01231276      -0.00786409       0.00158187       0.00479349      -0.00603014      -0.01655895      -0.01206999       0.00055815      -0.00674294       0.00653621      -0.01693317      -0.00842219       0.02748929      -0.01693317      -0.01642314      -0.00263783      -0.00271529      -0.00254269      -0.10898466       0.05418184       0.05604899      -0.00389629       0.00298222       0.00287473      -0.10898466       0.05418184      -0.05604899      -0.00389629       0.00298222      -0.00287473      -0.10898466      -0.05418184       0.05604899      -0.00389629      -0.00298222       0.00287473      -0.10898466      -0.05418184      -0.05604899      -0.00389629      -0.00298222      -0.00287473      -0.01231276       0.00786409      -0.00158187       0.00479349       0.00603014       0.01655895       0.67535541       0.10855425       0.10389174      -0.00590150       0.00786409       0.00801281       0.02748929       0.01693317       0.01642314      -0.00263783       0.00271529       0.00254269      -0.01206999      -0.00055815       0.00674294       0.00653621       0.01693317       0.00842219       0.00653201      -0.00298222      -0.00629392       0.00653201      -0.00298222       0.00629392       0.11909241      -0.05418184       0.12311984       0.11909241      -0.05418184      -0.12311984       0.00653201       0.00298222       0.00629392       0.00653201       0.00298222      -0.00629392       0.11909241       0.05418184      -0.12311984       0.11909241       0.05418184       0.12311984       0.67535541       0.10855425      -0.10389174      -0.00590150       0.00786409      -0.00801281      -0.01231276       0.00786409       0.00158187       0.00479349       0.00603014      -0.01655895      -0.01206999      -0.00055815      -0.00674294       0.00653621       0.01693317      -0.00842219       0.02748929       0.01693317      -0.01642314      -0.00263783       0.00271529      -0.00254269       0.11305300       0.11501813      -0.05496215       0.11305300      -0.11501813      -0.05496215       0.11305300      -0.11501813       0.05496215       0.11305300       0.11501813       0.05496215       0.00671651      -0.00663399      -0.00279545       0.00671651       0.00663399      -0.00279545       0.00671651       0.00663399       0.00279545       0.00671651      -0.00663399       0.00279545      -0.01231276      -0.00786409      -0.00158187       0.00479349      -0.00603014       0.01655895       0.67535541      -0.10855425       0.10389174      -0.00590150      -0.00786409       0.00801281       0.02748929      -0.01693317       0.01642314      -0.00263783      -0.00271529       0.00254269      -0.01206999       0.00055815       0.00674294       0.00653621      -0.01693317       0.00842219 </v>
    <v>      -0.00000000       0.01252966      -0.00000000       0.00000000       0.00799926       0.00000000       0.00000000      -3.25671538      -0.00000000       0.00000000       0.00744754      -0.00000000      -0.00000000       0.00865839       0.00000000       0.00000000       0.00399178       0.00000000       0.00000000       0.00693617      -0.00000000       0.00000000      -0.04590862       0.00000000      -0.10855425       0.67535541       0.10389174      -0.00786409      -0.01231276      -0.00158187      -0.00786409      -0.00590150       0.00801281      -0.00603014       0.00479349       0.01655895       0.00055815      -0.01206999       0.00674294      -0.01693317       0.02748929       0.01642314      -0.01693317       0.00653621       0.00842219      -0.00271529      -0.00263783       0.00254269      -0.05418184       0.11909241       0.12311984      -0.00298222       0.00653201      -0.00629392      -0.05418184       0.11909241      -0.12311984      -0.00298222       0.00653201       0.00629392       0.05418184       0.11909241      -0.12311984       0.00298222       0.00653201       0.00629392       0.05418184       0.11909241       0.12311984       0.00298222       0.00653201      -0.00629392       0.00786409      -0.00590150       0.00801281       0.00603014       0.00479349       0.01655895       0.10855425       0.67535541       0.10389174       0.00786409      -0.01231276      -0.00158187       0.01693317       0.00653621       0.00842219       0.00271529      -0.00263783       0.00254269      -0.00055815      -0.01206999       0.00674294       0.01693317       0.02748929       0.01642314       0.00298222      -0.00389629       0.00287473       0.00298222      -0.00389629      -0.00287473       0.05418184      -0.10898466       0.05604899       0.05418184      -0.10898466      -0.05604899      -0.00298222      -0.00389629       0.00287473      -0.00298222      -0.00389629      -0.00287473      -0.05418184      -0.10898466       0.05604899      -0.05418184      -0.10898466      -0.05604899       0.10855425       0.67535541      -0.10389174       0.00786409      -0.01231276       0.00158187       0.00786409      -0.00590150      -0.00801281       0.00603014       0.00479349      -0.01655895      -0.00055815      -0.01206999      -0.00674294       0.01693317       0.02748929      -0.01642314       0.01693317       0.00653621      -0.00842219       0.00271529      -0.00263783      -0.00254269       0.11501813       0.11305300      -0.05496215      -0.11501813       0.11305300       0.05496215      -0.11501813       0.11305300      -0.05496215       0.11501813       0.11305300       0.05496215      -0.00663399       0.00671651      -0.00279545       0.00663399       0.00671651       0.00279545       0.00663399       0.00671651      -0.00279545      -0.00663399       0.00671651       0.00279545      -0.00786409      -0.00590150      -0.00801281      -0.00603014       0.00479349      -0.01655895      -0.10855425       0.67535541      -0.10389174      -0.00786409      -0.01231276       0.00158187      -0.01693317       0.00653621      -0.00842219      -0.00271529      -0.00263783      -0.00254269       0.00055815      -0.01206999      -0.00674294      -0.01693317       0.02748929      -0.01642314 </v>
[...]
      </set>
     </set>
    </set>
   </array>
  </eigenvalues>
  <separator name="orbital magnetization" >
   <v name="MAGDIPOLOUT">      0.00000000      0.00000000      0.00000000</v>
  </separator>
  <dos>
   <i name="efermi">      9.39763235 </i>
   <total>
    <array>
     <dimension dim="1">gridpoints</dimension>
     <dimension dim="2">spin</dimension>
     <field>energy</field>
     <field>total</field>
     <field>integrated</field>
     <set>
      <set comment="spin 1">
       <r>   -13.3725     0.0000     0.0000 </r>
       <r>   -13.2558     0.0000     0.0000 </r>
       <r>   -13.1391     0.0000     0.0000 </r>
       <r>   -13.0224     0.0000     0.0000 </r>
       <r>   -12.9057     0.0000     0.0000 </r>
       <r>   -12.7890     0.0000     0.0000 </r>
       <r>   -12.6723     0.0000     0.0000 </r>
       <r>   -12.5556     0.0000     0.0000 </r>
       <r>   -12.4389     0.0000     0.0000 </r>
       <r>   -12.3222     0.0000     0.0000 </r>
       <r>   -12.2055     0.0000     0.0000 </r>
       <r>   -12.0888     0.0000     0.0000 </r>
       <r>   -11.9721     0.0000     0.0000 </r>
       <r>   -11.8554     0.0107     0.0013 </r>
       <r>   -11.7387     0.2337     0.0285 </r>
       <r>   -11.6220     1.1345     0.1609 </r>
       <r>   -11.5053     2.0716     0.4027 </r>
       <r>   -11.3887     2.2677     0.6673 </r>
       <r>   -11.2720     1.7375     0.8701 </r>
       <r>   -11.1553     1.7420     1.0733 </r>
       <r>   -11.0386     5.4779     1.7126 </r>
       <r>   -10.9219     5.5213     2.3569 </r>
       <r>   -10.8052     1.4988     2.5318 </r>
       <r>   -10.6885     1.3391     2.6881 </r>
       <r>   -10.5718     3.9065     3.1439 </r>
       <r>   -10.4551     6.7547     3.9322 </r>
       <r>   -10.3384     5.5852     4.5839 </r>
       <r>   -10.2217     5.5572     5.2324 </r>
       <r>   -10.1050     2.6684     5.5438 </r>
       <r>    -9.9883     4.2576     6.0406 </r>
       <r>    -9.8716     8.2358     7.0017 </r>
       <r>    -9.7549     7.1068     7.8310 </r>
       <r>    -9.6382     0.4436     7.8828 </r>
       <r>    -9.5215     2.4332     8.1668 </r>
       <r>    -9.4048    10.3852     9.3787 </r>
       <r>    -9.2881     8.6812    10.3917 </r>
       <r>    -9.1714     6.8104    11.1865 </r>
       <r>    -9.0548     5.3680    11.8129 </r>
       <r>    -8.9381     8.4095    12.7942 </r>
       <r>    -8.8214     9.2760    13.8767 </r>
       <r>    -8.7047     4.4668    14.3979 </r>
       <r>    -8.5880     1.1356    14.5305 </r>
       <r>    -8.4713     5.5037    15.1727 </r>
       <r>    -8.3546     7.3152    16.0263 </r>
       <r>    -8.2379    14.6037    17.7305 </r>
       <r>    -8.1212    10.5002    18.9558 </r>
       <r>    -8.0045     3.2147    19.3310 </r>
       <r>    -7.8878    11.2303    20.6415 </r>
       <r>    -7.7711    12.5846    22.1101 </r>
       <r>    -7.6544     6.8544    22.9099 </r>
       <r>    -7.5377     2.5143    23.2033 </r>
       <r>    -7.4210     5.8321    23.8839 </r>
       <r>    -7.3043    13.1161    25.4145 </r>
       <r>    -7.1876     9.9320    26.5735 </r>
       <r>    -7.0709    12.0303    27.9774 </r>
       <r>    -6.9542     7.2910    28.8282 </r>
       <r>    -6.8375     7.5530    29.7096 </r>
       <r>    -6.7209    12.9805    31.2244 </r>
       <r>    -6.6042     7.6587    32.1181 </r>
       <r>    -6.4875     8.2413    33.0798 </r>
       <r>    -6.3708    16.5467    35.0107 </r>
       <r>    -6.2541    20.7298    37.4298 </r>
       <r>    -6.1374    10.0148    38.5985 </r>
       <r>    -6.0207    17.6589    40.6592 </r>
       <r>    -5.9040     6.3879    41.4046 </r>
       <r>    -5.7873     9.8298    42.5517 </r>
       <r>    -5.6706     7.7045    43.4508 </r>
       <r>    -5.5539    14.0862    45.0946 </r>
       <r>    -5.4372     6.0859    45.8048 </r>
       <r>    -5.3205    12.8047    47.2990 </r>
       <r>    -5.2038     9.0727    48.3578 </r>
       <r>    -5.0871    16.9182    50.3320 </r>
       <r>    -4.9704     7.0152    51.1507 </r>
       <r>    -4.8537     9.1040    52.2131 </r>
       <r>    -4.7370     6.6242    52.9861 </r>
       <r>    -4.6203    17.3949    55.0160 </r>
       <r>    -4.5037     7.2934    55.8671 </r>
       <r>    -4.3870    13.1318    57.3995 </r>
       <r>    -4.2703    10.2946    58.6008 </r>
       <r>    -4.1536     6.7722    59.3911 </r>
       <r>    -4.0369     1.7336    59.5934 </r>
       <r>    -3.9202     1.0594    59.7170 </r>
       <r>    -3.8035     4.6878    60.2641 </r>
       <r>    -3.6868     4.0838    60.7406 </r>
       <r>    -3.5701     4.4102    61.2553 </r>
       <r>    -3.4534    11.9832    62.6537 </r>
       <r>    -3.3367    10.6272    63.8938 </r>
       <r>    -3.2200    11.2515    65.2068 </r>
       <r>    -3.1033    10.4223    66.4230 </r>
       <r>    -2.9866    10.6451    67.6652 </r>
       <r>    -2.8699    16.0351    69.5365 </r>
       <r>    -2.7532    14.1867    71.1920 </r>
       <r>    -2.6365     5.7560    71.8637 </r>
       <r>    -2.5198     2.5506    72.1613 </r>
       <r>    -2.4031    16.7473    74.1156 </r>
       <r>    -2.2864    18.7269    76.3010 </r>
       <r>    -2.1698    11.0209    77.5870 </r>
       <r>    -2.0531    18.0223    79.6902 </r>
       <r>    -1.9364    24.4655    82.5452 </r>
       <r>    -1.8197    22.5951    85.1819 </r>
       <r>    -1.7030     4.3667    85.6915 </r>
       <r>    -1.5863    11.8342    87.0725 </r>
       <r>    -1.4696    27.4995    90.2815 </r>
       <r>    -1.3529    14.7294    92.0004 </r>
       <r>    -1.2362    18.2823    94.1338 </r>
       <r>    -1.1195    13.5143    95.7109 </r>
       <r>    -1.0028    10.8643    96.9787 </r>
       <r>    -0.8861     1.0335    97.0993 </r>
       <r>    -0.7694     2.6030    97.4030 </r>
       <r>    -0.6527     8.2508    98.3658 </r>
       <r>    -0.5360     9.7584    99.5046 </r>
       <r>    -0.4193    16.1028   101.3837 </r>
       <r>    -0.3026    12.7336   102.8696 </r>
       <r>    -0.1859     1.8767   103.0886 </r>
       <r>    -0.0692     0.4602   103.1424 </r>
       <r>     0.0475     8.6966   104.1572 </r>
       <r>     0.1641    11.7485   105.5282 </r>
       <r>     0.2808    14.6243   107.2348 </r>
       <r>     0.3975    16.8938   109.2062 </r>
       <r>     0.5142    24.8527   112.1064 </r>
       <r>     0.6309    16.5477   114.0374 </r>
       <r>     0.7476     6.8956   114.8421 </r>
       <r>     0.8643     7.5701   115.7255 </r>
       <r>     0.9810    23.9580   118.5213 </r>
       <r>     1.0977    17.7752   120.5956 </r>
       <r>     1.2144     9.6672   121.7237 </r>
       <r>     1.3311    23.8223   124.5036 </r>
       <r>     1.4478    19.3237   126.7586 </r>
       <r>     1.5645    27.2069   129.9335 </r>
       <r>     1.6812    19.8969   132.2554 </r>
       <r>     1.7979     7.7640   133.1614 </r>
       <r>     1.9146    11.0195   134.4473 </r>
       <r>     2.0313    13.0053   135.9650 </r>
       <r>     2.1480    26.9589   139.1109 </r>
       <r>     2.2647    15.6894   140.9418 </r>
       <r>     2.3814    20.1248   143.2903 </r>
       <r>     2.4980    14.8587   145.0242 </r>
       <r>     2.6147    16.7927   146.9838 </r>
       <r>     2.7314    34.7676   151.0410 </r>
       <r>     2.8481    37.7611   155.4476 </r>
       <r>     2.9648    33.0882   159.3088 </r>
       <r>     3.0815    19.1446   161.5429 </r>
       <r>     3.1982    14.7873   163.2685 </r>
       <r>     3.3149    16.3379   165.1750 </r>
       <r>     3.4316    19.1463   167.4093 </r>
       <r>     3.5483    16.2452   169.3050 </r>
       <r>     3.6650    25.3247   172.2603 </r>
       <r>     3.7817    40.1951   176.9509 </r>
       <r>     3.8984    39.1747   181.5223 </r>
       <r>     4.0151    31.4522   185.1927 </r>
       <r>     4.1318    26.6107   188.2980 </r>
       <r>     4.2485    19.7805   190.6063 </r>
       <r>     4.3652    14.6144   192.3117 </r>
       <r>     4.4819    18.8080   194.5065 </r>
       <r>     4.5986    20.2115   196.8651 </r>
       <r>     4.7152    27.1548   200.0339 </r>
       <r>     4.8319    24.7989   202.9278 </r>
       <r>     4.9486    15.8932   204.7825 </r>
       <r>     5.0653    28.8257   208.1463 </r>
       <r>     5.1820    29.8603   211.6308 </r>
       <r>     5.2987    28.4782   214.9541 </r>
       <r>     5.4154    25.5753   217.9386 </r>
       <r>     5.5321    13.0554   219.4621 </r>
       <r>     5.6488    19.5145   221.7393 </r>
       <r>     5.7655    19.6304   224.0301 </r>
       <r>     5.8822    17.3694   226.0570 </r>
       <r>     5.9989    20.6075   228.4618 </r>
       <r>     6.1156    18.2509   230.5916 </r>
       <r>     6.2323    26.7133   233.7089 </r>
       <r>     6.3490    28.5125   237.0361 </r>
       <r>     6.4657    23.4705   239.7750 </r>
       <r>     6.5824    10.0930   240.9528 </r>
       <r>     6.6991     6.6404   241.7277 </r>
       <r>     6.8158     6.6133   242.4995 </r>
       <r>     6.9325    10.2221   243.6923 </r>
       <r>     7.0491    11.4343   245.0267 </r>
       <r>     7.1658    13.4536   246.5966 </r>
       <r>     7.2825    10.4181   247.8124 </r>
       <r>     7.3992    14.7456   249.5331 </r>
       <r>     7.5159     9.9197   250.6907 </r>
       <r>     7.6326     5.6845   251.3540 </r>
       <r>     7.7493     0.6147   251.4258 </r>
       <r>     7.8660     3.3522   251.8170 </r>
       <r>     7.9827     4.6669   252.3616 </r>
       <r>     8.0994     8.1353   253.3109 </r>
       <r>     8.2161     5.3397   253.9340 </r>
       <r>     8.3328     7.0619   254.7581 </r>
       <r>     8.4495     3.2205   255.1339 </r>
       <r>     8.5662     1.9934   255.3666 </r>
       <r>     8.6829     1.5748   255.5503 </r>
       <r>     8.7996     1.2131   255.6919 </r>
       <r>     8.9163     2.2641   255.9561 </r>
       <r>     9.0330     0.1099   255.9689 </r>
       <r>     9.1497     0.1561   255.9871 </r>
       <r>     9.2664     0.1098   256.0000 </r>
       <r>     9.3830     0.0004   256.0000 </r>
       <r>     9.4997     0.0000   256.0000 </r>
       <r>     9.6164     0.0000   256.0000 </r>
       <r>     9.7331     0.0000   256.0000 </r>
       <r>     9.8498     0.0000   256.0000 </r>
       <r>     9.9665     0.0000   256.0000 </r>
       <r>    10.0832     0.0000   256.0000 </r>
       <r>    10.1999     0.0000   256.0000 </r>
       <r>    10.3166     0.0000   256.0000 </r>
       <r>    10.4333     0.0000   256.0000 </r>
       <r>    10.5500     0.0000   256.0000 </r>
       <r>    10.6667     0.0000   256.0000 </r>
       <r>    10.7834     0.0000   256.0000 </r>
       <r>    10.9001     0.0000   256.0000 </r>
       <r>    11.0168     0.0000   256.0000 </r>
       <r>    11.1335     0.0000   256.0000 </r>
       <r>    11.2502     0.0000   256.0000 </r>
       <r>    11.3669     0.0000   256.0000 </r>
       <r>    11.4836     0.0000   256.0000 </r>
       <r>    11.6002     0.0000   256.0000 </r>
       <r>    11.7169     0.0000   256.0000 </r>
       <r>    11.8336     0.0000   256.0000 </r>
       <r>    11.9503     0.0000   256.0000 </r>
       <r>    12.0670     0.0000   256.0000 </r>
       <r>    12.1837     0.0000   256.0000 </r>
       <r>    12.3004     0.0000   256.0000 </r>
       <r>    12.4171     0.0000   256.0000 </r>
       <r>    12.5338     0.0042   256.0005 </r>
       <r>    12.6505     0.3816   256.0450 </r>
       <r>    12.7672     0.7373   256.1311 </r>
       <r>    12.8839     0.4758   256.1866 </r>
       <r>    13.0006     0.4344   256.2373 </r>
       <r>    13.1173     1.3082   256.3899 </r>
       <r>    13.2340     2.9493   256.7341 </r>
       <r>    13.3507     4.9596   257.3129 </r>
       <r>    13.4674     4.7481   257.8669 </r>
       <r>    13.5841     5.1319   258.4658 </r>
       <r>    13.7008     7.5409   259.3458 </r>
       <r>    13.8175     8.4473   260.3315 </r>
       <r>    13.9341    13.7493   261.9360 </r>
       <r>    14.0508    11.4969   263.2776 </r>
       <r>    14.1675     5.3950   263.9072 </r>
       <r>    14.2842    11.5928   265.2600 </r>
       <r>    14.4009    15.3775   267.0545 </r>
       <r>    14.5176     6.5045   267.8135 </r>
       <r>    14.6343    12.1656   269.2332 </r>
       <r>    14.7510    23.1370   271.9332 </r>
       <r>    14.8677    15.0867   273.6937 </r>
       <r>    14.9844    13.8303   275.3077 </r>
       <r>    15.1011    23.1066   278.0041 </r>
       <r>    15.2178    20.6340   280.4120 </r>
       <r>    15.3345    17.3258   282.4338 </r>
       <r>    15.4512    22.3256   285.0391 </r>
       <r>    15.5679    23.1519   287.7408 </r>
       <r>    15.6846    20.8030   290.1684 </r>
       <r>    15.8013    22.8456   292.8344 </r>
       <r>    15.9180    20.7975   295.2613 </r>
       <r>    16.0347    16.4591   297.1820 </r>
       <r>    16.1514    12.4281   298.6323 </r>
       <r>    16.2680    24.4045   301.4802 </r>
       <r>    16.3847    24.2447   304.3094 </r>
       <r>    16.5014    36.9633   308.6229 </r>
       <r>    16.6181    28.8047   311.9842 </r>
       <r>    16.7348    45.8524   317.3350 </r>
       <r>    16.8515    52.9502   323.5140 </r>
       <r>    16.9682    33.8578   327.4650 </r>
       <r>    17.0849    22.5505   330.0965 </r>
       <r>    17.2016    39.2169   334.6729 </r>
       <r>    17.3183    34.1228   338.6549 </r>
       <r>    17.4350    23.6835   341.4187 </r>
       <r>    17.5517    30.5852   344.9878 </r>
       <r>    17.6684    38.2662   349.4533 </r>
       <r>    17.7851    35.7594   353.6262 </r>
       <r>    17.9018    28.7680   356.9833 </r>
       <r>    18.0185    18.2588   359.1140 </r>
       <r>    18.1352    26.7643   362.2372 </r>
       <r>    18.2519    36.0750   366.4470 </r>
       <r>    18.3686    32.7076   370.2638 </r>
       <r>    18.4852    28.6423   373.6062 </r>
       <r>    18.6019    15.4027   375.4037 </r>
       <r>    18.7186    16.5586   377.3360 </r>
       <r>    18.8353     8.3014   378.3047 </r>
       <r>    18.9520     6.9655   379.1175 </r>
       <r>    19.0687     7.0018   379.9346 </r>
       <r>    19.1854    14.8415   381.6665 </r>
       <r>    19.3021     5.7880   382.3420 </r>
       <r>    19.4188     3.4899   382.7492 </r>
       <r>    19.5355     3.0703   383.1075 </r>
       <r>    19.6522     3.0401   383.4623 </r>
       <r>    19.7689     1.7528   383.6668 </r>
       <r>    19.8856     0.7113   383.7498 </r>
       <r>    20.0023     0.3414   383.7897 </r>
       <r>    20.1190     1.7168   383.9900 </r>
       <r>    20.2357     0.0858   384.0000 </r>
       <r>    20.3524     0.0000   384.0000 </r>
       <r>    20.4691     0.0000   384.0000 </r>
       <r>    20.5858     0.0000   384.0000 </r>
       <r>    20.7025     0.0000   384.0000 </r>
       <r>    20.8191     0.0000   384.0000 </r>
       <r>    20.9358     0.0000   384.0000 </r>
       <r>    21.0525     0.0000   384.0000 </r>
       <r>    21.1692     0.0000   384.0000 </r>
       <r>    21.2859     0.0000   384.0000 </r>
       <r>    21.4026     0.0000   384.0000 </r>
       <r>    21.5193     0.0000   384.0000 </r>
       <r>    21.6360     0.0000   384.0000 </r>
      </set>
     </set>
    </array>
   </total>
  </dos>
 </calculation>
 <structure name="finalpos" >
  <crystal>
   <varray name="basis" >
    <v>       7.32218990       0.00000000       0.00000000 </v>
    <v>       0.00000000       7.32218990       0.00000000 </v>
    <v>       0.00000000       0.00000000       7.17999872 </v>
   </varray>
   <i name="volume">    384.95178947 </i>
   <varray name="rec_basis" >
    <v>       0.13657116       0.00000000       0.00000000 </v>
    <v>       0.00000000       0.13657116       0.00000000 </v>
    <v>       0.00000000       0.00000000       0.13927579 </v>
   </varray>
  </crystal>
  <varray name="positions" >
   <v>       0.12500000       0.37500000       0.12500000 </v>
   <v>       0.62500000       0.37500000       0.12500000 </v>
   <v>       0.12500000       0.87500000       0.12500000 </v>
   <v>       0.62500000       0.87500000       0.12500000 </v>
   <v>       0.12500000       0.37500000       0.62500000 </v>
   <v>       0.62500000       0.37500000       0.62500000 </v>
   <v>       0.12500000       0.87500000       0.62500000 </v>
   <v>       0.62500000       0.87500000       0.62500000 </v>
   <v>       0.00000000       0.00000000       0.25000000 </v>
   <v>       0.50000000       0.00000000       0.25000000 </v>
   <v>       0.00000000       0.50000000       0.25000000 </v>
   <v>       0.50000000       0.50000000       0.25000000 </v>
   <v>       0.00000000       0.00000000       0.75000000 </v>
   <v>       0.50000000       0.00000000       0.75000000 </v>
   <v>       0.00000000       0.50000000       0.75000000 </v>
   <v>       0.50000000       0.50000000       0.75000000 </v>
   <v>       0.12500000       0.12500000       0.37500000 </v>
   <v>       0.62500000       0.12500000       0.37500000 </v>
   <v>       0.12500000       0.62500000       0.37500000 </v>
   <v>       0.62500000       0.62500000       0.37500000 </v>
   <v>       0.12500000       0.12500000       0.87500000 </v>
   <v>       0.62500000       0.12500000       0.87500000 </v>
   <v>       0.12500000       0.62500000       0.87500000 </v>
   <v>       0.62500000       0.62500000       0.87500000 </v>
   <v>       0.00000000       0.25000000       0.00000000 </v>
   <v>       0.50000000       0.25000000       0.00000000 </v>
   <v>       0.00000000       0.75000000       0.00000000 </v>
   <v>       0.50000000       0.75000000       0.00000000 </v>
   <v>       0.00000000       0.25000000       0.50000000 </v>
   <v>       0.50000000       0.25000000       0.50000000 </v>
   <v>       0.00000000       0.75000000       0.50000000 </v>
   <v>       0.50000000       0.75000000       0.50000000 </v>
   <v>       0.37500000       0.37500000       0.37500000 </v>
   <v>       0.87500000       0.37500000       0.37500000 </v>
   <v>       0.37500000       0.87500000       0.37500000 </v>
   <v>       0.87500000       0.87500000       0.37500000 </v>
   <v>       0.37500000       0.37500000       0.87500000 </v>
   <v>       0.87500000       0.37500000       0.87500000 </v>
   <v>       0.37500000       0.87500000       0.87500000 </v>
   <v>       0.87500000       0.87500000       0.87500000 </v>
   <v>       0.25000000       0.00000000       0.00000000 </v>
   <v>       0.75000000       0.00000000       0.00000000 </v>
   <v>       0.25000000       0.50000000       0.00000000 </v>
   <v>       0.75000000       0.50000000       0.00000000 </v>
   <v>       0.25000000       0.00000000       0.50000000 </v>
   <v>       0.75000000       0.00000000       0.50000000 </v>
   <v>       0.25000000       0.50000000       0.50000000 </v>
   <v>       0.75000000       0.50000000       0.50000000 </v>
   <v>       0.37500000       0.12500000       0.12500000 </v>
   <v>       0.87500000       0.12500000       0.12500000 </v>
   <v>       0.37500000       0.62500000       0.12500000 </v>
   <v>       0.87500000       0.62500000       0.12500000 </v>
   <v>       0.37500000       0.12500000       0.62500000 </v>
   <v>       0.87500000       0.12500000       0.62500000 </v>
   <v>       0.37500000       0.62500000       0.62500000 </v>
   <v>       0.87500000       0.62500000       0.62500000 </v>
   <v>       0.25000000       0.25000000       0.25000000 </v>
   <v>       0.75000000       0.25000000       0.25000000 </v>
   <v>       0.25000000       0.75000000       0.25000000 </v>
   <v>       0.75000000       0.75000000       0.25000000 </v>
   <v>       0.25000000       0.25000000       0.75000000 </v>
   <v>       0.75000000       0.25000000       0.75000000 </v>
   <v>       0.25000000       0.75000000       0.75000000 </v>
   <v>       0.75000000       0.75000000       0.75000000 </v>
  </varray>
 </structure>
</modeling>
