  64  64   0   0
  0.6581988E+01  0.7496278E-09  0.7496278E-09  0.7496278E-09  0.5000000E-15
  1.000000000000000E-004
  CAR 
 unknown system                          
     19.41910333    -13.35550655  301      7.95481792      1.00000000
    -13.356  0.0000E+00  0.0000E+00
    -13.246  0.0000E+00  0.0000E+00
    -13.137  0.0000E+00  0.0000E+00
    -13.028  0.0000E+00  0.0000E+00
    -12.919  0.0000E+00  0.0000E+00
    -12.809  0.0000E+00  0.0000E+00
    -12.700  0.0000E+00  0.0000E+00
    -12.591  0.0000E+00  0.0000E+00
    -12.482  0.0000E+00  0.0000E+00
    -12.372  0.0000E+00  0.0000E+00
    -12.263  0.0000E+00  0.0000E+00
    -12.154  0.2068E-12  0.2260E-13
    -12.045  0.5196E-06  0.5676E-07
    -11.935  0.3887E-02  0.4247E-03
    -11.826  0.2960E+00  0.3276E-01
    -11.717  0.1213E+01  0.1652E+00
    -11.608  0.1813E+01  0.3633E+00
    -11.498  0.2481E+01  0.6344E+00
    -11.389  0.2689E+01  0.9282E+00
    -11.280  0.3034E+01  0.1260E+01
    -11.171  0.3679E+01  0.1661E+01
    -11.061  0.2985E+01  0.1988E+01
    -10.952  0.4573E+01  0.2487E+01
    -10.843  0.3980E+01  0.2922E+01
    -10.734  0.4405E+01  0.3403E+01
    -10.624  0.4559E+01  0.3901E+01
    -10.515  0.5364E+01  0.4487E+01
    -10.406  0.5182E+01  0.5053E+01
    -10.297  0.4033E+01  0.5494E+01
    -10.187  0.6371E+01  0.6190E+01
    -10.078  0.6425E+01  0.6892E+01
     -9.969  0.5089E+01  0.7448E+01
     -9.860  0.5977E+01  0.8101E+01
     -9.750  0.6399E+01  0.8800E+01
     -9.641  0.7261E+01  0.9593E+01
     -9.532  0.5577E+01  0.1020E+02
     -9.423  0.8128E+01  0.1109E+02
     -9.313  0.5473E+01  0.1169E+02
     -9.204  0.7341E+01  0.1249E+02
     -9.095  0.7770E+01  0.1334E+02
     -8.986  0.9376E+01  0.1436E+02
     -8.876  0.6335E+01  0.1506E+02
     -8.767  0.6444E+01  0.1576E+02
     -8.658  0.9495E+01  0.1680E+02
     -8.549  0.8067E+01  0.1768E+02
     -8.439  0.9359E+01  0.1870E+02
     -8.330  0.7741E+01  0.1955E+02
     -8.221  0.9300E+01  0.2056E+02
     -8.112  0.8754E+01  0.2152E+02
     -8.002  0.8677E+01  0.2247E+02
     -7.893  0.9518E+01  0.2351E+02
     -7.784  0.1069E+02  0.2467E+02
     -7.675  0.1108E+02  0.2589E+02
     -7.565  0.9195E+01  0.2689E+02
     -7.456  0.9647E+01  0.2794E+02
     -7.347  0.9023E+01  0.2893E+02
     -7.238  0.1388E+02  0.3045E+02
     -7.128  0.1173E+02  0.3173E+02
     -7.019  0.1200E+02  0.3304E+02
     -6.910  0.1233E+02  0.3439E+02
     -6.801  0.1541E+02  0.3607E+02
     -6.691  0.1239E+02  0.3742E+02
     -6.582  0.1425E+02  0.3898E+02
     -6.473  0.1147E+02  0.4023E+02
     -6.364  0.1473E+02  0.4184E+02
     -6.254  0.1523E+02  0.4351E+02
     -6.145  0.1157E+02  0.4477E+02
     -6.036  0.9655E+01  0.4582E+02
     -5.927  0.1313E+02  0.4726E+02
     -5.817  0.9505E+01  0.4830E+02
     -5.708  0.1188E+02  0.4960E+02
     -5.599  0.1306E+02  0.5102E+02
     -5.490  0.8537E+01  0.5196E+02
     -5.380  0.1172E+02  0.5324E+02
     -5.271  0.8698E+01  0.5419E+02
     -5.162  0.1034E+02  0.5532E+02
     -5.053  0.8947E+01  0.5629E+02
     -4.943  0.6035E+01  0.5695E+02
     -4.834  0.8280E+01  0.5786E+02
     -4.725  0.8959E+01  0.5884E+02
     -4.616  0.1012E+02  0.5994E+02
     -4.506  0.8654E+01  0.6089E+02
     -4.397  0.5950E+01  0.6154E+02
     -4.288  0.3558E+01  0.6193E+02
     -4.179  0.4037E+01  0.6237E+02
     -4.069  0.5063E+01  0.6292E+02
     -3.960  0.8146E+01  0.6381E+02
     -3.851  0.8271E+01  0.6471E+02
     -3.742  0.6044E+01  0.6537E+02
     -3.632  0.7807E+01  0.6623E+02
     -3.523  0.7093E+01  0.6700E+02
     -3.414  0.8995E+01  0.6798E+02
     -3.305  0.7993E+01  0.6886E+02
     -3.195  0.1026E+02  0.6998E+02
     -3.086  0.1576E+02  0.7170E+02
     -2.977  0.2389E+02  0.7431E+02
     -2.868  0.2799E+02  0.7737E+02
     -2.758  0.2064E+02  0.7962E+02
     -2.649  0.2092E+02  0.8191E+02
     -2.540  0.1513E+02  0.8356E+02
     -2.431  0.1607E+02  0.8532E+02
     -2.321  0.1637E+02  0.8711E+02
     -2.212  0.2237E+02  0.8955E+02
     -2.103  0.1513E+02  0.9120E+02
     -1.994  0.9375E+01  0.9223E+02
     -1.884  0.1168E+02  0.9350E+02
     -1.775  0.9397E+01  0.9453E+02
     -1.666  0.1133E+02  0.9577E+02
     -1.557  0.1055E+02  0.9692E+02
     -1.447  0.1348E+02  0.9839E+02
     -1.338  0.9020E+01  0.9938E+02
     -1.229  0.1017E+02  0.1005E+03
     -1.120  0.1203E+02  0.1018E+03
     -1.010  0.8447E+01  0.1027E+03
     -0.901  0.4398E+01  0.1032E+03
     -0.792  0.7415E+01  0.1040E+03
     -0.683  0.9371E+01  0.1050E+03
     -0.573  0.1106E+02  0.1062E+03
     -0.464  0.5879E+01  0.1069E+03
     -0.355  0.8223E+01  0.1078E+03
     -0.246  0.1158E+02  0.1091E+03
     -0.136  0.1376E+02  0.1106E+03
     -0.027  0.1252E+02  0.1119E+03
      0.082  0.1470E+02  0.1135E+03
      0.191  0.1734E+02  0.1154E+03
      0.301  0.1918E+02  0.1175E+03
      0.410  0.2357E+02  0.1201E+03
      0.519  0.1888E+02  0.1222E+03
      0.628  0.1609E+02  0.1239E+03
      0.738  0.1915E+02  0.1260E+03
      0.847  0.2064E+02  0.1283E+03
      0.956  0.1542E+02  0.1299E+03
      1.065  0.1793E+02  0.1319E+03
      1.175  0.2062E+02  0.1342E+03
      1.284  0.1809E+02  0.1361E+03
      1.393  0.2353E+02  0.1387E+03
      1.502  0.1848E+02  0.1407E+03
      1.612  0.1574E+02  0.1424E+03
      1.721  0.2314E+02  0.1450E+03
      1.830  0.2177E+02  0.1474E+03
      1.939  0.2432E+02  0.1500E+03
      2.049  0.2537E+02  0.1528E+03
      2.158  0.1818E+02  0.1548E+03
      2.267  0.2628E+02  0.1576E+03
      2.376  0.2910E+02  0.1608E+03
      2.486  0.2977E+02  0.1641E+03
      2.595  0.3285E+02  0.1677E+03
      2.704  0.2417E+02  0.1703E+03
      2.813  0.2874E+02  0.1734E+03
      2.923  0.2273E+02  0.1759E+03
      3.032  0.2886E+02  0.1791E+03
      3.141  0.3086E+02  0.1824E+03
      3.250  0.2556E+02  0.1852E+03
      3.360  0.2995E+02  0.1885E+03
      3.469  0.2380E+02  0.1911E+03
      3.578  0.1922E+02  0.1932E+03
      3.687  0.2829E+02  0.1963E+03
      3.797  0.3505E+02  0.2001E+03
      3.906  0.2261E+02  0.2026E+03
      4.015  0.1997E+02  0.2048E+03
      4.124  0.2427E+02  0.2074E+03
      4.234  0.2432E+02  0.2101E+03
      4.343  0.3319E+02  0.2137E+03
      4.452  0.2159E+02  0.2161E+03
      4.561  0.1923E+02  0.2182E+03
      4.671  0.2429E+02  0.2208E+03
      4.780  0.2304E+02  0.2233E+03
      4.889  0.2933E+02  0.2266E+03
      4.998  0.2392E+02  0.2292E+03
      5.108  0.1673E+02  0.2310E+03
      5.217  0.2084E+02  0.2333E+03
      5.326  0.2877E+02  0.2364E+03
      5.435  0.1899E+02  0.2385E+03
      5.545  0.1210E+02  0.2398E+03
      5.654  0.1587E+02  0.2415E+03
      5.763  0.1382E+02  0.2431E+03
      5.872  0.1493E+02  0.2447E+03
      5.982  0.1075E+02  0.2459E+03
      6.091  0.8843E+01  0.2468E+03
      6.200  0.1128E+02  0.2481E+03
      6.309  0.9722E+01  0.2491E+03
      6.419  0.9175E+01  0.2501E+03
      6.528  0.6152E+01  0.2508E+03
      6.637  0.7488E+01  0.2516E+03
      6.746  0.7232E+01  0.2524E+03
      6.856  0.6689E+01  0.2531E+03
      6.965  0.4196E+01  0.2536E+03
      7.074  0.5383E+01  0.2542E+03
      7.183  0.4201E+01  0.2546E+03
      7.292  0.4248E+01  0.2551E+03
      7.402  0.2866E+01  0.2554E+03
      7.511  0.2393E+01  0.2557E+03
      7.620  0.2193E+01  0.2559E+03
      7.729  0.7017E+00  0.2560E+03
      7.839  0.8181E-01  0.2560E+03
      7.948  0.2011E-03  0.2560E+03
      8.057  0.1922E-08  0.2560E+03
      8.166  0.2382E-16  0.2560E+03
      8.276  0.0000E+00  0.2560E+03
      8.385  0.0000E+00  0.2560E+03
      8.494  0.0000E+00  0.2560E+03
      8.603  0.0000E+00  0.2560E+03
      8.713  0.0000E+00  0.2560E+03
      8.822  0.0000E+00  0.2560E+03
      8.931  0.0000E+00  0.2560E+03
      9.040  0.0000E+00  0.2560E+03
      9.150  0.0000E+00  0.2560E+03
      9.259  0.0000E+00  0.2560E+03
      9.368  0.0000E+00  0.2560E+03
      9.477  0.0000E+00  0.2560E+03
      9.587  0.0000E+00  0.2560E+03
      9.696  0.0000E+00  0.2560E+03
      9.805  0.0000E+00  0.2560E+03
      9.914  0.0000E+00  0.2560E+03
     10.024  0.0000E+00  0.2560E+03
     10.133  0.0000E+00  0.2560E+03
     10.242  0.0000E+00  0.2560E+03
     10.351  0.0000E+00  0.2560E+03
     10.461  0.0000E+00  0.2560E+03
     10.570  0.0000E+00  0.2560E+03
     10.679  0.0000E+00  0.2560E+03
     10.788  0.0000E+00  0.2560E+03
     10.898  0.0000E+00  0.2560E+03
     11.007  0.0000E+00  0.2560E+03
     11.116  0.0000E+00  0.2560E+03
     11.225  0.4649E-13  0.2560E+03
     11.335  0.4095E-06  0.2560E+03
     11.444  0.6271E-02  0.2560E+03
     11.553  0.3574E+00  0.2560E+03
     11.662  0.1285E+01  0.2562E+03
     11.772  0.3450E+01  0.2566E+03
     11.881  0.4519E+01  0.2571E+03
     11.990  0.3155E+01  0.2574E+03
     12.099  0.4633E+01  0.2579E+03
     12.209  0.9580E+01  0.2589E+03
     12.318  0.9252E+01  0.2600E+03
     12.427  0.8968E+01  0.2609E+03
     12.536  0.5138E+01  0.2615E+03
     12.646  0.1108E+02  0.2627E+03
     12.755  0.1790E+02  0.2647E+03
     12.864  0.1458E+02  0.2663E+03
     12.973  0.1314E+02  0.2677E+03
     13.083  0.1523E+02  0.2694E+03
     13.192  0.1584E+02  0.2711E+03
     13.301  0.1382E+02  0.2726E+03
     13.410  0.1807E+02  0.2746E+03
     13.520  0.2567E+02  0.2774E+03
     13.629  0.2081E+02  0.2797E+03
     13.738  0.1521E+02  0.2813E+03
     13.847  0.2005E+02  0.2835E+03
     13.957  0.2119E+02  0.2858E+03
     14.066  0.2255E+02  0.2883E+03
     14.175  0.2288E+02  0.2908E+03
     14.284  0.2943E+02  0.2940E+03
     14.394  0.2346E+02  0.2966E+03
     14.503  0.2439E+02  0.2992E+03
     14.612  0.3161E+02  0.3027E+03
     14.721  0.3824E+02  0.3069E+03
     14.831  0.4197E+02  0.3114E+03
     14.940  0.3324E+02  0.3151E+03
     15.049  0.3289E+02  0.3187E+03
     15.158  0.4093E+02  0.3231E+03
     15.268  0.4077E+02  0.3276E+03
     15.377  0.3783E+02  0.3317E+03
     15.486  0.4265E+02  0.3364E+03
     15.595  0.4993E+02  0.3418E+03
     15.705  0.3023E+02  0.3451E+03
     15.814  0.2900E+02  0.3483E+03
     15.923  0.3587E+02  0.3522E+03
     16.032  0.2903E+02  0.3554E+03
     16.142  0.2791E+02  0.3584E+03
     16.251  0.3165E+02  0.3619E+03
     16.360  0.3579E+02  0.3658E+03
     16.469  0.3189E+02  0.3693E+03
     16.579  0.2596E+02  0.3721E+03
     16.688  0.1662E+02  0.3740E+03
     16.797  0.2355E+02  0.3765E+03
     16.906  0.1728E+02  0.3784E+03
     17.016  0.1627E+02  0.3802E+03
     17.125  0.1199E+02  0.3815E+03
     17.234  0.4962E+01  0.3820E+03
     17.343  0.3517E+01  0.3824E+03
     17.453  0.3750E+01  0.3828E+03
     17.562  0.2884E+01  0.3832E+03
     17.671  0.3421E+01  0.3835E+03
     17.780  0.2019E+01  0.3837E+03
     17.890  0.9320E+00  0.3838E+03
     17.999  0.1343E+01  0.3840E+03
     18.108  0.4235E-01  0.3840E+03
     18.217  0.5925E-05  0.3840E+03
     18.327  0.1836E-11  0.3840E+03
     18.436  0.0000E+00  0.3840E+03
     18.545  0.0000E+00  0.3840E+03
     18.654  0.0000E+00  0.3840E+03
     18.764  0.0000E+00  0.3840E+03
     18.873  0.0000E+00  0.3840E+03
     18.982  0.0000E+00  0.3840E+03
     19.091  0.0000E+00  0.3840E+03
     19.201  0.0000E+00  0.3840E+03
     19.310  0.0000E+00  0.3840E+03
     19.419  0.0000E+00  0.3840E+03
