mesh: [    48,    48,    48 ]
nqpoint: 2600   
reciprocal_lattice:
- [   0.26679907,   0.00000000,   0.00000000 ] # a*
- [   0.00000000,   0.26679907,   0.00000000 ] # b*
- [   0.00000000,   0.00000000,   0.26679907 ] # c*
natom:   8      
lattice:
- [     3.748139000000000,     0.000000000000000,     0.000000000000000 ] # a
- [     0.000000000000000,     3.748139000000000,     0.000000000000000 ] # b
- [     0.000000000000000,     0.000000000000000,     3.748139000000000 ] # c
points:
- symbol: C  # 1
  coordinates: [  0.250000000000000,  0.750000000000000,  0.250000000000000 ]
  mass: 12.010700
- symbol: C  # 2
  coordinates: [  0.000000000000000,  0.000000000000000,  0.500000000000000 ]
  mass: 12.010700
- symbol: C  # 3
  coordinates: [  0.250000000000000,  0.250000000000000,  0.750000000000000 ]
  mass: 12.010700
- symbol: C  # 4
  coordinates: [  0.000000000000000,  0.500000000000000,  0.000000000000000 ]
  mass: 12.010700
- symbol: C  # 5
  coordinates: [  0.750000000000000,  0.750000000000000,  0.750000000000000 ]
  mass: 12.010700
- symbol: C  # 6
  coordinates: [  0.500000000000000,  0.000000000000000,  0.000000000000000 ]
  mass: 12.010700
- symbol: C  # 7
  coordinates: [  0.750000000000000,  0.250000000000000,  0.250000000000000 ]
  mass: 12.010700
- symbol: C  # 8
  coordinates: [  0.500000000000000,  0.500000000000000,  0.500000000000000 ]
  mass: 12.010700

phonon:
- q-position: [    0.0104167,    0.0104167,    0.0104167 ]
  distance_from_gamma:  0.004813641
  weight: 8    
  band:
  - # 1
    frequency:     0.5385178821
  - # 2
    frequency:     0.5385178821
  - # 3
    frequency:     0.7457629078
  - # 4
    frequency:    22.3827331483
  - # 5
    frequency:    22.3827331483
  - # 6
    frequency:    22.3827331483
  - # 7
    frequency:    22.3917147611
  - # 8
    frequency:    22.3917147611
  - # 9
    frequency:    22.3917147611
  - # 10
    frequency:    24.9355028671
  - # 11
    frequency:    24.9355028671
  - # 12
    frequency:    24.9355028671
  - # 13
    frequency:    24.9375949435
  - # 14
    frequency:    24.9375949435
  - # 15
    frequency:    24.9375949435
  - # 16
    frequency:    31.0179939975
  - # 17
    frequency:    31.0179939975
  - # 18
    frequency:    31.0179939975
  - # 19
    frequency:    31.3050245645
  - # 20
    frequency:    31.3050245645
  - # 21
    frequency:    31.3050245645
  - # 22
    frequency:    33.4096873598
  - # 23
    frequency:    33.4096873598
  - # 24
    frequency:    33.4147179834

- q-position: [    0.0312500,    0.0104167,    0.0104167 ]
  distance_from_gamma:  0.009217421
  weight: 24   
  band:
  - # 1
    frequency:     1.0113792262
  - # 2
    frequency:     1.0213895801
  - # 3
    frequency:     1.4482911253
  - # 4
    frequency:    22.2980982319
  - # 5
    frequency:    22.3068728106
  - # 6
    frequency:    22.3866399764
  - # 7
    frequency:    22.3866399764
  - # 8
    frequency:    22.4135502331
  - # 9
    frequency:    22.4135502331
  - # 10
    frequency:    24.9341741045
  - # 11
    frequency:    24.9341741045
  - # 12
    frequency:    24.9405153806
  - # 13
    frequency:    24.9405153806
  - # 14
    frequency:    25.0104894702
  - # 15
    frequency:    25.0124053829
  - # 16
    frequency:    30.7150644976
  - # 17
    frequency:    31.0037718190
  - # 18
    frequency:    31.0037718190
  - # 19
    frequency:    31.2908342050
  - # 20
    frequency:    31.2908342050
  - # 21
    frequency:    31.5761440710
  - # 22
    frequency:    33.3984556081
  - # 23
    frequency:    33.3988806963
  - # 24
    frequency:    33.4190466659

- q-position: [    0.0520833,    0.0104167,    0.0104167 ]
  distance_from_gamma:  0.014440923
  weight: 24   
  band:
  - # 1
    frequency:     1.5770191089
  - # 2
    frequency:     1.5850590614
  - # 3
    frequency:     2.2826070061
  - # 4
    frequency:    22.1411579108
  - # 5
    frequency:    22.1496220334
  - # 6
    frequency:    22.4033349784
  - # 7
    frequency:    22.4033349784
  - # 8
    frequency:    22.4480777353
  - # 9
    frequency:    22.4480777353
  - # 10
    frequency:    24.9335561177
  - # 11
    frequency:    24.9335561177
  - # 12
    frequency:    24.9443622584
  - # 13
    frequency:    24.9443622584
  - # 14
    frequency:    25.1479964915
  - # 15
    frequency:    25.1496674204
  - # 16
    frequency:    30.3959792387
  - # 17
    frequency:    30.9754493572
  - # 18
    frequency:    30.9754493572
  - # 19
    frequency:    31.2625609176
  - # 20
    frequency:    31.2625609176
  - # 21
    frequency:    31.8316421362
  - # 22
    frequency:    33.3760129107
  - # 23
    frequency:    33.3765226362
  - # 24
    frequency:    33.4284100612

- q-position: [    0.0729167,    0.0104167,    0.0104167 ]
  distance_from_gamma:  0.019847151
  weight: 24   
  band:
  - # 1
    frequency:     2.1630907686
  - # 2
    frequency:     2.1697275885
  - # 3
    frequency:     3.1415945817
  - # 4
    frequency:    21.9287802792
  - # 5
    frequency:    21.9369358390
  - # 6
    frequency:    22.4325843108
  - # 7
    frequency:    22.4325843108
  - # 8
    frequency:    22.4950046053
  - # 9
    frequency:    22.4950046053
  - # 10
    frequency:    24.9336272711
  - # 11
    frequency:    24.9336272711
  - # 12
    frequency:    24.9492494029
  - # 13
    frequency:    24.9492494029
  - # 14
    frequency:    25.3309838259
  - # 15
    frequency:    25.3324547691
  - # 16
    frequency:    30.0606220989
  - # 17
    frequency:    30.9332712506
  - # 18
    frequency:    30.9332712506
  - # 19
    frequency:    31.2204201262
  - # 20
    frequency:    31.2204201262
  - # 21
    frequency:    32.0717017107
  - # 22
    frequency:    33.3424008637
  - # 23
    frequency:    33.3429483248
  - # 24
    frequency:    33.4423961678

- q-position: [    0.0937500,    0.0104167,    0.0104167 ]
  distance_from_gamma:  0.025319325
  weight: 24   
  band:
  - # 1
    frequency:     2.7556828009
  - # 2
    frequency:     2.7615179513
  - # 3
    frequency:     4.0071029132
  - # 4
    frequency:    21.6756926979
  - # 5
    frequency:    21.6835941067
  - # 6
    frequency:    22.4740148521
  - # 7
    frequency:    22.4740148521
  - # 8
    frequency:    22.5539081742
  - # 9
    frequency:    22.5539081742
  - # 10
    frequency:    24.9343939030
  - # 11
    frequency:    24.9343939030
  - # 12
    frequency:    24.9553115926
  - # 13
    frequency:    24.9553115926
  - # 14
    frequency:    25.5445694943
  - # 15
    frequency:    25.5459539338
  - # 16
    frequency:    29.7088846898
  - # 17
    frequency:    30.8776066634
  - # 18
    frequency:    30.8776066634
  - # 19
    frequency:    31.1647364239
  - # 20
    frequency:    31.1647364239
  - # 21
    frequency:    32.2965351405
  - # 22
    frequency:    33.2976818185
  - # 23
    frequency:    33.2982589024
  - # 24
    frequency:    33.4607899222

- q-position: [    0.1145833,    0.0104167,    0.0104167 ]
  distance_from_gamma:  0.030822342
  weight: 24   
  band:
  - # 1
    frequency:     3.3503395091
  - # 2
    frequency:     3.3557255538
  - # 3
    frequency:     4.8733414962
  - # 4
    frequency:    21.3924776863
  - # 5
    frequency:    21.4001903597
  - # 6
    frequency:    22.5271083567
  - # 7
    frequency:    22.5271083567
  - # 8
    frequency:    22.6242337106
  - # 9
    frequency:    22.6242337106
  - # 10
    frequency:    24.9358933680
  - # 11
    frequency:    24.9358933680
  - # 12
    frequency:    24.9627050796
  - # 13
    frequency:    24.9627050796
  - # 14
    frequency:    25.7780176116
  - # 15
    frequency:    25.7794696727
  - # 16
    frequency:    29.3406853189
  - # 17
    frequency:    30.8089521794
  - # 18
    frequency:    30.8089521794
  - # 19
    frequency:    31.0959454770
  - # 20
    frequency:    31.0959454770
  - # 21
    frequency:    32.5063720091
  - # 22
    frequency:    33.2419388267
  - # 23
    frequency:    33.2425455094
  - # 24
    frequency:    33.4833507934

- q-position: [    0.1354167,    0.0104167,    0.0104167 ]
  distance_from_gamma:  0.036342193
  weight: 24   
  band:
  - # 1
    frequency:     3.9450671112
  - # 2
    frequency:     3.9502139966
  - # 3
    frequency:     5.7375731295
  - # 4
    frequency:    21.0861405693
  - # 5
    frequency:    21.0937224470
  - # 6
    frequency:    22.5911934690
  - # 7
    frequency:    22.5911934690
  - # 8
    frequency:    22.7052908180
  - # 9
    frequency:    22.7052908180
  - # 10
    frequency:    24.9381970914
  - # 11
    frequency:    24.9381970914
  - # 12
    frequency:    24.9716094907
  - # 13
    frequency:    24.9716094907
  - # 14
    frequency:    26.0241341587
  - # 15
    frequency:    26.0258591034
  - # 16
    frequency:    28.9559856659
  - # 17
    frequency:    30.7279360777
  - # 18
    frequency:    30.7279360777
  - # 19
    frequency:    31.0145968346
  - # 20
    frequency:    31.0145968346
  - # 21
    frequency:    32.7014585322
  - # 22
    frequency:    33.1752755595
  - # 23
    frequency:    33.1759141247
  - # 24
    frequency:    33.5097900209

- q-position: [    0.1562500,    0.0104167,    0.0104167 ]
  distance_from_gamma:  0.041872222
  weight: 24   
  band:
  - # 1
    frequency:     4.5387313811
  - # 2
    frequency:     4.5437705322
  - # 3
    frequency:     6.5981114880
  - # 4
    frequency:    20.7611961122
  - # 5
    frequency:    20.7686926282
  - # 6
    frequency:    22.6654353821
  - # 7
    frequency:    22.6654353821
  - # 8
    frequency:    22.7962477501
  - # 9
    frequency:    22.7962477501
  - # 10
    frequency:    24.9414146030
  - # 11
    frequency:    24.9414146030
  - # 12
    frequency:    24.9822301503
  - # 13
    frequency:    24.9822301503
  - # 14
    frequency:    26.2781252770
  - # 15
    frequency:    26.2804471785
  - # 16
    frequency:    28.5548351940
  - # 17
    frequency:    30.6353243744
  - # 18
    frequency:    30.6353243744
  - # 19
    frequency:    30.9213578948
  - # 20
    frequency:    30.9213578948
  - # 21
    frequency:    32.8820578138
  - # 22
    frequency:    33.0978161958
  - # 23
    frequency:    33.0984896232
  - # 24
    frequency:    33.5397690672

- q-position: [    0.1770833,    0.0104167,    0.0104167 ]
  distance_from_gamma:  0.047408867
  weight: 24   
  band:
  - # 1
    frequency:     5.1305595902
  - # 2
    frequency:     5.1355768992
  - # 3
    frequency:     7.4537168920
  - # 4
    frequency:    20.4205501735
  - # 5
    frequency:    20.4279946047
  - # 6
    frequency:    22.7488229993
  - # 7
    frequency:    22.7488229993
  - # 8
    frequency:    22.8961230969
  - # 9
    frequency:    22.8961230969
  - # 10
    frequency:    24.9456992202
  - # 11
    frequency:    24.9456992202
  - # 12
    frequency:    24.9947998855
  - # 13
    frequency:    24.9947998855
  - # 14
    frequency:    26.5365528297
  - # 15
    frequency:    26.5401474516
  - # 16
    frequency:    28.1375315933
  - # 17
    frequency:    30.5320291263
  - # 18
    frequency:    30.5320291263
  - # 19
    frequency:    30.8170193674
  - # 20
    frequency:    30.8170193674
  - # 21
    frequency:    33.0097052714
  - # 22
    frequency:    33.0104166587
  - # 23
    frequency:    33.0484503093
  - # 24
    frequency:    33.5729016224

- q-position: [    0.1979167,    0.0104167,    0.0104167 ]
  distance_from_gamma:  0.052950052
  weight: 24   
  band:
  - # 1
    frequency:     5.7199517251
  - # 2
    frequency:     5.7250051009
  - # 3
    frequency:     8.3033716824
  - # 4
    frequency:    20.0660911211
  - # 5
    frequency:    20.0735065001
  - # 6
    frequency:    22.8401539143
  - # 7
    frequency:    22.8401539143
  - # 8
    frequency:    23.0037742002
  - # 9
    frequency:    23.0037742002
  - # 10
    frequency:    24.9512560027
  - # 11
    frequency:    24.9512560027
  - # 12
    frequency:    25.0095788460
  - # 13
    frequency:    25.0095788460
  - # 14
    frequency:    26.7958316505
  - # 15
    frequency:    26.8028733326
  - # 16
    frequency:    27.7055338805
  - # 17
    frequency:    30.4191196175
  - # 18
    frequency:    30.4191196175
  - # 19
    frequency:    30.7025026707
  - # 20
    frequency:    30.7025026707
  - # 21
    frequency:    32.9111074824
  - # 22
    frequency:    32.9118597996
  - # 23
    frequency:    33.2009343723
  - # 24
    frequency:    33.6087566718

- q-position: [    0.2187500,    0.0104167,    0.0104167 ]
  distance_from_gamma:  0.058494488
  weight: 24   
  band:
  - # 1
    frequency:     6.3063983348
  - # 2
    frequency:     6.3115275644
  - # 3
    frequency:     9.1461841283
  - # 4
    frequency:    19.6990639294
  - # 5
    frequency:    19.7064651001
  - # 6
    frequency:    22.9380184426
  - # 7
    frequency:    22.9380184426
  - # 8
    frequency:    23.1178816301
  - # 9
    frequency:    23.1178816301
  - # 10
    frequency:    24.9583524052
  - # 11
    frequency:    24.9583524052
  - # 12
    frequency:    25.0268499723
  - # 13
    frequency:    25.0268499723
  - # 14
    frequency:    27.0338798626
  - # 15
    frequency:    27.0671668580
  - # 16
    frequency:    27.2794414240
  - # 17
    frequency:    30.2978371601
  - # 18
    frequency:    30.2978371601
  - # 19
    frequency:    30.5788698139
  - # 20
    frequency:    30.5788698139
  - # 21
    frequency:    32.8022074315
  - # 22
    frequency:    32.8030034090
  - # 23
    frequency:    33.3398268391
  - # 24
    frequency:    33.6468620712

- q-position: [    0.2395833,    0.0104167,    0.0104167 ]
  distance_from_gamma:  0.064041329
  weight: 24   
  band:
  - # 1
    frequency:     6.8894410284
  - # 2
    frequency:     6.8946736182
  - # 3
    frequency:     9.9813430513
  - # 4
    frequency:    19.3203042255
  - # 5
    frequency:    19.3276996179
  - # 6
    frequency:    23.0407855351
  - # 7
    frequency:    23.0407855351
  - # 8
    frequency:    23.2369292158
  - # 9
    frequency:    23.2369292158
  - # 10
    frequency:    24.9673315287
  - # 11
    frequency:    24.9673315287
  - # 12
    frequency:    25.0469063691
  - # 13
    frequency:    25.0469063691
  - # 14
    frequency:    26.7631469987
  - # 15
    frequency:    27.3319676475
  - # 16
    frequency:    27.3457358376
  - # 17
    frequency:    30.1696142983
  - # 18
    frequency:    30.1696142983
  - # 19
    frequency:    30.4473364217
  - # 20
    frequency:    30.4473364217
  - # 21
    frequency:    32.6832093095
  - # 22
    frequency:    32.6840513880
  - # 23
    frequency:    33.4654636218
  - # 24
    frequency:    33.6867084351

- q-position: [    0.2604167,    0.0104167,    0.0104167 ]
  distance_from_gamma:  0.069590002
  weight: 24   
  band:
  - # 1
    frequency:     7.4686520731
  - # 2
    frequency:     7.4740068738
  - # 3
    frequency:    10.8080948426
  - # 4
    frequency:    18.9303859980
  - # 5
    frequency:    18.9377790567
  - # 6
    frequency:    23.1465958334
  - # 7
    frequency:    23.1465958334
  - # 8
    frequency:    23.3591798251
  - # 9
    frequency:    23.3591798251
  - # 10
    frequency:    24.9786266265
  - # 11
    frequency:    24.9786266265
  - # 12
    frequency:    25.0700249814
  - # 13
    frequency:    25.0700249814
  - # 14
    frequency:    26.2842092251
  - # 15
    frequency:    27.5964682726
  - # 16
    frequency:    27.6030423041
  - # 17
    frequency:    30.0360991256
  - # 18
    frequency:    30.0360991256
  - # 19
    frequency:    30.3092886468
  - # 20
    frequency:    30.3092886468
  - # 21
    frequency:    32.5543365004
  - # 22
    frequency:    32.5552268182
  - # 23
    frequency:    33.5782002859
  - # 24
    frequency:    33.7277532352

- q-position: [    0.2812500,    0.0104167,    0.0104167 ]
  distance_from_gamma:  0.075140100
  weight: 24   
  band:
  - # 1
    frequency:     8.0436233534
  - # 2
    frequency:     8.0491129026
  - # 3
    frequency:    11.6257312412
  - # 4
    frequency:    18.5297163649
  - # 5
    frequency:    18.5371066726
  - # 6
    frequency:    23.2533702258
  - # 7
    frequency:    23.2533702258
  - # 8
    frequency:    23.4826490493
  - # 9
    frequency:    23.4826490493
  - # 10
    frequency:    24.9927728344
  - # 11
    frequency:    24.9927728344
  - # 12
    frequency:    25.0964190057
  - # 13
    frequency:    25.0964190057
  - # 14
    frequency:    25.7832429905
  - # 15
    frequency:    27.8600225850
  - # 16
    frequency:    27.8645654377
  - # 17
    frequency:    29.8991850566
  - # 18
    frequency:    29.8991850566
  - # 19
    frequency:    30.1663047130
  - # 20
    frequency:    30.1663047130
  - # 21
    frequency:    32.4158310989
  - # 22
    frequency:    32.4167715055
  - # 23
    frequency:    33.6784125882
  - # 24
    frequency:    33.7694250294

- q-position: [    0.3020833,    0.0104167,    0.0104167 ]
  distance_from_gamma:  0.080691329
  weight: 24   
  band:
  - # 1
    frequency:     8.6139602814
  - # 2
    frequency:     8.6195923715
  - # 3
    frequency:    12.4335826352
  - # 4
    frequency:    18.1185975011
  - # 5
    frequency:    18.1259816609
  - # 6
    frequency:    23.3588450533
  - # 7
    frequency:    23.3588450533
  - # 8
    frequency:    23.6050834991
  - # 9
    frequency:    23.6050834991
  - # 10
    frequency:    25.0104068265
  - # 11
    frequency:    25.0104068265
  - # 12
    frequency:    25.1261605718
  - # 13
    frequency:    25.1261605718
  - # 14
    frequency:    25.2643851029
  - # 15
    frequency:    28.1220868484
  - # 16
    frequency:    28.1256714933
  - # 17
    frequency:    29.7610454276
  - # 18
    frequency:    29.7610454276
  - # 19
    frequency:    30.0201816522
  - # 20
    frequency:    30.0201816522
  - # 21
    frequency:    32.2679533310
  - # 22
    frequency:    32.2689454214
  - # 23
    frequency:    33.7664969532
  - # 24
    frequency:    33.8111277568

- q-position: [    0.3229167,    0.0104167,    0.0104167 ]
  distance_from_gamma:  0.086243470
  weight: 24   
  band:
  - # 1
    frequency:     9.1792785016
  - # 2
    frequency:     9.1850572634
  - # 3
    frequency:    13.2310143330
  - # 4
    frequency:    17.6972678005
  - # 5
    frequency:    17.7046401324
  - # 6
    frequency:    23.4606453506
  - # 7
    frequency:    23.4606453506
  - # 8
    frequency:    23.7239591860
  - # 9
    frequency:    23.7239591860
  - # 10
    frequency:    24.7283787532
  - # 11
    frequency:    25.0322361720
  - # 12
    frequency:    25.0322361720
  - # 13
    frequency:    25.1590677904
  - # 14
    frequency:    25.1590677904
  - # 15
    frequency:    28.3821815504
  - # 16
    frequency:    28.3852052776
  - # 17
    frequency:    29.6241702743
  - # 18
    frequency:    29.6241702743
  - # 19
    frequency:    29.8729672346
  - # 20
    frequency:    29.8729672346
  - # 21
    frequency:    32.1109808679
  - # 22
    frequency:    32.1120260362
  - # 23
    frequency:    33.8428708641
  - # 24
    frequency:    33.8522450363

- q-position: [    0.3437500,    0.0104167,    0.0104167 ]
  distance_from_gamma:  0.091796359
  weight: 24   
  band:
  - # 1
    frequency:     9.7392022730
  - # 2
    frequency:     9.7451289446
  - # 3
    frequency:    14.0174244887
  - # 4
    frequency:    17.2659296086
  - # 5
    frequency:    17.2732827067
  - # 6
    frequency:    23.5564017680
  - # 7
    frequency:    23.5564017680
  - # 8
    frequency:    23.8365284630
  - # 9
    frequency:    23.8365284630
  - # 10
    frequency:    24.1755205746
  - # 11
    frequency:    25.0589484829
  - # 12
    frequency:    25.0589484829
  - # 13
    frequency:    25.1945597700
  - # 14
    frequency:    25.1945597700
  - # 15
    frequency:    28.6398665155
  - # 16
    frequency:    28.6425192884
  - # 17
    frequency:    29.4913988178
  - # 18
    frequency:    29.4913988178
  - # 19
    frequency:    29.7269958416
  - # 20
    frequency:    29.7269958416
  - # 21
    frequency:    31.9452080232
  - # 22
    frequency:    31.9463075348
  - # 23
    frequency:    33.8921444138
  - # 24
    frequency:    33.9079731450

- q-position: [    0.3645833,    0.0104167,    0.0104167 ]
  distance_from_gamma:  0.097349866
  weight: 24   
  band:
  - # 1
    frequency:    10.2933639062
  - # 2
    frequency:    10.2994373940
  - # 3
    frequency:    14.7922429617
  - # 4
    frequency:    16.8247680658
  - # 5
    frequency:    16.8320932480
  - # 6
    frequency:    23.6060073449
  - # 7
    frequency:    23.6439026891
  - # 8
    frequency:    23.6439026891
  - # 9
    frequency:    23.9399544482
  - # 10
    frequency:    23.9399544482
  - # 11
    frequency:    25.0910237663
  - # 12
    frequency:    25.0910237663
  - # 13
    frequency:    25.2315024087
  - # 14
    frequency:    25.2315024087
  - # 15
    frequency:    28.8947247417
  - # 16
    frequency:    28.8971119017
  - # 17
    frequency:    29.3659347612
  - # 18
    frequency:    29.3659347612
  - # 19
    frequency:    29.5849246492
  - # 20
    frequency:    29.5849246492
  - # 21
    frequency:    31.7709448273
  - # 22
    frequency:    31.7720999114
  - # 23
    frequency:    33.9301815086
  - # 24
    frequency:    33.9622641120

- q-position: [    0.3854167,    0.0104167,    0.0104167 ]
  distance_from_gamma:  0.102903893
  weight: 24   
  band:
  - # 1
    frequency:    10.8414038986
  - # 2
    frequency:    10.8476211965
  - # 3
    frequency:    15.5549306988
  - # 4
    frequency:    16.3739639290
  - # 5
    frequency:    16.3812516059
  - # 6
    frequency:    23.0200160690
  - # 7
    frequency:    23.7212531259
  - # 8
    frequency:    23.7212531259
  - # 9
    frequency:    24.0315602078
  - # 10
    frequency:    24.0315602078
  - # 11
    frequency:    25.1284316220
  - # 12
    frequency:    25.1284316220
  - # 13
    frequency:    25.2680945611
  - # 14
    frequency:    25.2680945611
  - # 15
    frequency:    29.1463520631
  - # 16
    frequency:    29.1485379623
  - # 17
    frequency:    29.2513219682
  - # 18
    frequency:    29.2513219682
  - # 19
    frequency:    29.4497625908
  - # 20
    frequency:    29.4497625908
  - # 21
    frequency:    31.5885159743
  - # 22
    frequency:    31.5897279363
  - # 23
    frequency:    33.9657040132
  - # 24
    frequency:    34.0062255693

- q-position: [    0.4062500,    0.0104167,    0.0104167 ]
  distance_from_gamma:  0.108458359
  weight: 24   
  band:
  - # 1
    frequency:    11.3829715397
  - # 2
    frequency:    11.3893280504
  - # 3
    frequency:    15.9137022289
  - # 4
    frequency:    15.9209422086
  - # 5
    frequency:    16.3049793993
  - # 6
    frequency:    22.4177299049
  - # 7
    frequency:    23.7869968133
  - # 8
    frequency:    23.7869968133
  - # 9
    frequency:    24.1091616139
  - # 10
    frequency:    24.1091616139
  - # 11
    frequency:    25.1702614855
  - # 12
    frequency:    25.1702614855
  - # 13
    frequency:    25.3018678842
  - # 14
    frequency:    25.3018678842
  - # 15
    frequency:    29.1513463122
  - # 16
    frequency:    29.1513463122
  - # 17
    frequency:    29.3248796172
  - # 18
    frequency:    29.3248796172
  - # 19
    frequency:    29.3943507601
  - # 20
    frequency:    29.3963774336
  - # 21
    frequency:    31.3982596399
  - # 22
    frequency:    31.3995299984
  - # 23
    frequency:    33.9980555084
  - # 24
    frequency:    34.0403606284

- q-position: [    0.4270833,    0.0104167,    0.0104167 ]
  distance_from_gamma:  0.114013200
  weight: 24   
  band:
  - # 1
    frequency:    11.9177258366
  - # 2
    frequency:    11.9242156256
  - # 3
    frequency:    15.4441779892
  - # 4
    frequency:    15.4513597340
  - # 5
    frequency:    17.0419113107
  - # 6
    frequency:    21.7993486775
  - # 7
    frequency:    23.8401612248
  - # 8
    frequency:    23.8401612248
  - # 9
    frequency:    24.1713590939
  - # 10
    frequency:    24.1713590939
  - # 11
    frequency:    25.2144336018
  - # 12
    frequency:    25.2144336018
  - # 13
    frequency:    25.3298778809
  - # 14
    frequency:    25.3298778809
  - # 15
    frequency:    29.0698178203
  - # 16
    frequency:    29.0698178203
  - # 17
    frequency:    29.2139821383
  - # 18
    frequency:    29.2139821383
  - # 19
    frequency:    29.6383258742
  - # 20
    frequency:    29.6402221097
  - # 21
    frequency:    31.2005261739
  - # 22
    frequency:    31.2018568254
  - # 23
    frequency:    34.0265790602
  - # 24
    frequency:    34.0651933290

- q-position: [    0.4479167,    0.0104167,    0.0104167 ]
  distance_from_gamma:  0.119568364
  weight: 24   
  band:
  - # 1
    frequency:    12.4453366482
  - # 2
    frequency:    12.4519526503
  - # 3
    frequency:    14.9655998448
  - # 4
    frequency:    14.9727126885
  - # 5
    frequency:    17.7652790644
  - # 6
    frequency:    21.1650939564
  - # 7
    frequency:    23.8802111151
  - # 8
    frequency:    23.8802111151
  - # 9
    frequency:    24.2176200856
  - # 10
    frequency:    24.2176200856
  - # 11
    frequency:    25.2576710134
  - # 12
    frequency:    25.2576710134
  - # 13
    frequency:    25.3491432236
  - # 14
    frequency:    25.3491432236
  - # 15
    frequency:    29.0101695331
  - # 16
    frequency:    29.0101695331
  - # 17
    frequency:    29.1210635783
  - # 18
    frequency:    29.1210635783
  - # 19
    frequency:    29.8778833840
  - # 20
    frequency:    29.8796695619
  - # 21
    frequency:    30.9956766766
  - # 22
    frequency:    30.9970700946
  - # 23
    frequency:    34.0506205728
  - # 24
    frequency:    34.0812680404

- q-position: [    0.4687500,    0.0104167,    0.0104167 ]
  distance_from_gamma:  0.125123808
  weight: 24   
  band:
  - # 1
    frequency:    12.9654859345
  - # 2
    frequency:    12.9722201286
  - # 3
    frequency:    14.4781921365
  - # 4
    frequency:    14.4852254732
  - # 5
    frequency:    18.4746654864
  - # 6
    frequency:    20.5152118916
  - # 7
    frequency:    23.9069313848
  - # 8
    frequency:    23.9069313848
  - # 9
    frequency:    24.2480781559
  - # 10
    frequency:    24.2480781559
  - # 11
    frequency:    25.2957118553
  - # 12
    frequency:    25.2957118553
  - # 13
    frequency:    25.3574177075
  - # 14
    frequency:    25.3574177075
  - # 15
    frequency:    28.9746887438
  - # 16
    frequency:    28.9746887438
  - # 17
    frequency:    29.0505041177
  - # 18
    frequency:    29.0505041177
  - # 19
    frequency:    30.1126296619
  - # 20
    frequency:    30.1143205387
  - # 21
    frequency:    30.7840814752
  - # 22
    frequency:    30.7855409556
  - # 23
    frequency:    34.0695318758
  - # 24
    frequency:    34.0891486262

- q-position: [    0.4895833,    0.0104167,    0.0104167 ]
  distance_from_gamma:  0.130679496
  weight: 24   
  band:
  - # 1
    frequency:    13.4778690363
  - # 2
    frequency:    13.4847125994
  - # 3
    frequency:    13.9821958979
  - # 4
    frequency:    13.9891393485
  - # 5
    frequency:    19.1696833441
  - # 6
    frequency:    19.8499749924
  - # 7
    frequency:    23.9202837430
  - # 8
    frequency:    23.9202837430
  - # 9
    frequency:    24.2631481489
  - # 10
    frequency:    24.2631481489
  - # 11
    frequency:    25.3225309453
  - # 12
    frequency:    25.3225309453
  - # 13
    frequency:    25.3553008815
  - # 14
    frequency:    25.3553008815
  - # 15
    frequency:    28.9621625995
  - # 16
    frequency:    28.9621625995
  - # 17
    frequency:    29.0086188678
  - # 18
    frequency:    29.0086188678
  - # 19
    frequency:    30.3421718021
  - # 20
    frequency:    30.3437782147
  - # 21
    frequency:    30.5661185290
  - # 22
    frequency:    30.5676484979
  - # 23
    frequency:    34.0826735317
  - # 24
    frequency:    34.0894173531

- q-position: [    0.0312500,    0.0312500,    0.0104167 ]
  distance_from_gamma:  0.012114064
  weight: 24   
  band:
  - # 1
    frequency:     1.3277107697
  - # 2
    frequency:     1.3687346370
  - # 3
    frequency:     1.8838459860
  - # 4
    frequency:    22.3020008501
  - # 5
    frequency:    22.3020008501
  - # 6
    frequency:    22.3283921773
  - # 7
    frequency:    22.3283921773
  - # 8
    frequency:    22.3725635484
  - # 9
    frequency:    22.4531016575
  - # 10
    frequency:    24.9286812979
  - # 11
    frequency:    24.9475639362
  - # 12
    frequency:    25.0092435336
  - # 13
    frequency:    25.0092435336
  - # 14
    frequency:    25.0154561580
  - # 15
    frequency:    25.0154561580
  - # 16
    frequency:    30.7016536980
  - # 17
    frequency:    30.7016536980
  - # 18
    frequency:    30.9875183692
  - # 19
    frequency:    31.2788381086
  - # 20
    frequency:    31.5613828013
  - # 21
    frequency:    31.5613828013
  - # 22
    frequency:    33.3874376989
  - # 23
    frequency:    33.3898013725
  - # 24
    frequency:    33.4214699896

- q-position: [    0.0520833,    0.0312500,    0.0104167 ]
  distance_from_gamma:  0.016441714
  weight: 48   
  band:
  - # 1
    frequency:     1.7970731658
  - # 2
    frequency:     1.8427292138
  - # 3
    frequency:     2.5678658395
  - # 4
    frequency:    22.1450700324
  - # 5
    frequency:    22.1706880543
  - # 6
    frequency:    22.3183569284
  - # 7
    frequency:    22.3626255045
  - # 8
    frequency:    22.3713028298
  - # 9
    frequency:    22.5050516429
  - # 10
    frequency:    24.9238989817
  - # 11
    frequency:    24.9555040994
  - # 12
    frequency:    25.0082123499
  - # 13
    frequency:    25.0201289811
  - # 14
    frequency:    25.1468069676
  - # 15
    frequency:    25.1528772017
  - # 16
    frequency:    30.3833968126
  - # 17
    frequency:    30.6749635577
  - # 18
    frequency:    30.9552546518
  - # 19
    frequency:    31.2548318911
  - # 20
    frequency:    31.5319627096
  - # 21
    frequency:    31.8165478534
  - # 22
    frequency:    33.3651782719
  - # 23
    frequency:    33.3686660016
  - # 24
    frequency:    33.4294989645

- q-position: [    0.0729167,    0.0312500,    0.0104167 ]
  distance_from_gamma:  0.021347110
  weight: 48   
  band: