       N       E                     dE             d eps       ncg     rms          rms(c)
DAV:   1     0.496351044440E+03    0.49635E+03   -0.11124E+05 13440   0.104E+03
DAV:   2    -0.540058068077E+03   -0.10364E+04   -0.98595E+03 17984   0.222E+02
DAV:   3    -0.584293934821E+03   -0.44236E+02   -0.43940E+02 17920   0.431E+01
DAV:   4    -0.584895811522E+03   -0.60188E+00   -0.60088E+00 18368   0.541E+00
DAV:   5    -0.584906627672E+03   -0.10816E-01   -0.10812E-01 16832   0.720E-01    0.224E+01
DAV:   6    -0.575738479841E+03    0.91681E+01   -0.62928E+00 15968   0.481E+00    0.126E+01
DAV:   7    -0.572632823807E+03    0.31057E+01   -0.75701E+00 16256   0.544E+00    0.180E+00
DAV:   8    -0.572677463056E+03   -0.44639E-01   -0.18048E-01 17120   0.828E-01    0.194E-01
DAV:   9    -0.572679715689E+03   -0.22526E-02   -0.37138E-03 17600   0.141E-01    0.731E-02
DAV:  10    -0.572680182604E+03   -0.46692E-03   -0.48469E-04 16640   0.553E-02    0.752E-03
DAV:  11    -0.572680183943E+03   -0.13391E-05   -0.11604E-05 17664   0.727E-03    0.193E-03
DAV:  12    -0.572680184690E+03   -0.74633E-06   -0.70615E-07 17088   0.193E-03    0.354E-04
DAV:  13    -0.572680184795E+03   -0.10534E-06   -0.15997E-08 13888   0.277E-04    0.278E-04
DAV:  14    -0.572680184790E+03    0.53860E-08   -0.20543E-09 12000   0.104E-04
   1 F= -.57268018E+03 E0= -.57268018E+03  d E =-.542060E-11
 Linear response reoptimize wavefunctions
DAV:   1    -0.572680184790E+03    0.61846E-10   -0.51198E-10 10752   0.497E-05
 Linear response DOF=           1
 Linear response progress:
  Degree of freedom:   1/  1
       N       E                     dE             d eps       ncg     rms          rms(c)
RMM:   1    -0.135889655422E+00   -0.13589E+00    0.13294E-02110677   0.691E-01
RMM:   2    -0.118683719784E+00    0.17206E-01   -0.70047E-03 68823   0.178E-01    0.144E-01
RMM:   3    -0.118667573427E+00    0.16146E-04   -0.55536E-04 72438   0.396E-02    0.765E-02
RMM:   4    -0.118835624547E+00   -0.16805E-03   -0.13853E-04 73113   0.207E-02    0.244E-02
RMM:   5    -0.118885384439E+00   -0.49760E-04   -0.10408E-05 73636   0.624E-03    0.579E-03
RMM:   6    -0.118866116012E+00    0.19268E-04   -0.10968E-06 75142   0.182E-03    0.123E-03
RMM:   7    -0.118857980557E+00    0.81355E-05   -0.66223E-07 76120   0.640E-04    0.342E-04
RMM:   8    -0.118857639104E+00    0.34145E-06   -0.81401E-07 79902   0.319E-04    0.897E-05
RMM:   9    -0.118857404193E+00    0.23491E-06   -0.86035E-07 84050   0.250E-04    0.390E-05
RMM:  10    -0.118857561349E+00   -0.15716E-06   -0.11578E-06 85616   0.241E-04    0.126E-05
RMM:  11    -0.118857566247E+00   -0.48980E-08   -0.11410E-06 86245   0.239E-04    0.499E-06
 Linear response finished
