# Thermal properties / unit cell (natom)

unit:
  temperature:   K
  free_energy:   kJ/mol
  entropy:       J/K/mol
  heat_capacity: J/K/mol

natom: 8    
cutoff_frequency:    0.000
num_modes: 2654208
num_integrated_modes: 2654208

zero_point_energy:     119.2531548
high_T_entropy:        462.0996840

thermal_properties:
- temperature:         0.0000000
  free_energy:       119.2531548
  entropy:             0.0000000
  heat_capacity:       0.0000000
  energy:            119.2531548

- temperature:         2.0000000
  free_energy:       119.2531548
  entropy:             0.0000000
  heat_capacity:       0.0000000
  energy:            119.2531548

- temperature:         4.0000000
  free_energy:       119.2531548
  entropy:             0.0000151
  heat_capacity:       0.0000878
  energy:            119.2531549

- temperature:         6.0000000
  free_energy:       119.2531547
  entropy:             0.0001089
  heat_capacity:       0.0004488
  energy:            119.2531554

- temperature:         8.0000000
  free_energy:       119.2531543
  entropy:             0.0003234
  heat_capacity:       0.0011362
  energy:            119.2531569

- temperature:        10.0000000
  free_energy:       119.2531533
  entropy:             0.0006871
  heat_capacity:       0.0022442
  energy:            119.2531602

- temperature:        12.0000000
  free_energy:       119.2531514
  entropy:             0.0012326
  heat_capacity:       0.0038881
  energy:            119.2531662

- temperature:        14.0000000
  free_energy:       119.2531482
  entropy:             0.0019952
  heat_capacity:       0.0061823
  energy:            119.2531762

- temperature:        16.0000000
  free_energy:       119.2531433
  entropy:             0.0030112
  heat_capacity:       0.0092400
  energy:            119.2531915

- temperature:        18.0000000
  free_energy:       119.2531360
  entropy:             0.0043175
  heat_capacity:       0.0131747
  energy:            119.2532137

- temperature:        20.0000000
  free_energy:       119.2531258
  entropy:             0.0059514
  heat_capacity:       0.0181008
  energy:            119.2532448

- temperature:        22.0000000
  free_energy:       119.2531120
  entropy:             0.0079503
  heat_capacity:       0.0241348
  energy:            119.2532869

- temperature:        24.0000000
  free_energy:       119.2530937
  entropy:             0.0103522
  heat_capacity:       0.0313951
  energy:            119.2533422

- temperature:        26.0000000
  free_energy:       119.2530703
  entropy:             0.0131957
  heat_capacity:       0.0400025
  energy:            119.2534133

- temperature:        28.0000000
  free_energy:       119.2530406
  entropy:             0.0165195
  heat_capacity:       0.0500807
  energy:            119.2535032

- temperature:        30.0000000
  free_energy:       119.2530038
  entropy:             0.0203634
  heat_capacity:       0.0617568
  energy:            119.2536147

- temperature:        32.0000000
  free_energy:       119.2529588
  entropy:             0.0247673
  heat_capacity:       0.0751615
  energy:            119.2537513

- temperature:        34.0000000
  free_energy:       119.2529044
  entropy:             0.0297723
  heat_capacity:       0.0904299
  energy:            119.2539166

- temperature:        36.0000000
  free_energy:       119.2528393
  entropy:             0.0354202
  heat_capacity:       0.1077020
  energy:            119.2541144

- temperature:        38.0000000
  free_energy:       119.2527622
  entropy:             0.0417536
  heat_capacity:       0.1271237
  energy:            119.2543489

- temperature:        40.0000000
  free_energy:       119.2526718
  entropy:             0.0488164
  heat_capacity:       0.1488479
  energy:            119.2546244

- temperature:        42.0000000
  free_energy:       119.2525664
  entropy:             0.0566536
  heat_capacity:       0.1730351
  energy:            119.2549459

- temperature:        44.0000000
  free_energy:       119.2524446
  entropy:             0.0653117
  heat_capacity:       0.1998548
  energy:            119.2553183

- temperature:        46.0000000
  free_energy:       119.2523046
  entropy:             0.0748385
  heat_capacity:       0.2294869
  energy:            119.2557472

- temperature:        48.0000000
  free_energy:       119.2521446
  entropy:             0.0852840
  heat_capacity:       0.2621223
  energy:            119.2562383

- temperature:        50.0000000
  free_energy:       119.2519628
  entropy:             0.0966996
  heat_capacity:       0.2979645
  energy:            119.2567978

- temperature:        52.0000000
  free_energy:       119.2517572
  entropy:             0.1091394
  heat_capacity:       0.3372301
  energy:            119.2574324

- temperature:        54.0000000
  free_energy:       119.2515255
  entropy:             0.1226596
  heat_capacity:       0.3801493
  energy:            119.2581492

- temperature:        56.0000000
  free_energy:       119.2512658
  entropy:             0.1373187
  heat_capacity:       0.4269668
  energy:            119.2589556

- temperature:        58.0000000
  free_energy:       119.2509755
  entropy:             0.1531781
  heat_capacity:       0.4779411
  energy:            119.2598598

- temperature:        60.0000000
  free_energy:       119.2506522
  entropy:             0.1703019
  heat_capacity:       0.5333443
  energy:            119.2608703

- temperature:        62.0000000
  free_energy:       119.2502934
  entropy:             0.1887572
  heat_capacity:       0.5934617
  energy:            119.2619963

- temperature:        64.0000000
  free_energy:       119.2498962
  entropy:             0.2086135
  heat_capacity:       0.6585904
  energy:            119.2632475

- temperature:        66.0000000
  free_energy:       119.2494579
  entropy:             0.2299438
  heat_capacity:       0.7290382
  energy:            119.2646342

- temperature:        68.0000000
  free_energy:       119.2489754
  entropy:             0.2528233
  heat_capacity:       0.8051221
  energy:            119.2661674

- temperature:        70.0000000
  free_energy:       119.2484456
  entropy:             0.2773304
  heat_capacity:       0.8871663
  energy:            119.2678587

- temperature:        72.0000000
  free_energy:       119.2478650
  entropy:             0.3035459
  heat_capacity:       0.9755006
  energy:            119.2697203

- temperature:        74.0000000
  free_energy:       119.2472302
  entropy:             0.3315530
  heat_capacity:       1.0704583
  energy:            119.2717651

- temperature:        76.0000000
  free_energy:       119.2465375
  entropy:             0.3614374
  heat_capacity:       1.1723745
  energy:            119.2740068

- temperature:        78.0000000
  free_energy:       119.2457831
  entropy:             0.3932865
  heat_capacity:       1.2815836
  energy:            119.2764595

- temperature:        80.0000000
  free_energy:       119.2449630
  entropy:             0.4271897
  heat_capacity:       1.3984178
  energy:            119.2791382

- temperature:        82.0000000
  free_energy:       119.2440729
  entropy:             0.4632379
  heat_capacity:       1.5232054
  energy:            119.2820584

- temperature:        84.0000000
  free_energy:       119.2431086
  entropy:             0.5015233
  heat_capacity:       1.6562684
  energy:            119.2852365

- temperature:        86.0000000
  free_energy:       119.2420653
  entropy:             0.5421390
  heat_capacity:       1.7979216
  energy:            119.2886892

- temperature:        88.0000000
  free_energy:       119.2409384
  entropy:             0.5851789
  heat_capacity:       1.9484707
  energy:            119.2924341

- temperature:        90.0000000
  free_energy:       119.2397229
  entropy:             0.6307373
  heat_capacity:       2.1082112
  energy:            119.2964893

- temperature:        92.0000000
  free_energy:       119.2384137
  entropy:             0.6789087
  heat_capacity:       2.2774271
  energy:            119.3008733

- temperature:        94.0000000
  free_energy:       119.2370055
  entropy:             0.7297873
  heat_capacity:       2.4563898
  energy:            119.3056055

- temperature:        96.0000000
  free_energy:       119.2354927
  entropy:             0.7834671
  heat_capacity:       2.6453573
  energy:            119.3107055

- temperature:        98.0000000
  free_energy:       119.2338697
  entropy:             0.8400415
  heat_capacity:       2.8445737
  energy:            119.3161937

- temperature:       100.0000000
  free_energy:       119.2321305
  entropy:             0.8996028
  heat_capacity:       3.0542680
  energy:            119.3220908

- temperature:       102.0000000
  free_energy:       119.2302692
  entropy:             0.9622424
  heat_capacity:       3.2746542
  energy:            119.3284179

- temperature:       104.0000000
  free_energy:       119.2282794
  entropy:             1.0280504
  heat_capacity:       3.5059304
  energy:            119.3351967

- temperature:       106.0000000
  free_energy:       119.2261548
  entropy:             1.0971151
  heat_capacity:       3.7482790
  energy:            119.3424490

- temperature:       108.0000000
  free_energy:       119.2238887
  entropy:             1.1695235
  heat_capacity:       4.0018662
  energy:            119.3501973

- temperature:       110.0000000
  free_energy:       119.2214744
  entropy:             1.2453604
  heat_capacity:       4.2668420
  energy:            119.3584641

- temperature:       112.0000000
  free_energy:       119.2189050
  entropy:             1.3247087
  heat_capacity:       4.5433401
  energy:            119.3672723

- temperature:       114.0000000
  free_energy:       119.2161732
  entropy:             1.4076490
  heat_capacity:       4.8314779
  energy:            119.3766452

- temperature:       116.0000000
  free_energy:       119.2132719
  entropy:             1.4942599
  heat_capacity:       5.1313568
  energy:            119.3866061

- temperature:       118.0000000
  free_energy:       119.2101937
  entropy:             1.5846173
  heat_capacity:       5.4430621
  energy:            119.3971785

- temperature:       120.0000000
  free_energy:       119.2069309
  entropy:             1.6787946
  heat_capacity:       5.7666634
  energy:            119.4083863

- temperature:       122.0000000
  free_energy:       119.2034759
  entropy:             1.7768626
  heat_capacity:       6.1022147
  energy:            119.4202531

- temperature:       124.0000000
  free_energy:       119.1998208
  entropy:             1.8788894
  heat_capacity:       6.4497547
  energy:            119.4328031

- temperature:       126.0000000
  free_energy:       119.1959577
  entropy:             1.9849405
  heat_capacity:       6.8093069
  energy:            119.4460602

- temperature:       128.0000000
  free_energy:       119.1918783
  entropy:             2.0950783
  heat_capacity:       7.1808802
  energy:            119.4600483

- temperature:       130.0000000
  free_energy:       119.1875746
  entropy:             2.2093624
  heat_capacity:       7.5644693
  energy:            119.4747917

- temperature:       132.0000000
  free_energy:       119.1830381
  entropy:             2.3278496
  heat_capacity:       7.9600547
  energy:            119.4903142

- temperature:       134.0000000
  free_energy:       119.1782604
  entropy:             2.4505936
  heat_capacity:       8.3676033
  energy:            119.5066399

- temperature:       136.0000000
  free_energy:       119.1732328
  entropy:             2.5776452
  heat_capacity:       8.7870689
  energy:            119.5237926

- temperature:       138.0000000
  free_energy:       119.1679469
  entropy:             2.7090522
  heat_capacity:       9.2183922
  energy:            119.5417961

- temperature:       140.0000000
  free_energy:       119.1623937
  entropy:             2.8448594
  heat_capacity:       9.6615019
  energy:            119.5606740

- temperature:       142.0000000
  free_energy:       119.1565645
  entropy:             2.9851086
  heat_capacity:      10.1163143
  energy:            119.5804499

- temperature:       144.0000000
  free_energy:       119.1504503
  entropy:             3.1298384
  heat_capacity:      10.5827345
  energy:            119.6011470

- temperature:       146.0000000
  free_energy:       119.1440421
  entropy:             3.2790848
  heat_capacity:      11.0606563
  energy:            119.6227885

- temperature:       148.0000000
  free_energy:       119.1373309
  entropy:             3.4328806
  heat_capacity:      11.5499630
  energy:            119.6453972

- temperature:       150.0000000
  free_energy:       119.1303075
  entropy:             3.5912555
  heat_capacity:      12.0505276
  energy:            119.6689958

- temperature:       152.0000000
  free_energy:       119.1229628
  entropy:             3.7542364
  heat_capacity:      12.5622134
  energy:            119.6936067

- temperature:       154.0000000
  free_energy:       119.1152875
  entropy:             3.9218475
  heat_capacity:      13.0848745
  energy:            119.7192520

- temperature:       156.0000000
  free_energy:       119.1072723
  entropy:             4.0941099
  heat_capacity:      13.6183563
  energy:            119.7459535

- temperature:       158.0000000
  free_energy:       119.0989079
  entropy:             4.2710418
  heat_capacity:      14.1624955
  energy:            119.7737325

- temperature:       160.0000000
  free_energy:       119.0901850
  entropy:             4.4526588
  heat_capacity:      14.7171213
  energy:            119.8026104

- temperature:       162.0000000
  free_energy:       119.0810942
  entropy:             4.6389736
  heat_capacity:      15.2820552
  energy:            119.8326079

- temperature:       164.0000000
  free_energy:       119.0716260
  entropy:             4.8299964
  heat_capacity:      15.8571121
  energy:            119.8637454

- temperature:       166.0000000
  free_energy:       119.0617710
  entropy:             5.0257345
  heat_capacity:      16.4421001
  energy:            119.8960430

- temperature:       168.0000000
  free_energy:       119.0515199
  entropy:             5.2261928
  heat_capacity:      17.0368213
  energy:            119.9295203

- temperature:       170.0000000
  free_energy:       119.0408631
  entropy:             5.4313734
  heat_capacity:      17.6410723
  energy:            119.9641966

- temperature:       172.0000000
  free_energy:       119.0297913
  entropy:             5.6412763
  heat_capacity:      18.2546445
  energy:            120.0000908

- temperature:       174.0000000
  free_energy:       119.0182949
  entropy:             5.8558988
  heat_capacity:      18.8773246
  energy:            120.0372213

- temperature:       176.0000000
  free_energy:       119.0063645
  entropy:             6.0752358
  heat_capacity:      19.5088949
  energy:            120.0756060

- temperature:       178.0000000
  free_energy:       118.9939908
  entropy:             6.2992799
  heat_capacity:      20.1491340
  energy:            120.1152626

- temperature:       180.0000000
  free_energy:       118.9811643
  entropy:             6.5280217
  heat_capacity:      20.7978168
  energy:            120.1562082

- temperature:       182.0000000
  free_energy:       118.9678756
  entropy:             6.7614494
  heat_capacity:      21.4547154
  energy:            120.1984594

- temperature:       184.0000000
  free_energy:       118.9541154
  entropy:             6.9995490
  heat_capacity:      22.1195990
  energy:            120.2420324

- temperature:       186.0000000
  free_energy:       118.9398743
  entropy:             7.2423046
  heat_capacity:      22.7922345
  energy:            120.2869429

- temperature:       188.0000000
  free_energy:       118.9251431
  entropy:             7.4896982
  heat_capacity:      23.4723871
  energy:            120.3332063

- temperature:       190.0000000
  free_energy:       118.9099124
  entropy:             7.7417101
  heat_capacity:      24.1598202
  energy:            120.3808373

- temperature:       192.0000000
  free_energy:       118.8941731
  entropy:             7.9983185
  heat_capacity:      24.8542961
  energy:            120.4298503

- temperature:       194.0000000
  free_energy:       118.8779161
  entropy:             8.2594998
  heat_capacity:      25.5555761
  energy:            120.4802591

- temperature:       196.0000000
  free_energy:       118.8611321
  entropy:             8.5252289
  heat_capacity:      26.2634211
  energy:            120.5320770

- temperature:       198.0000000
  free_energy:       118.8438122
  entropy:             8.7954788
  heat_capacity:      26.9775916
  energy:            120.5853170

- temperature:       200.0000000
  free_energy:       118.8259472
  entropy:             9.0702210
  heat_capacity:      27.6978481
  energy:            120.6399914

- temperature:       202.0000000
  free_energy:       118.8075283
  entropy:             9.3494255
  heat_capacity:      28.4239516
  energy:            120.6961122

- temperature:       204.0000000
  free_energy:       118.7885465
  entropy:             9.6330608
  heat_capacity:      29.1556636
  energy:            120.7536909

- temperature:       206.0000000
  free_energy:       118.7689931
  entropy:             9.9210940
  heat_capacity:      29.8927466
  energy:            120.8127385

- temperature:       208.0000000
  free_energy:       118.7488593
  entropy:            10.2134908
  heat_capacity:      30.6349639
  energy:            120.8732654

- temperature:       210.0000000
  free_energy:       118.7281363
  entropy:            10.5102158
  heat_capacity:      31.3820804
  energy:            120.9352816

- temperature:       212.0000000
  free_energy:       118.7068155
  entropy:            10.8112323
  heat_capacity:      32.1338627
  energy:            120.9987968

- temperature:       214.0000000
  free_energy:       118.6848885
  entropy:            11.1165023
  heat_capacity:      32.8900788
  energy:            121.0638200

- temperature:       216.0000000
  free_energy:       118.6623467
  entropy:            11.4259870
  heat_capacity:      33.6504989
  energy:            121.1303599

- temperature:       218.0000000
  free_energy:       118.6391818
  entropy:            11.7396462
  heat_capacity:      34.4148954
  energy:            121.1984247

- temperature:       220.0000000
  free_energy:       118.6153854
  entropy:            12.0574391
  heat_capacity:      35.1830430
  energy:            121.2680220

- temperature:       222.0000000
  free_energy:       118.5909493
  entropy:            12.3793238
  heat_capacity:      35.9547189
  energy:            121.3391592

- temperature:       224.0000000
  free_energy:       118.5658654
  entropy:            12.7052575
  heat_capacity:      36.7297030
  energy:            121.4118431

- temperature:       226.0000000
  free_energy:       118.5401256
  entropy:            13.0351967
  heat_capacity:      37.5077780
  energy:            121.4860801

- temperature:       228.0000000
  free_energy:       118.5137220
  entropy:            13.3690971
  heat_capacity:      38.2887295
  energy:            121.5618761

- temperature:       230.0000000
  free_energy:       118.4866466
  entropy:            13.7069137
  heat_capacity:      39.0723461
  energy:            121.6392367

- temperature:       232.0000000
  free_energy:       118.4588917
  entropy:            14.0486008
  heat_capacity:      39.8584198
  energy:            121.7181671

- temperature:       234.0000000
  free_energy:       118.4304496
  entropy:            14.3941123
  heat_capacity:      40.6467455
  energy:            121.7986719

- temperature:       236.0000000
  free_energy:       118.4013128
  entropy:            14.7434013
  heat_capacity:      41.4371220
  energy:            121.8807555

- temperature:       238.0000000
  free_energy:       118.3714736
  entropy:            15.0964206
  heat_capacity:      42.2293509
  energy:            121.9644216

- temperature:       240.0000000
  free_energy:       118.3409246
  entropy:            15.4531223
  heat_capacity:      43.0232379
  energy:            122.0496740

- temperature:       242.0000000
  free_energy:       118.3096586
  entropy:            15.8134584
  heat_capacity:      43.8185920
  energy:            122.1365156

- temperature:       244.0000000
  free_energy:       118.2776684
  entropy:            16.1773803
  heat_capacity:      44.6152258
  energy:            122.2249492

- temperature:       246.0000000
  free_energy:       118.2449468
  entropy:            16.5448392
  heat_capacity:      45.4129557
  energy:            122.3149772

- temperature:       248.0000000
  free_energy:       118.2114867
  entropy:            16.9157860
  heat_capacity:      46.2116018
  energy:            122.4066016

- temperature:       250.0000000
  free_energy:       118.1772813
  entropy:            17.2901712
  heat_capacity:      47.0109881
  energy:            122.4998241

- temperature:       252.0000000
  free_energy:       118.1423238
  entropy:            17.6679452
  heat_capacity:      47.8109421
  energy:            122.5946460

- temperature:       254.0000000
  free_energy:       118.1066073
  entropy:            18.0490584
  heat_capacity:      48.6112955
  energy:            122.6910681

- temperature:       256.0000000
  free_energy:       118.0701253
  entropy:            18.4334608
  heat_capacity:      49.4118834
  energy:            122.7890913

- temperature:       258.0000000
  free_energy:       118.0328713
  entropy:            18.8211024
  heat_capacity:      50.2125452
  energy:            122.8887157

- temperature:       260.0000000
  free_energy:       117.9948388
  entropy:            19.2119332
  heat_capacity:      51.0131238
  energy:            122.9899414

- temperature:       262.0000000
  free_energy:       117.9560215
  entropy:            19.6059030
  heat_capacity:      51.8134662
  energy:            123.0927681

- temperature:       264.0000000
  free_energy:       117.9164131
  entropy:            20.0029617
  heat_capacity:      52.6134230
  energy:            123.1971950

- temperature:       266.0000000
  free_energy:       117.8760076
  entropy:            20.4030594
  heat_capacity:      53.4128488
  energy:            123.3032214

- temperature:       268.0000000
  free_energy:       117.8347989
  entropy:            20.8061458
  heat_capacity:      54.2116019
  energy:            123.4108460

- temperature:       270.0000000
  free_energy:       117.7927811
  entropy:            21.2121711
  heat_capacity:      55.0095446
  energy:            123.5200673

- temperature:       272.0000000
  free_energy:       117.7499483
  entropy:            21.6210854
  heat_capacity:      55.8065428
  energy:            123.6308835

- temperature:       274.0000000
  free_energy:       117.7062948
  entropy:            22.0328390
  heat_capacity:      56.6024661
  energy:            123.7432927

- temperature:       276.0000000
  free_energy:       117.6618151
  entropy:            22.4473823
  heat_capacity:      57.3971880
  energy:            123.8572926

- temperature:       278.0000000
  free_energy:       117.6165035
  entropy:            22.8646659
  heat_capacity:      58.1905856
  energy:            123.9728806

- temperature:       280.0000000
  free_energy:       117.5703546
  entropy:            23.2846405
  heat_capacity:      58.9825396
  energy:            124.0900540

- temperature:       282.0000000
  free_energy:       117.5233632
  entropy:            23.7072573
  heat_capacity:      59.7729343
  energy:            124.2088097

- temperature:       284.0000000
  free_energy:       117.4755239
  entropy:            24.1324674
  heat_capacity:      60.5616576
  energy:            124.3291446

- temperature:       286.0000000
  free_energy:       117.4268316
  entropy:            24.5602223
  heat_capacity:      61.3486011
  energy:            124.4510552

- temperature:       288.0000000
  free_energy:       117.3772813
  entropy:            24.9904737
  heat_capacity:      62.1336596
  energy:            124.5745377

- temperature:       290.0000000
  free_energy:       117.3268681
  entropy:            25.4231738
  heat_capacity:      62.9167315
  energy:            124.6995885

- temperature:       292.0000000
  free_energy:       117.2755870
  entropy:            25.8582749
  heat_capacity:      63.6977184
  energy:            124.8262033

- temperature:       294.0000000
  free_energy:       117.2234334
  entropy:            26.2957296
  heat_capacity:      64.4765256
  energy:            124.9543779

- temperature:       296.0000000
  free_energy:       117.1704026
  entropy:            26.7354909
  heat_capacity:      65.2530612
  energy:            125.0841079

- temperature:       298.0000000
  free_energy:       117.1164899
  entropy:            27.1775122
  heat_capacity:      66.0272370
  energy:            125.2153886

- temperature:       300.0000000
  free_energy:       117.0616910
  entropy:            27.6217472
  heat_capacity:      66.7989676
  energy:            125.3482152

- temperature:       302.0000000
  free_energy:       117.0060015
  entropy:            28.0681499
  heat_capacity:      67.5681710
  energy:            125.4825828

- temperature:       304.0000000
  free_energy:       116.9494170
  entropy:            28.5166747
  heat_capacity:      68.3347679
  energy:            125.6184861

- temperature:       306.0000000
  free_energy:       116.8919334
  entropy:            28.9672765
  heat_capacity:      69.0986825
  energy:            125.7559200

- temperature:       308.0000000
  free_energy:       116.8335466
  entropy:            29.4199106
  heat_capacity:      69.8598416
  energy:            125.8948790

- temperature:       310.0000000
  free_energy:       116.7742524
  entropy:            29.8745325
  heat_capacity:      70.6181750
  energy:            126.0353575

- temperature:       312.0000000
  free_energy:       116.7140471
  entropy:            30.3310983
  heat_capacity:      71.3736152
  energy:            126.1773498

- temperature:       314.0000000
  free_energy:       116.6529268
  entropy:            30.7895644
  heat_capacity:      72.1260977
  energy:            126.3208500

- temperature:       316.0000000
  free_energy:       116.5908876
  entropy:            31.2498878
  heat_capacity:      72.8755606
  energy:            126.4658522

- temperature:       318.0000000
  free_energy:       116.5279260
  entropy:            31.7120257
  heat_capacity:      73.6219447
  energy:            126.6123502

- temperature:       320.0000000
  free_energy:       116.4640384
  entropy:            32.1759360
  heat_capacity:      74.3651933
  energy:            126.7603379

- temperature:       322.0000000
  free_energy:       116.3992211
  entropy:            32.6415768
  heat_capacity:      75.1052525
  energy:            126.9098088

- temperature:       324.0000000
  free_energy:       116.3334709
  entropy:            33.1089068
  heat_capacity:      75.8420705
  energy:            127.0607567

- temperature:       326.0000000
  free_energy:       116.2667844
  entropy:            33.5778851
  heat_capacity:      76.5755982
  energy:            127.2131749

- temperature:       328.0000000
  free_energy:       116.1991583
  entropy:            34.0484713
  heat_capacity:      77.3057889
  energy:            127.3670569

- temperature:       330.0000000
  free_energy:       116.1305895
  entropy:            34.5206253
  heat_capacity:      78.0325981
  energy:            127.5223958

- temperature:       332.0000000
  free_energy:       116.0610748
  entropy:            34.9943078
  heat_capacity:      78.7559836
  energy:            127.6791850

- temperature:       334.0000000
  free_energy:       115.9906112
  entropy:            35.4694797
  heat_capacity:      79.4759053
  energy:            127.8374175

- temperature:       336.0000000
  free_energy:       115.9191959
  entropy:            35.9461023
  heat_capacity:      80.1923255
  energy:            127.9970863

- temperature:       338.0000000
  free_energy:       115.8468259
  entropy:            36.4241376
  heat_capacity:      80.9052084
  energy:            128.1581844

- temperature:       340.0000000
  free_energy:       115.7734984
  entropy:            36.9035479
  heat_capacity:      81.6145202
  energy:            128.3207047

- temperature:       342.0000000
  free_energy:       115.6992108
  entropy:            37.3842961
  heat_capacity:      82.3202293
  energy:            128.4846401

- temperature:       344.0000000
  free_energy:       115.6239604
  entropy:            37.8663455
  heat_capacity:      83.0223058
  energy:            128.6499832

- temperature:       346.0000000
  free_energy:       115.5477446
  entropy:            38.3496598
  heat_capacity:      83.7207219
  energy:            128.8167269

- temperature:       348.0000000
  free_energy:       115.4705609
  entropy:            38.8342032
  heat_capacity:      84.4154514
  energy:            128.9848637

- temperature:       350.0000000
  free_energy:       115.3924070
  entropy:            39.3199406
  heat_capacity:      85.1064702
  energy:            129.1543862

- temperature:       352.0000000
  free_energy:       115.3132804
  entropy:            39.8068371
  heat_capacity:      85.7937555
  energy:            129.3252870

- temperature:       354.0000000
  free_energy:       115.2331789
  entropy:            40.2948583
  heat_capacity:      86.4772866
  energy:            129.4975587

- temperature:       356.0000000
  free_energy:       115.1521002
  entropy:            40.7839704