<?xml version="1.0" encoding="ISO-8859-1"?>
<modeling>
 <generator>
  <i name="program" type="string">vasp </i>
  <i name="version" type="string">5.4.4.18Apr17-6-g9f103f2a35  </i>
  <i name="subversion" type="string">(build Mar 12 2022 03:36:41) complex            parallel </i>
  <i name="platform" type="string">IFC19.0.3.199_CrayMPICH7.7.19 </i>
  <i name="date" type="string">2022 12 01 </i>
  <i name="time" type="string">08:42:39 </i>
 </generator>
 <incar>
  <i type="string" name="PREC">accurate</i>
  <i type="int" name="IALGO">    38</i>
  <i type="logical" name="ADDGRID"> T  </i>
  <i type="int" name="IBRION">     8</i>
  <i name="EDIFF">      0.00000001</i>
  <i type="logical" name="LREAL"> F  </i>
  <i type="int" name="ISMEAR">     0</i>
  <i name="SIGMA">      0.06000000</i>
  <i type="logical" name="LWAVE"> F  </i>
  <i type="logical" name="LCHARG"> F  </i>
  <v type="int" name="KPOINT_BSE">    -1     0     0     0</v>
 </incar>
 <structure name="primitive_cell" >
  <crystal>
   <varray name="basis" >
    <v>       1.87406950       1.87406950       0.00000000 </v>
    <v>       1.87406950       0.00000000      -1.87406950 </v>
    <v>       0.00000000       1.87406950      -1.87406950 </v>
   </varray>
   <i name="volume">     13.16397575 </i>
   <varray name="rec_basis" >
    <v>       0.26679907       0.26679907       0.26679907 </v>
    <v>       0.26679907      -0.26679907      -0.26679907 </v>
    <v>      -0.26679907       0.26679907      -0.26679907 </v>
   </varray>
  </crystal>
  <varray name="positions" >
   <v>       0.25000000       0.25000000       0.25000000 </v>
   <v>      -0.50000000      -0.50000000      -0.50000000 </v>
  </varray>
 </structure>
 <varray name="primitive_index" >
  <v type="int" >        1 </v>
  <v type="int" >       11 </v>
 </varray>
 <kpoints>
  <generation param="Gamma">
   <v type="int" name="divisions">       8        8        8 </v>
   <v name="usershift">      0.00000000       0.00000000       0.00000000 </v>
   <v name="genvec1">      0.12500000       0.00000000       0.00000000 </v>
   <v name="genvec2">      0.00000000       0.12500000       0.00000000 </v>
   <v name="genvec3">      0.00000000       0.00000000       0.12500000 </v>
   <v name="shift">      0.00000000       0.00000000       0.00000000 </v>
  </generation>
  <varray name="kpointlist" >
   <v>       0.00000000       0.00000000       0.00000000 </v>
   <v>       0.12500000       0.00000000       0.00000000 </v>
   <v>       0.25000000       0.00000000       0.00000000 </v>
   <v>       0.37500000       0.00000000       0.00000000 </v>
   <v>       0.50000000       0.00000000       0.00000000 </v>
   <v>       0.12500000       0.12500000       0.00000000 </v>
   <v>       0.25000000       0.12500000       0.00000000 </v>
   <v>       0.37500000       0.12500000       0.00000000 </v>
   <v>       0.50000000       0.12500000       0.00000000 </v>
   <v>       0.25000000       0.25000000       0.00000000 </v>
   <v>       0.37500000       0.25000000       0.00000000 </v>
   <v>       0.50000000       0.25000000       0.00000000 </v>
   <v>       0.37500000       0.37500000       0.00000000 </v>
   <v>       0.50000000       0.37500000       0.00000000 </v>
   <v>       0.50000000       0.50000000       0.00000000 </v>
   <v>       0.12500000       0.12500000       0.12500000 </v>
   <v>       0.25000000       0.12500000       0.12500000 </v>
   <v>       0.37500000       0.12500000       0.12500000 </v>
   <v>       0.50000000       0.12500000       0.12500000 </v>
   <v>       0.25000000       0.25000000       0.12500000 </v>
   <v>       0.37500000       0.25000000       0.12500000 </v>
   <v>       0.50000000       0.25000000       0.12500000 </v>
   <v>       0.37500000       0.37500000       0.12500000 </v>
   <v>       0.50000000       0.37500000       0.12500000 </v>
   <v>       0.50000000       0.50000000       0.12500000 </v>
   <v>       0.25000000       0.25000000       0.25000000 </v>
   <v>       0.37500000       0.25000000       0.25000000 </v>
   <v>       0.50000000       0.25000000       0.25000000 </v>
   <v>       0.37500000       0.37500000       0.25000000 </v>
   <v>       0.50000000       0.37500000       0.25000000 </v>
   <v>       0.50000000       0.50000000       0.25000000 </v>
   <v>       0.37500000       0.37500000       0.37500000 </v>
   <v>       0.50000000       0.37500000       0.37500000 </v>
   <v>       0.50000000       0.50000000       0.37500000 </v>
   <v>       0.50000000       0.50000000       0.50000000 </v>
  </varray>
  <varray name="weights" >
   <v>       0.00195312 </v>
   <v>       0.01171875 </v>
   <v>       0.01171875 </v>
   <v>       0.01171875 </v>
   <v>       0.00585938 </v>
   <v>       0.02343750 </v>
   <v>       0.04687500 </v>
   <v>       0.04687500 </v>
   <v>       0.02343750 </v>
   <v>       0.02343750 </v>
   <v>       0.04687500 </v>
   <v>       0.02343750 </v>
   <v>       0.02343750 </v>
   <v>       0.02343750 </v>
   <v>       0.00585938 </v>
   <v>       0.01562500 </v>
   <v>       0.04687500 </v>
   <v>       0.04687500 </v>
   <v>       0.02343750 </v>
   <v>       0.04687500 </v>
   <v>       0.09375000 </v>
   <v>       0.04687500 </v>
   <v>       0.04687500 </v>
   <v>       0.04687500 </v>
   <v>       0.01171875 </v>
   <v>       0.01562500 </v>
   <v>       0.04687500 </v>
   <v>       0.02343750 </v>
   <v>       0.04687500 </v>
   <v>       0.04687500 </v>
   <v>       0.01171875 </v>
   <v>       0.01562500 </v>
   <v>       0.02343750 </v>
   <v>       0.01171875 </v>
   <v>       0.00195312 </v>
  </varray>
 </kpoints>
 <parameters>
  <separator name="general" >
   <i type="string" name="SYSTEM">unknown system</i>
   <i type="logical" name="LCOMPAT"> F  </i>
  </separator>
  <separator name="electronic" >
   <i type="string" name="PREC">accura</i>
   <i name="ENMAX">    400.00000000</i>
   <i name="ENAUG">    644.87300000</i>
   <i name="EDIFF">      0.00000001</i>
   <i type="int" name="IALGO">    38</i>
   <i type="int" name="IWAVPR">    11</i>
   <i type="int" name="NBANDS">   192</i>
   <i name="NELECT">    256.00000000</i>
   <i type="int" name="TURBO">     0</i>
   <i type="int" name="IRESTART">     0</i>
   <i type="int" name="NREBOOT">     0</i>
   <i type="int" name="NMIN">     0</i>
   <i name="EREF">      0.00000000</i>
   <separator name="electronic smearing" >
    <i type="int" name="ISMEAR">     0</i>
    <i name="SIGMA">      0.06000000</i>
    <i name="KSPACING">      0.50000000</i>
    <i type="logical" name="KGAMMA"> T  </i>
   </separator>
   <separator name="electronic projectors" >
    <i type="logical" name="LREAL"> F  </i>
    <v name="ROPT">      0.00000000</v>
    <i type="int" name="LMAXPAW">  -100</i>
    <i type="int" name="LMAXMIX">     2</i>
    <i type="logical" name="NLSPLINE"> F  </i>
   </separator>
   <separator name="electronic startup" >
    <i type="int" name="ISTART">     0</i>
    <i type="int" name="ICHARG">     2</i>
    <i type="int" name="INIWAV">     1</i>
   </separator>
   <separator name="electronic spin" >
    <i type="int" name="ISPIN">     1</i>
    <i type="logical" name="LNONCOLLINEAR"> F  </i>
    <v name="MAGMOM">      1.00000000      1.00000000      1.00000000      1.00000000      1.00000000      1.00000000      1.00000000      1.00000000      1.00000000      1.00000000      1.00000000      1.00000000      1.00000000      1.00000000      1.00000000      1.00000000      1.00000000      1.00000000      1.00000000      1.00000000
      1.00000000      1.00000000      1.00000000      1.00000000      1.00000000      1.00000000      1.00000000      1.00000000      1.00000000      1.00000000      1.00000000      1.00000000      1.00000000      1.00000000      1.00000000      1.00000000      1.00000000      1.00000000      1.00000000      1.00000000
      1.00000000      1.00000000      1.00000000      1.00000000      1.00000000      1.00000000      1.00000000      1.00000000      1.00000000      1.00000000      1.00000000      1.00000000      1.00000000      1.00000000      1.00000000      1.00000000      1.00000000      1.00000000      1.00000000      1.00000000
      1.00000000      1.00000000      1.00000000      1.00000000</v>
    <i name="NUPDOWN">     -1.00000000</i>
    <i type="logical" name="LSORBIT"> F  </i>
    <v name="SAXIS">      0.00000000      0.00000000      1.00000000</v>
    <i type="logical" name="LSPIRAL"> F  </i>
    <v name="QSPIRAL">      0.00000000      0.00000000      0.00000000</v>
    <i type="logical" name="LZEROZ"> F  </i>
   </separator>
   <separator name="electronic exchange-correlation" >
    <i type="logical" name="LASPH"> F  </i>
    <i type="logical" name="LMETAGGA"> F  </i>
   </separator>
   <separator name="electronic convergence" >
    <i type="int" name="NELM">    60</i>
    <i type="int" name="NELMDL">    -5</i>
    <i type="int" name="NELMIN">     2</i>
    <i name="ENINI">    400.00000000</i>
    <separator name="electronic convergence detail" >
     <i type="logical" name="LDIAG"> T  </i>
     <i type="logical" name="LSUBROT"> F  </i>
     <i name="WEIMIN">      0.00100000</i>
     <i name="EBREAK">      0.00000000</i>
     <i name="DEPER">      0.30000000</i>
     <i type="int" name="NRMM">     4</i>
     <i name="TIME">      0.40000000</i>
    </separator>
   </separator>
   <separator name="electronic mixer" >
    <i name="AMIX">      0.40000000</i>
    <i name="BMIX">      1.00000000</i>
    <i name="AMIN">      0.10000000</i>
    <i name="AMIX_MAG">      1.60000000</i>
    <i name="BMIX_MAG">      1.00000000</i>
    <separator name="electronic mixer details" >
     <i type="int" name="IMIX">     4</i>
     <i type="logical" name="MIXFIRST"> F  </i>
     <i type="int" name="MAXMIX">   -45</i>
     <i name="WC">    100.00000000</i>
     <i type="int" name="INIMIX">     1</i>
     <i type="int" name="MIXPRE">     1</i>
     <i type="int" name="MREMOVE">     5</i>
    </separator>
   </separator>
   <separator name="electronic dipolcorrection" >
    <i type="logical" name="LDIPOL"> F  </i>
    <i type="logical" name="LMONO"> F  </i>
    <i type="int" name="IDIPOL">     0</i>
    <i name="EPSILON">      1.00000000</i>
    <v name="DIPOL">   -100.00000000   -100.00000000   -100.00000000</v>
    <i name="EFIELD">      0.00000000</i>
   </separator>
  </separator>
  <separator name="grids" >
   <i type="int" name="NGX">    50</i>
   <i type="int" name="NGY">    50</i>
   <i type="int" name="NGZ">    50</i>
   <i type="int" name="NGXF">   100</i>
   <i type="int" name="NGYF">   100</i>
   <i type="int" name="NGZF">   100</i>
   <i type="logical" name="ADDGRID"> T  </i>
  </separator>
  <separator name="ionic" >
   <i type="int" name="NSW">     1</i>
   <i type="int" name="IBRION">     8</i>
   <i type="int" name="MDALGO">     0</i>
   <i type="int" name="ISIF">     2</i>
   <i name="PSTRESS">      0.00000000</i>
   <i name="EDIFFG">      0.00000010</i>
   <i type="int" name="NFREE">     0</i>
   <i name="POTIM">      0.50000000</i>
   <i name="SMASS">     -3.00000000</i>
   <i name="SCALEE">      1.00000000</i>
  </separator>
  <separator name="ionic md" >
   <i name="TEBEG">      0.00010000</i>
   <i name="TEEND">      0.00010000</i>
   <i type="int" name="NBLOCK">     1</i>
   <i type="int" name="KBLOCK">     1</i>
   <i type="int" name="NPACO">   256</i>
   <i name="APACO">     16.00000000</i>
  </separator>
  <separator name="symmetry" >
   <i type="int" name="ISYM">     2</i>
   <i name="SYMPREC">      0.00001000</i>
  </separator>
  <separator name="dos" >
   <i type="int" name="LORBIT">     0</i>
   <v name="RWIGS">     -1.00000000</v>
   <i type="int" name="NEDOS">   301</i>
   <i name="EMIN">     10.00000000</i>
   <i name="EMAX">    -10.00000000</i>
   <i name="EFERMI">      0.00000000</i>
  </separator>
  <separator name="writing" >
   <i type="int" name="NWRITE">     2</i>
   <i type="logical" name="LWAVE"> F  </i>
   <i type="logical" name="LDOWNSAMPLE"> F  </i>
   <i type="logical" name="LCHARG"> F  </i>
   <i type="logical" name="LPARD"> F  </i>
   <i type="logical" name="LVTOT"> F  </i>
   <i type="logical" name="LVHAR"> F  </i>
   <i type="logical" name="LELF"> F  </i>
   <i type="logical" name="LOPTICS"> F  </i>
   <v name="STM">      0.00000000      0.00000000      0.00000000      0.00000000      0.00000000      0.00000000      0.00000000</v>
  </separator>
  <separator name="performance" >
   <i type="int" name="NPAR">    32</i>
   <i type="int" name="NSIM">     4</i>
   <i type="int" name="NBLK">    -1</i>
   <i type="logical" name="LPLANE"> T  </i>
   <i type="logical" name="LSCALAPACK"> T  </i>
   <i type="logical" name="LSCAAWARE"> F  </i>
   <i type="logical" name="LSCALU"> F  </i>
   <i type="logical" name="LASYNC"> F  </i>
   <i type="logical" name="LORBITALREAL"> F  </i>
  </separator>
  <separator name="miscellaneous" >
   <i type="int" name="IDIOT">     3</i>
   <i type="int" name="ISPECIAL">     0</i>
   <i type="logical" name="LMUSIC"> F  </i>
   <v name="POMASS">     12.01100000</v>
   <v name="DARWINR">      0.00000000</v>
   <v name="DARWINV">      1.00000000</v>
   <i type="logical" name="LCORR"> T  </i>
  </separator>
  <i type="logical" name="GGA_COMPAT"> T  </i>
  <i type="logical" name="LBERRY"> F  </i>
  <i type="int" name="ICORELEVEL">     0</i>
  <i type="logical" name="LDAU"> F  </i>
  <i type="int" name="I_CONSTRAINED_M">     0</i>
  <separator name="electronic exchange-correlation" >
   <i type="string" name="GGA">--</i>
   <i type="int" name="VOSKOWN">     0</i>
   <i type="logical" name="LHFCALC"> F  </i>
   <i type="string" name="PRECFOCK"></i>
   <i type="logical" name="LSYMGRAD"> F  </i>
   <i type="logical" name="LHFONE"> F  </i>
   <i type="logical" name="LRHFCALC"> F  </i>
   <i type="logical" name="LTHOMAS"> F  </i>
   <i type="logical" name="LMODELHF"> F  </i>
   <i name="ENCUT4O">     -1.00000000</i>
   <i type="int" name="EXXOEP">     0</i>
   <i type="int" name="FOURORBIT">     0</i>
   <i name="AEXX">      0.00000000</i>
   <i name="HFALPHA">      0.00000000</i>
   <i name="MCALPHA">      0.00000000</i>
   <i name="ALDAX">      1.00000000</i>
   <i name="AGGAX">      1.00000000</i>
   <i name="ALDAC">      1.00000000</i>
   <i name="AGGAC">      1.00000000</i>
   <i type="int" name="NKREDX">     1</i>
   <i type="int" name="NKREDY">     1</i>
   <i type="int" name="NKREDZ">     1</i>
   <i type="logical" name="SHIFTRED"> F  </i>
   <i type="logical" name="ODDONLY"> F  </i>
   <i type="logical" name="EVENONLY"> F  </i>
   <i type="int" name="LMAXFOCK">     0</i>
   <i type="int" name="NMAXFOCKAE">     0</i>
   <i type="logical" name="LFOCKAEDFT"> F  </i>
   <i name="HFSCREEN">      0.00000000</i>
   <i name="HFSCREENC">      0.00000000</i>
   <i type="int" name="NBANDSGWLOW">     0</i>
  </separator>
  <separator name="vdW DFT" >
   <i type="logical" name="LUSE_VDW"> F  </i>
   <i name="Zab_VDW">     -0.84910000</i>
   <i name="PARAM1">      0.12340000</i>
   <i name="PARAM2">      1.00000000</i>
   <i name="PARAM3">      0.00000000</i>
  </separator>
  <separator name="model GW" >
   <i type="int" name="MODEL_GW">     0</i>
   <i name="MODEL_EPS0">      3.94919273</i>
   <i name="MODEL_ALPHA">      1.00000000</i>
  </separator>
  <separator name="linear response parameters" >
   <i type="logical" name="LEPSILON"> F  </i>
   <i type="logical" name="LRPA"> F  </i>
   <i type="logical" name="LNABLA"> F  </i>
   <i type="logical" name="LVEL"> F  </i>
   <i type="int" name="KINTER">     0</i>
   <i name="CSHIFT">      0.10000000</i>
   <i name="OMEGAMAX">     -1.00000000</i>
   <i name="DEG_THRESHOLD">      0.00200000</i>
   <i name="RTIME">     -0.10000000</i>
   <i name="WPLASMAI">      0.00000000</i>
   <v name="DFIELD">      0.00000000      0.00000000      0.00000000</v>
   <v name="WPLASMA">      0.00000000      0.00000000      0.00000000      0.00000000      0.00000000      0.00000000      0.00000000      0.00000000      0.00000000</v>
  </separator>
  <separator name="orbital magnetization" >
   <i type="logical" name="NUCIND"> F  </i>
   <v name="MAGPOS">      0.00000000      0.00000000      0.00000000</v>
   <i type="logical" name="LNICSALL"> T  </i>
   <i type="logical" name="ORBITALMAG"> F  </i>
   <i type="logical" name="LMAGBLOCH"> F  </i>
   <i type="logical" name="LCHIMAG"> F  </i>
   <i type="logical" name="LGAUGE"> T  </i>
   <i type="int" name="MAGATOM">     0</i>
   <v name="MAGDIPOL">      0.00000000      0.00000000      0.00000000</v>
   <v name="AVECCONST">      0.00000000      0.00000000      0.00000000</v>
  </separator>
  <separator name="response functions" >
   <i type="logical" name="LADDER"> F  </i>
   <i type="logical" name="LRPAFORCE"> F  </i>
   <i type="logical" name="LFXC"> F  </i>
   <i type="logical" name="LHARTREE"> T  </i>
   <i type="int" name="IBSE">     0</i>
   <v type="int" name="KPOINT">    -1     0     0     0</v>
   <i type="logical" name="LTCTE"> F  </i>
   <i type="logical" name="LTETE"> F  </i>
   <i type="logical" name="LTRIPLET"> F  </i>
   <i type="logical" name="LFXCEPS"> F  </i>
   <i type="logical" name="LFXHEG"> F  </i>
   <i type="int" name="NATURALO">     2</i>
   <i type="logical" name="L2ORDER"> F  </i>
   <i type="logical" name="LMP2LT"> F  </i>
   <i type="logical" name="LUSEW"> F  </i>
   <i name="ENCUTGW">     -2.00000000</i>
   <i name="ENCUTGWSOFT">     -2.00000000</i>
   <i name="ENCUTLF">     -1.00000000</i>
   <i type="int" name="LMAXMP2">    -1</i>
   <i name="SCISSOR">      0.00000000</i>
   <i type="int" name="NOMEGA">     0</i>
   <i type="int" name="NOMEGAR">     0</i>
   <i type="int" name="NBANDSGW">    -1</i>
   <i type="int" name="NBANDSO">    -1</i>
   <i type="int" name="NBANDSV">    -1</i>
   <i type="int" name="NELM">     1</i>
   <i type="int" name="NELMHF">     1</i>
   <i type="int" name="DIM">     3</i>
   <i type="int" name="ANTIRES">     0</i>
   <i name="OMEGAMAX">    -30.00000000</i>
   <i name="OMEGAMIN">    -30.00000000</i>
   <i name="OMEGATL">   -200.00000000</i>
   <i type="int" name="OMEGAGRID">   140</i>
   <i name="CSHIFT">     -0.10000000</i>
   <i type="logical" name="SELFENERGY"> F  </i>
   <i type="logical" name="LSPECTRAL"> F  </i>
   <i type="logical" name="LSPECTRALGW"> F  </i>
   <i type="logical" name="LSINGLES"> F  </i>
   <i type="logical" name="LFERMIGW"> F  </i>
   <i type="logical" name="ODDONLYGW"> F  </i>
   <i type="logical" name="EVENONLYGW"> F  </i>
   <i type="int" name="NKREDLFX">     1</i>
   <i type="int" name="NKREDLFY">     1</i>
   <i type="int" name="NKREDLFZ">     1</i>
   <i type="int" name="MAXMEM">  2800</i>
   <i type="int" name="TELESCOPE">     0</i>
   <i type="int" name="TAUPAR">     1</i>
   <i type="int" name="OMEGAPAR">    -1</i>
   <i name="LAMBDA">      1.00000000</i>
  </separator>
  <separator name="External order field" >
   <i name="OFIELD_KAPPA">      0.00000000</i>
   <v name="OFIELD_K">      0.00000000      0.00000000      0.00000000</v>
   <i name="OFIELD_Q6_NEAR">      0.00000000</i>
   <i name="OFIELD_Q6_FAR">      0.00000000</i>
   <i name="OFIELD_A">      0.00000000</i>
  </separator>
 </parameters>
 <atominfo>
  <atoms>      64 </atoms>
  <types>       1 </types>
  <array name="atoms" >
   <dimension dim="1">ion</dimension>
   <field type="string">element</field>
   <field type="int">atomtype</field>
   <set>
    <rc><c>C </c><c>   1</c></rc>
    <rc><c>C </c><c>   1</c></rc>
    <rc><c>C </c><c>   1</c></rc>
    <rc><c>C </c><c>   1</c></rc>
    <rc><c>C </c><c>   1</c></rc>
    <rc><c>C </c><c>   1</c></rc>
    <rc><c>C </c><c>   1</c></rc>
    <rc><c>C </c><c>   1</c></rc>
    <rc><c>C </c><c>   1</c></rc>
    <rc><c>C </c><c>   1</c></rc>
    <rc><c>C </c><c>   1</c></rc>
    <rc><c>C </c><c>   1</c></rc>
    <rc><c>C </c><c>   1</c></rc>
    <rc><c>C </c><c>   1</c></rc>
    <rc><c>C </c><c>   1</c></rc>
    <rc><c>C </c><c>   1</c></rc>
    <rc><c>C </c><c>   1</c></rc>
    <rc><c>C </c><c>   1</c></rc>
    <rc><c>C </c><c>   1</c></rc>
    <rc><c>C </c><c>   1</c></rc>
    <rc><c>C </c><c>   1</c></rc>
    <rc><c>C </c><c>   1</c></rc>
    <rc><c>C </c><c>   1</c></rc>
    <rc><c>C </c><c>   1</c></rc>
    <rc><c>C </c><c>   1</c></rc>
    <rc><c>C </c><c>   1</c></rc>
    <rc><c>C </c><c>   1</c></rc>
    <rc><c>C </c><c>   1</c></rc>
    <rc><c>C </c><c>   1</c></rc>
    <rc><c>C </c><c>   1</c></rc>
    <rc><c>C </c><c>   1</c></rc>
    <rc><c>C </c><c>   1</c></rc>
    <rc><c>C </c><c>   1</c></rc>
    <rc><c>C </c><c>   1</c></rc>
    <rc><c>C </c><c>   1</c></rc>
    <rc><c>C </c><c>   1</c></rc>
    <rc><c>C </c><c>   1</c></rc>
    <rc><c>C </c><c>   1</c></rc>
    <rc><c>C </c><c>   1</c></rc>
    <rc><c>C </c><c>   1</c></rc>
    <rc><c>C </c><c>   1</c></rc>
    <rc><c>C </c><c>   1</c></rc>
    <rc><c>C </c><c>   1</c></rc>
    <rc><c>C </c><c>   1</c></rc>
    <rc><c>C </c><c>   1</c></rc>
    <rc><c>C </c><c>   1</c></rc>
    <rc><c>C </c><c>   1</c></rc>
    <rc><c>C </c><c>   1</c></rc>
    <rc><c>C </c><c>   1</c></rc>
    <rc><c>C </c><c>   1</c></rc>
    <rc><c>C </c><c>   1</c></rc>
    <rc><c>C </c><c>   1</c></rc>
    <rc><c>C </c><c>   1</c></rc>
    <rc><c>C </c><c>   1</c></rc>
    <rc><c>C </c><c>   1</c></rc>
    <rc><c>C </c><c>   1</c></rc>
    <rc><c>C </c><c>   1</c></rc>
    <rc><c>C </c><c>   1</c></rc>
    <rc><c>C </c><c>   1</c></rc>
    <rc><c>C </c><c>   1</c></rc>
    <rc><c>C </c><c>   1</c></rc>
    <rc><c>C </c><c>   1</c></rc>
    <rc><c>C </c><c>   1</c></rc>
    <rc><c>C </c><c>   1</c></rc>
   </set>
  </array>
  <array name="atomtypes" >
   <dimension dim="1">type</dimension>
   <field type="int">atomspertype</field>
   <field type="string">element</field>
   <field>mass</field>
   <field>valence</field>
   <field type="string">pseudopotential</field>
   <set>
    <rc><c>  64</c><c>C </c><c>     12.01100000</c><c>      4.00000000</c><c> PAW_PBE C 08Apr2002                    </c></rc>
   </set>
  </array>
 </atominfo>
 <structure name="initialpos" >
  <crystal>
   <varray name="basis" >
    <v>       7.49627800       0.00000000       0.00000000 </v>
    <v>       0.00000000       7.49627800       0.00000000 </v>
    <v>       0.00000000       0.00000000       7.49627800 </v>
   </varray>
   <i name="volume">    421.24722415 </i>
   <varray name="rec_basis" >
    <v>       0.13339954       0.00000000       0.00000000 </v>
    <v>       0.00000000       0.13339954       0.00000000 </v>
    <v>       0.00000000       0.00000000       0.13339954 </v>
   </varray>
  </crystal>
  <varray name="positions" >
   <v>       0.12500000       0.37500000       0.12500000 </v>
   <v>       0.62500000       0.37500000       0.12500000 </v>
   <v>       0.12500000       0.87500000       0.12500000 </v>
   <v>       0.62500000       0.87500000       0.12500000 </v>
   <v>       0.12500000       0.37500000       0.62500000 </v>
   <v>       0.62500000       0.37500000       0.62500000 </v>
   <v>       0.12500000       0.87500000       0.62500000 </v>
   <v>       0.62500000       0.87500000       0.62500000 </v>
   <v>       0.00000000       0.00000000       0.25000000 </v>
   <v>       0.50000000       0.00000000       0.25000000 </v>
   <v>       0.00000000       0.50000000       0.25000000 </v>
   <v>       0.50000000       0.50000000       0.25000000 </v>
   <v>       0.00000000       0.00000000       0.75000000 </v>
   <v>       0.50000000       0.00000000       0.75000000 </v>
   <v>       0.00000000       0.50000000       0.75000000 </v>
   <v>       0.50000000       0.50000000       0.75000000 </v>
   <v>       0.12500000       0.12500000       0.37500000 </v>
   <v>       0.62500000       0.12500000       0.37500000 </v>
   <v>       0.12500000       0.62500000       0.37500000 </v>
   <v>       0.62500000       0.62500000       0.37500000 </v>
   <v>       0.12500000       0.12500000       0.87500000 </v>
   <v>       0.62500000       0.12500000       0.87500000 </v>
   <v>       0.12500000       0.62500000       0.87500000 </v>
   <v>       0.62500000       0.62500000       0.87500000 </v>
   <v>       0.00000000       0.25000000       0.00000000 </v>
   <v>       0.50000000       0.25000000       0.00000000 </v>
   <v>       0.00000000       0.75000000       0.00000000 </v>
   <v>       0.50000000       0.75000000       0.00000000 </v>
   <v>       0.00000000       0.25000000       0.50000000 </v>
   <v>       0.50000000       0.25000000       0.50000000 </v>
   <v>       0.00000000       0.75000000       0.50000000 </v>
   <v>       0.50000000       0.75000000       0.50000000 </v>
   <v>       0.37500000       0.37500000       0.37500000 </v>
   <v>       0.87500000       0.37500000       0.37500000 </v>
   <v>       0.37500000       0.87500000       0.37500000 </v>
   <v>       0.87500000       0.87500000       0.37500000 </v>
   <v>       0.37500000       0.37500000       0.87500000 </v>
   <v>       0.87500000       0.37500000       0.87500000 </v>
   <v>       0.37500000       0.87500000       0.87500000 </v>
   <v>       0.87500000       0.87500000       0.87500000 </v>
   <v>       0.25000000       0.00000000       0.00000000 </v>
   <v>       0.75000000       0.00000000       0.00000000 </v>
   <v>       0.25000000       0.50000000       0.00000000 </v>
   <v>       0.75000000       0.50000000       0.00000000 </v>
   <v>       0.25000000       0.00000000       0.50000000 </v>
   <v>       0.75000000       0.00000000       0.50000000 </v>
   <v>       0.25000000       0.50000000       0.50000000 </v>
   <v>       0.75000000       0.50000000       0.50000000 </v>
   <v>       0.37500000       0.12500000       0.12500000 </v>
   <v>       0.87500000       0.12500000       0.12500000 </v>
   <v>       0.37500000       0.62500000       0.12500000 </v>
   <v>       0.87500000       0.62500000       0.12500000 </v>
   <v>       0.37500000       0.12500000       0.62500000 </v>
   <v>       0.87500000       0.12500000       0.62500000 </v>
   <v>       0.37500000       0.62500000       0.62500000 </v>
   <v>       0.87500000       0.62500000       0.62500000 </v>
   <v>       0.25000000       0.25000000       0.25000000 </v>
   <v>       0.75000000       0.25000000       0.25000000 </v>
   <v>       0.25000000       0.75000000       0.25000000 </v>
   <v>       0.75000000       0.75000000       0.25000000 </v>
   <v>       0.25000000       0.25000000       0.75000000 </v>
   <v>       0.75000000       0.25000000       0.75000000 </v>
   <v>       0.25000000       0.75000000       0.75000000 </v>
   <v>       0.75000000       0.75000000       0.75000000 </v>
  </varray>
 </structure>
 <calculation>
  <scstep>
   <time name="dav">   25.27   25.28</time>
   <time name="total">   25.41   25.45</time>
   <energy>
    <i name="alphaZ">    792.27288066 </i>
    <i name="ewald"> -10595.97967916 </i>
    <i name="hartreedc">   -673.20053157 </i>
    <i name="XCdc">    886.28066086 </i>
    <i name="pawpsdc">   2421.21235816 </i>
    <i name="pawaedc">  -2494.84305711 </i>
    <i name="eentropy">     -0.01124548 </i>
    <i name="bandstr">    744.47733030 </i>
    <i name="atom">   9416.14232778 </i>
    <i name="e_fr_energy">    496.35104444 </i>
    <i name="e_wo_entrp">    496.36228992 </i>
    <i name="e_0_energy">    496.35666718 </i>
   </energy>
  </scstep>
  <scstep>
   <time name="dav">   32.08   32.08</time>
   <time name="total">   32.08   32.08</time>
   <energy>
    <i name="e_fr_energy">   -540.05806808 </i>
    <i name="e_wo_entrp">   -540.05806808 </i>
    <i name="e_0_energy">   -540.05806808 </i>
   </energy>
  </scstep>
  <scstep>
   <time name="dav">   32.16   32.16</time>
   <time name="total">   32.16   32.16</time>
   <energy>
    <i name="e_fr_energy">   -584.29393482 </i>
    <i name="e_wo_entrp">   -584.29393482 </i>
    <i name="e_0_energy">   -584.29393482 </i>
   </energy>
  </scstep>
  <scstep>
   <time name="dav">   32.98   32.98</time>
   <time name="total">   32.99   32.99</time>
   <energy>
    <i name="e_fr_energy">   -584.89581152 </i>
    <i name="e_wo_entrp">   -584.89581152 </i>
    <i name="e_0_energy">   -584.89581152 </i>
   </energy>
  </scstep>
  <scstep>
   <time name="dav">   30.38   30.38</time>
   <time name="total">   31.23   31.24</time>
   <energy>
    <i name="e_fr_energy">   -584.90662767 </i>
    <i name="e_wo_entrp">   -584.90662767 </i>
    <i name="e_0_energy">   -584.90662767 </i>
   </energy>
  </scstep>
  <scstep>
   <time name="dav">   29.43   29.43</time>
   <time name="total">   30.40   30.41</time>
   <energy>
    <i name="e_fr_energy">   -575.73847984 </i>
    <i name="e_wo_entrp">   -575.73847984 </i>
    <i name="e_0_energy">   -575.73847984 </i>
   </energy>
  </scstep>
  <scstep>
   <time name="dav">   29.73   29.73</time>
   <time name="total">   30.71   30.71</time>
   <energy>
    <i name="e_fr_energy">   -572.63282381 </i>
    <i name="e_wo_entrp">   -572.63282381 </i>
    <i name="e_0_energy">   -572.63282381 </i>
   </energy>
  </scstep>
  <scstep>
   <time name="dav">   30.92   30.92</time>
   <time name="total">   31.90   31.90</time>
   <energy>
    <i name="e_fr_energy">   -572.67746306 </i>
    <i name="e_wo_entrp">   -572.67746306 </i>
    <i name="e_0_energy">   -572.67746306 </i>
   </energy>
  </scstep>
  <scstep>
   <time name="dav">   31.66   31.66</time>
   <time name="total">   32.64   32.64</time>
   <energy>
    <i name="e_fr_energy">   -572.67971569 </i>
    <i name="e_wo_entrp">   -572.67971569 </i>
    <i name="e_0_energy">   -572.67971569 </i>
   </energy>
  </scstep>
  <scstep>
   <time name="dav">   30.35   30.35</time>
   <time name="total">   31.32   31.32</time>
   <energy>
    <i name="e_fr_energy">   -572.68018260 </i>
    <i name="e_wo_entrp">   -572.68018260 </i>
    <i name="e_0_energy">   -572.68018260 </i>
   </energy>
  </scstep>
  <scstep>
   <time name="dav">   32.84   32.84</time>
   <time name="total">   33.82   33.82</time>
   <energy>
    <i name="e_fr_energy">   -572.68018394 </i>
    <i name="e_wo_entrp">   -572.68018394 </i>
    <i name="e_0_energy">   -572.68018394 </i>
   </energy>
  </scstep>
  <scstep>
   <time name="dav">   31.31   31.31</time>
   <time name="total">   32.29   32.29</time>
   <energy>
    <i name="e_fr_energy">   -572.68018469 </i>
    <i name="e_wo_entrp">   -572.68018469 </i>
    <i name="e_0_energy">   -572.68018469 </i>
   </energy>
  </scstep>
  <scstep>
   <time name="dav">   27.50   27.50</time>
   <time name="total">   28.48   28.48</time>
   <energy>
    <i name="e_fr_energy">   -572.68018479 </i>
    <i name="e_wo_entrp">   -572.68018479 </i>
    <i name="e_0_energy">   -572.68018479 </i>
   </energy>
  </scstep>
  <scstep>
   <time name="dav">   25.55   25.55</time>
   <time name="total">   25.68   25.68</time>
   <energy>
    <i name="alphaZ">    792.27288066 </i>
    <i name="ewald"> -10595.97967916 </i>
    <i name="hartreedc">   -913.78372278 </i>
    <i name="XCdc">    908.66478952 </i>
    <i name="pawpsdc">   3667.46786138 </i>
    <i name="pawaedc">  -3745.72002405 </i>
    <i name="eentropy">     -0.00000000 </i>
    <i name="bandstr">   -101.74461814 </i>
    <i name="atom">   9416.14232778 </i>
    <i name="e_fr_energy">   -572.68018479 </i>
    <i name="e_wo_entrp">   -572.68018479 </i>
    <i name="e_0_energy">   -572.68018479 </i>
   </energy>
  </scstep>
  <structure>
   <crystal>
    <varray name="basis" >
     <v>       7.49627800       0.00000000       0.00000000 </v>
     <v>       0.00000000       7.49627800       0.00000000 </v>
     <v>       0.00000000       0.00000000       7.49627800 </v>
    </varray>
    <i name="volume">    421.24722415 </i>
    <varray name="rec_basis" >
     <v>       0.13339954       0.00000000       0.00000000 </v>
     <v>       0.00000000       0.13339954       0.00000000 </v>
     <v>       0.00000000       0.00000000       0.13339954 </v>
    </varray>
   </crystal>
   <varray name="positions" >
    <v>       0.12500000       0.37500000       0.12500000 </v>
    <v>       0.62500000       0.37500000       0.12500000 </v>
    <v>       0.12500000       0.87500000       0.12500000 </v>
    <v>       0.62500000       0.87500000       0.12500000 </v>
    <v>       0.12500000       0.37500000       0.62500000 </v>
    <v>       0.62500000       0.37500000       0.62500000 </v>
    <v>       0.12500000       0.87500000       0.62500000 </v>
    <v>       0.62500000       0.87500000       0.62500000 </v>
    <v>       0.00000000       0.00000000       0.25000000 </v>
    <v>       0.50000000       0.00000000       0.25000000 </v>
    <v>       0.00000000       0.50000000       0.25000000 </v>
    <v>       0.50000000       0.50000000       0.25000000 </v>
    <v>       0.00000000       0.00000000       0.75000000 </v>
    <v>       0.50000000       0.00000000       0.75000000 </v>
    <v>       0.00000000       0.50000000       0.75000000 </v>
    <v>       0.50000000       0.50000000       0.75000000 </v>
    <v>       0.12500000       0.12500000       0.37500000 </v>
    <v>       0.62500000       0.12500000       0.37500000 </v>
    <v>       0.12500000       0.62500000       0.37500000 </v>
    <v>       0.62500000       0.62500000       0.37500000 </v>
    <v>       0.12500000       0.12500000       0.87500000 </v>
    <v>       0.62500000       0.12500000       0.87500000 </v>
    <v>       0.12500000       0.62500000       0.87500000 </v>
    <v>       0.62500000       0.62500000       0.87500000 </v>
    <v>       0.00000000       0.25000000       0.00000000 </v>
    <v>       0.50000000       0.25000000       0.00000000 </v>
    <v>       0.00000000       0.75000000       0.00000000 </v>
    <v>       0.50000000       0.75000000       0.00000000 </v>
    <v>       0.00000000       0.25000000       0.50000000 </v>
    <v>       0.50000000       0.25000000       0.50000000 </v>
    <v>       0.00000000       0.75000000       0.50000000 </v>
    <v>       0.50000000       0.75000000       0.50000000 </v>
    <v>       0.37500000       0.37500000       0.37500000 </v>
    <v>       0.87500000       0.37500000       0.37500000 </v>
    <v>       0.37500000       0.87500000       0.37500000 </v>
    <v>       0.87500000       0.87500000       0.37500000 </v>
    <v>       0.37500000       0.37500000       0.87500000 </v>
    <v>       0.87500000       0.37500000       0.87500000 </v>
    <v>       0.37500000       0.87500000       0.87500000 </v>
    <v>       0.87500000       0.87500000       0.87500000 </v>
    <v>       0.25000000       0.00000000       0.00000000 </v>
    <v>       0.75000000       0.00000000       0.00000000 </v>
    <v>       0.25000000       0.50000000       0.00000000 </v>
    <v>       0.75000000       0.50000000       0.00000000 </v>
    <v>       0.25000000       0.00000000       0.50000000 </v>
    <v>       0.75000000       0.00000000       0.50000000 </v>
    <v>       0.25000000       0.50000000       0.50000000 </v>
    <v>       0.75000000       0.50000000       0.50000000 </v>
    <v>       0.37500000       0.12500000       0.12500000 </v>
    <v>       0.87500000       0.12500000       0.12500000 </v>
    <v>       0.37500000       0.62500000       0.12500000 </v>
    <v>       0.87500000       0.62500000       0.12500000 </v>
    <v>       0.37500000       0.12500000       0.62500000 </v>
    <v>       0.87500000       0.12500000       0.62500000 </v>
    <v>       0.37500000       0.62500000       0.62500000 </v>
    <v>       0.87500000       0.62500000       0.62500000 </v>
    <v>       0.25000000       0.25000000       0.25000000 </v>
    <v>       0.75000000       0.25000000       0.25000000 </v>
    <v>       0.25000000       0.75000000       0.25000000 </v>
    <v>       0.75000000       0.75000000       0.25000000 </v>
    <v>       0.25000000       0.25000000       0.75000000 </v>
    <v>       0.75000000       0.25000000       0.75000000 </v>
    <v>       0.25000000       0.75000000       0.75000000 </v>
    <v>       0.75000000       0.75000000       0.75000000 </v>
   </varray>
  </structure>
  <varray name="forces" >
   <v>       0.00000000       0.00000000      -0.00000000 </v>
   <v>       0.00000000       0.00000000      -0.00000000 </v>
   <v>       0.00000000       0.00000000       0.00000000 </v>
   <v>       0.00000000       0.00000000      -0.00000000 </v>
   <v>       0.00000000      -0.00000000       0.00000000 </v>
   <v>       0.00000000      -0.00000000       0.00000000 </v>
   <v>       0.00000000      -0.00000000      -0.00000000 </v>
   <v>       0.00000000       0.00000000      -0.00000000 </v>
   <v>      -0.00000000       0.00000000      -0.00000000 </v>
   <v>      -0.00000000      -0.00000000       0.00000000 </v>
   <v>      -0.00000000      -0.00000000      -0.00000000 </v>
   <v>      -0.00000000      -0.00000000      -0.00000000 </v>
   <v>      -0.00000000      -0.00000000      -0.00000000 </v>
   <v>      -0.00000000       0.00000000       0.00000000 </v>
   <v>      -0.00000000       0.00000000      -0.00000000 </v>
   <v>      -0.00000000       0.00000000      -0.00000000 </v>
   <v>       0.00000000      -0.00000000       0.00000000 </v>
   <v>       0.00000000       0.00000000       0.00000000 </v>
   <v>       0.00000000       0.00000000       0.00000000 </v>
   <v>       0.00000000      -0.00000000       0.00000000 </v>
   <v>       0.00000000       0.00000000       0.00000000 </v>
   <v>       0.00000000       0.00000000      -0.00000000 </v>
   <v>       0.00000000      -0.00000000       0.00000000 </v>
   <v>       0.00000000       0.00000000       0.00000000 </v>
   <v>      -0.00000000      -0.00000000      -0.00000000 </v>
   <v>      -0.00000000       0.00000000      -0.00000000 </v>
   <v>      -0.00000000       0.00000000       0.00000000 </v>
   <v>       0.00000000      -0.00000000      -0.00000000 </v>
   <v>      -0.00000000       0.00000000       0.00000000 </v>
   <v>      -0.00000000      -0.00000000       0.00000000 </v>
   <v>      -0.00000000      -0.00000000       0.00000000 </v>
   <v>      -0.00000000      -0.00000000      -0.00000000 </v>
   <v>       0.00000000      -0.00000000       0.00000000 </v>
   <v>       0.00000000       0.00000000      -0.00000000 </v>
   <v>       0.00000000       0.00000000       0.00000000 </v>
   <v>       0.00000000      -0.00000000       0.00000000 </v>
   <v>       0.00000000       0.00000000       0.00000000 </v>
   <v>       0.00000000       0.00000000      -0.00000000 </v>
   <v>       0.00000000       0.00000000       0.00000000 </v>
   <v>       0.00000000      -0.00000000       0.00000000 </v>
   <v>      -0.00000000       0.00000000      -0.00000000 </v>
   <v>      -0.00000000      -0.00000000      -0.00000000 </v>
   <v>      -0.00000000       0.00000000      -0.00000000 </v>
   <v>      -0.00000000      -0.00000000       0.00000000 </v>
   <v>      -0.00000000       0.00000000       0.00000000 </v>
   <v>      -0.00000000       0.00000000       0.00000000 </v>
   <v>      -0.00000000      -0.00000000      -0.00000000 </v>
   <v>      -0.00000000      -0.00000000       0.00000000 </v>
   <v>       0.00000000       0.00000000       0.00000000 </v>
   <v>       0.00000000       0.00000000      -0.00000000 </v>
   <v>       0.00000000       0.00000000      -0.00000000 </v>
   <v>       0.00000000       0.00000000      -0.00000000 </v>
   <v>       0.00000000       0.00000000       0.00000000 </v>
   <v>       0.00000000      -0.00000000      -0.00000000 </v>
   <v>       0.00000000      -0.00000000       0.00000000 </v>
   <v>       0.00000000       0.00000000      -0.00000000 </v>
   <v>      -0.00000000      -0.00000000      -0.00000000 </v>
   <v>      -0.00000000      -0.00000000      -0.00000000 </v>
   <v>      -0.00000000      -0.00000000      -0.00000000 </v>
   <v>      -0.00000000       0.00000000       0.00000000 </v>
   <v>      -0.00000000      -0.00000000      -0.00000000 </v>
   <v>      -0.00000000      -0.00000000      -0.00000000 </v>
   <v>      -0.00000000       0.00000000      -0.00000000 </v>
   <v>      -0.00000000       0.00000000      -0.00000000 </v>
  </varray>
  <varray name="stress" >
   <v>    -513.07712732       0.00000000       0.00000000 </v>
   <v>      -0.00000000    -513.07712732      -0.00000000 </v>
   <v>       0.00000000      -0.00000000    -513.07712732 </v>
  </varray>
  <energy>
   <i name="e_fr_energy">   -572.68018479 </i>
   <i name="e_wo_entrp">   -572.68018479 </i>
   <i name="e_0_energy">     -0.00000000 </i>
  </energy>
  <kpoints>
   <generation param="Gamma">
    <v type="int" name="divisions">       8        8        8 </v>
    <v name="usershift">      0.00000000       0.00000000       0.00000000 </v>
    <v name="genvec1">      0.12500000       0.00000000       0.00000000 </v>
    <v name="genvec2">      0.00000000       0.12500000       0.00000000 </v>
    <v name="genvec3">      0.00000000       0.00000000       0.12500000 </v>
    <v name="shift">      0.00000000       0.00000000       0.00000000 </v>
   </generation>
   <varray name="kpointlist" >
    <v>       0.00000000       0.00000000       0.00000000 </v>
    <v>       0.12500000       0.00000000       0.00000000 </v>
    <v>       0.25000000       0.00000000       0.00000000 </v>
    <v>       0.37500000       0.00000000       0.00000000 </v>
    <v>       0.50000000       0.00000000       0.00000000 </v>
    <v>       0.00000000       0.12500000       0.00000000 </v>
    <v>       0.12500000       0.12500000       0.00000000 </v>
    <v>       0.25000000       0.12500000       0.00000000 </v>
    <v>       0.37500000       0.12500000       0.00000000 </v>
    <v>       0.50000000       0.12500000       0.00000000 </v>
    <v>       0.00000000       0.25000000       0.00000000 </v>
    <v>       0.12500000       0.25000000       0.00000000 </v>
    <v>       0.25000000       0.25000000       0.00000000 </v>
    <v>       0.37500000       0.25000000       0.00000000 </v>
    <v>       0.50000000       0.25000000       0.00000000 </v>
    <v>       0.00000000       0.37500000       0.00000000 </v>
    <v>       0.12500000       0.37500000       0.00000000 </v>
    <v>       0.25000000       0.37500000       0.00000000 </v>
    <v>       0.37500000       0.37500000       0.00000000 </v>
    <v>       0.50000000       0.37500000       0.00000000 </v>
    <v>       0.00000000       0.50000000       0.00000000 </v>
    <v>       0.12500000       0.50000000       0.00000000 </v>
    <v>       0.25000000       0.50000000       0.00000000 </v>
    <v>       0.37500000       0.50000000       0.00000000 </v>
    <v>       0.50000000       0.50000000       0.00000000 </v>
    <v>       0.00000000       0.12500000       0.12500000 </v>
    <v>       0.12500000       0.12500000       0.12500000 </v>
    <v>       0.25000000       0.12500000       0.12500000 </v>
    <v>       0.37500000       0.12500000       0.12500000 </v>
    <v>       0.50000000       0.12500000       0.12500000 </v>
    <v>       0.00000000       0.25000000       0.12500000 </v>
    <v>       0.12500000       0.25000000       0.12500000 </v>
    <v>       0.25000000       0.25000000       0.12500000 </v>
    <v>       0.37500000       0.25000000       0.12500000 </v>
    <v>       0.50000000       0.25000000       0.12500000 </v>
    <v>       0.00000000       0.37500000       0.12500000 </v>
    <v>       0.12500000       0.37500000       0.12500000 </v>
    <v>       0.25000000       0.37500000       0.12500000 </v>
    <v>       0.37500000       0.37500000       0.12500000 </v>
    <v>       0.50000000       0.37500000       0.12500000 </v>
    <v>       0.00000000       0.50000000       0.12500000 </v>
    <v>       0.12500000       0.50000000       0.12500000 </v>
    <v>       0.25000000       0.50000000       0.12500000 </v>
    <v>       0.37500000       0.50000000       0.12500000 </v>
    <v>       0.50000000       0.50000000       0.12500000 </v>
    <v>       0.00000000      -0.37500000       0.12500000 </v>
    <v>       0.12500000      -0.37500000       0.12500000 </v>
    <v>       0.25000000      -0.37500000       0.12500000 </v>
    <v>       0.37500000      -0.37500000       0.12500000 </v>
    <v>       0.50000000      -0.37500000       0.12500000 </v>
    <v>       0.00000000      -0.25000000       0.12500000 </v>
    <v>       0.12500000      -0.25000000       0.12500000 </v>
    <v>       0.25000000      -0.25000000       0.12500000 </v>
    <v>       0.37500000      -0.25000000       0.12500000 </v>
    <v>       0.50000000      -0.25000000       0.12500000 </v>
    <v>       0.00000000      -0.12500000       0.12500000 </v>
    <v>       0.12500000      -0.12500000       0.12500000 </v>
    <v>       0.25000000      -0.12500000       0.12500000 </v>
    <v>       0.37500000      -0.12500000       0.12500000 </v>
    <v>       0.50000000      -0.12500000       0.12500000 </v>
    <v>       0.00000000       0.25000000       0.25000000 </v>
    <v>       0.12500000       0.25000000       0.25000000 </v>
    <v>       0.25000000       0.25000000       0.25000000 </v>
    <v>       0.37500000       0.25000000       0.25000000 </v>
    <v>       0.50000000       0.25000000       0.25000000 </v>
    <v>       0.00000000       0.37500000       0.25000000 </v>
    <v>       0.12500000       0.37500000       0.25000000 </v>
    <v>       0.25000000       0.37500000       0.25000000 </v>
    <v>       0.37500000       0.37500000       0.25000000 </v>
    <v>       0.50000000       0.37500000       0.25000000 </v>
    <v>       0.00000000       0.50000000       0.25000000 </v>
    <v>       0.12500000       0.50000000       0.25000000 </v>
    <v>       0.25000000       0.50000000       0.25000000 </v>
    <v>       0.37500000       0.50000000       0.25000000 </v>
    <v>       0.50000000       0.50000000       0.25000000 </v>
    <v>       0.00000000      -0.37500000       0.25000000 </v>
    <v>       0.12500000      -0.37500000       0.25000000 </v>
    <v>       0.25000000      -0.37500000       0.25000000 </v>
    <v>       0.37500000      -0.37500000       0.25000000 </v>
    <v>       0.50000000      -0.37500000       0.25000000 </v>
    <v>       0.00000000      -0.25000000       0.25000000 </v>
    <v>       0.12500000      -0.25000000       0.25000000 </v>
    <v>       0.25000000      -0.25000000       0.25000000 </v>
    <v>       0.37500000      -0.25000000       0.25000000 </v>
    <v>       0.50000000      -0.25000000       0.25000000 </v>
    <v>       0.00000000       0.37500000       0.37500000 </v>
    <v>       0.12500000       0.37500000       0.37500000 </v>
    <v>       0.25000000       0.37500000       0.37500000 </v>
    <v>       0.37500000       0.37500000       0.37500000 </v>
    <v>       0.50000000       0.37500000       0.37500000 </v>
    <v>       0.00000000       0.50000000       0.37500000 </v>
    <v>       0.12500000       0.50000000       0.37500000 </v>
    <v>       0.25000000       0.50000000       0.37500000 </v>
    <v>       0.37500000       0.50000000       0.37500000 </v>
    <v>       0.50000000       0.50000000       0.37500000 </v>
    <v>       0.00000000      -0.37500000       0.37500000 </v>
    <v>       0.12500000      -0.37500000       0.37500000 </v>
    <v>       0.25000000      -0.37500000       0.37500000 </v>
    <v>       0.37500000      -0.37500000       0.37500000 </v>
    <v>       0.50000000      -0.37500000       0.37500000 </v>
    <v>       0.00000000       0.50000000       0.50000000 </v>
    <v>       0.12500000       0.50000000       0.50000000 </v>
    <v>       0.25000000       0.50000000       0.50000000 </v>
    <v>       0.37500000       0.50000000       0.50000000 </v>
    <v>       0.50000000       0.50000000       0.50000000 </v>
   </varray>
   <varray name="weights" >
    <v>       0.00195312 </v>
    <v>       0.00390625 </v>
    <v>       0.00390625 </v>
    <v>       0.00390625 </v>
    <v>       0.00195312 </v>
    <v>       0.00781250 </v>
    <v>       0.01562500 </v>
    <v>       0.01562500 </v>
    <v>       0.01562500 </v>
    <v>       0.00781250 </v>
    <v>       0.00781250 </v>
    <v>       0.01562500 </v>
    <v>       0.01562500 </v>
    <v>       0.01562500 </v>
    <v>       0.00781250 </v>
    <v>       0.00781250 </v>
    <v>       0.01562500 </v>
    <v>       0.01562500 </v>
    <v>       0.01562500 </v>
    <v>       0.00781250 </v>
    <v>       0.00390625 </v>
    <v>       0.00781250 </v>
    <v>       0.00781250 </v>
    <v>       0.00781250 </v>
    <v>       0.00390625 </v>
    <v>       0.00390625 </v>
    <v>       0.00781250 </v>
    <v>       0.00781250 </v>
    <v>       0.00781250 </v>
    <v>       0.00390625 </v>
    <v>       0.00781250 </v>
    <v>       0.01562500 </v>
    <v>       0.01562500 </v>
    <v>       0.01562500 </v>
    <v>       0.00781250 </v>
    <v>       0.00781250 </v>
    <v>       0.01562500 </v>
    <v>       0.01562500 </v>
    <v>       0.01562500 </v>
    <v>       0.00781250 </v>
    <v>       0.00781250 </v>
    <v>       0.01562500 </v>
    <v>       0.01562500 </v>
    <v>       0.01562500 </v>
    <v>       0.00781250 </v>
    <v>       0.00781250 </v>
    <v>       0.01562500 </v>
    <v>       0.01562500 </v>
    <v>       0.01562500 </v>
    <v>       0.00781250 </v>
    <v>       0.00781250 </v>
    <v>       0.01562500 </v>
    <v>       0.01562500 </v>
    <v>       0.01562500 </v>
    <v>       0.00781250 </v>
    <v>       0.00390625 </v>
    <v>       0.00781250 </v>
    <v>       0.00781250 </v>
    <v>       0.00781250 </v>
    <v>       0.00390625 </v>
    <v>       0.00390625 </v>
    <v>       0.00781250 </v>
    <v>       0.00781250 </v>
    <v>       0.00781250 </v>
    <v>       0.00390625 </v>
    <v>       0.00781250 </v>
    <v>       0.01562500 </v>
    <v>       0.01562500 </v>
    <v>       0.01562500 </v>
    <v>       0.00781250 </v>
    <v>       0.00781250 </v>
    <v>       0.01562500 </v>
    <v>       0.01562500 </v>
    <v>       0.01562500 </v>
    <v>       0.00781250 </v>
    <v>       0.00781250 </v>
    <v>       0.01562500 </v>
    <v>       0.01562500 </v>
    <v>       0.01562500 </v>
    <v>       0.00781250 </v>
    <v>       0.00390625 </v>
    <v>       0.00781250 </v>
    <v>       0.00781250 </v>
    <v>       0.00781250 </v>
    <v>       0.00390625 </v>
    <v>       0.00390625 </v>
    <v>       0.00781250 </v>
    <v>       0.00781250 </v>
    <v>       0.00781250 </v>
    <v>       0.00390625 </v>
    <v>       0.00781250 </v>
    <v>       0.01562500 </v>
    <v>       0.01562500 </v>
    <v>       0.01562500 </v>
    <v>       0.00781250 </v>
    <v>       0.00390625 </v>
    <v>       0.00781250 </v>
    <v>       0.00781250 </v>
    <v>       0.00781250 </v>
    <v>       0.00390625 </v>
    <v>       0.00195312 </v>
    <v>       0.00390625 </v>
    <v>       0.00390625 </v>
    <v>       0.00390625 </v>
    <v>       0.00195312 </v>
   </varray>
  </kpoints>
  <scstep>
   <time name="total">  101.77  101.77</time>
   <energy>
    <i name="e_fr_energy">   -339.72413856 </i>
    <i name="e_wo_entrp">   -339.72413856 </i>
    <i name="e_0_energy">   -339.72413856 </i>
   </energy>
  </scstep>
  <scstep>
   <time name="total">   74.94   74.95</time>
   <energy>
    <i name="e_fr_energy">   -296.70929946 </i>
    <i name="e_wo_entrp">   -296.70929946 </i>
    <i name="e_0_energy">   -296.70929946 </i>
   </energy>
  </scstep>
  <scstep>
   <time name="total">   76.54   76.54</time>
   <energy>
    <i name="e_fr_energy">   -296.66893357 </i>
    <i name="e_wo_entrp">   -296.66893357 </i>
    <i name="e_0_energy">   -296.66893357 </i>
   </energy>
  </scstep>
  <scstep>
   <time name="total">   77.04   77.04</time>
   <energy>
    <i name="e_fr_energy">   -297.08906137 </i>
    <i name="e_wo_entrp">   -297.08906137 </i>
    <i name="e_0_energy">   -297.08906137 </i>
   </energy>
  </scstep>
  <scstep>
   <time name="total">   77.51   77.51</time>
   <energy>
    <i name="e_fr_energy">   -297.21346110 </i>
    <i name="e_wo_entrp">   -297.21346110 </i>
    <i name="e_0_energy">   -297.21346110 </i>
   </energy>
  </scstep>
  <scstep>
   <time name="total">   78.56   78.57</time>
   <energy>
    <i name="e_fr_energy">   -297.16529003 </i>
    <i name="e_wo_entrp">   -297.16529003 </i>
    <i name="e_0_energy">   -297.16529003 </i>
   </energy>
  </scstep>
  <scstep>
   <time name="total">   78.95   78.95</time>
   <energy>
    <i name="e_fr_energy">   -297.14495139 </i>
    <i name="e_wo_entrp">   -297.14495139 </i>
    <i name="e_0_energy">   -297.14495139 </i>
   </energy>
  </scstep>
  <scstep>
   <time name="total">   81.78   81.79</time>
   <energy>
    <i name="e_fr_energy">   -297.14409776 </i>
    <i name="e_wo_entrp">   -297.14409776 </i>
    <i name="e_0_energy">   -297.14409776 </i>
   </energy>
  </scstep>
  <scstep>
   <time name="total">   83.87   83.87</time>
   <energy>
    <i name="e_fr_energy">   -297.14351048 </i>
    <i name="e_wo_entrp">   -297.14351048 </i>
    <i name="e_0_energy">   -297.14351048 </i>
   </energy>
  </scstep>
  <scstep>
   <time name="total">   85.49   85.50</time>
   <energy>
    <i name="e_fr_energy">   -297.14390337 </i>
    <i name="e_wo_entrp">   -297.14390337 </i>
    <i name="e_0_energy">   -297.14390337 </i>
   </energy>
  </scstep>
  <scstep>
   <time name="total">   85.08   85.09</time>
   <energy>
    <i name="e_fr_energy">   -297.14391562 </i>
    <i name="e_wo_entrp">   -297.14391562 </i>
    <i name="e_0_energy">   -297.14391562 </i>
   </energy>
  </scstep>
  <kpoints>
   <generation param="Gamma">
    <v type="int" name="divisions">       8        8        8 </v>
    <v name="usershift">      0.00000000       0.00000000       0.00000000 </v>
    <v name="genvec1">      0.12500000       0.00000000       0.00000000 </v>
    <v name="genvec2">      0.00000000       0.12500000       0.00000000 </v>
    <v name="genvec3">      0.00000000       0.00000000       0.12500000 </v>
    <v name="shift">      0.00000000       0.00000000       0.00000000 </v>
   </generation>
   <varray name="kpointlist" >
    <v>       0.00000000       0.00000000       0.00000000 </v>
    <v>       0.12500000       0.00000000       0.00000000 </v>
    <v>       0.25000000       0.00000000       0.00000000 </v>
    <v>       0.37500000       0.00000000       0.00000000 </v>
    <v>       0.50000000       0.00000000       0.00000000 </v>
    <v>       0.12500000       0.12500000       0.00000000 </v>
    <v>       0.25000000       0.12500000       0.00000000 </v>
    <v>       0.37500000       0.12500000       0.00000000 </v>
    <v>       0.50000000       0.12500000       0.00000000 </v>
    <v>       0.25000000       0.25000000       0.00000000 </v>
    <v>       0.37500000       0.25000000       0.00000000 </v>
    <v>       0.50000000       0.25000000       0.00000000 </v>
    <v>       0.37500000       0.37500000       0.00000000 </v>
    <v>       0.50000000       0.37500000       0.00000000 </v>
    <v>       0.50000000       0.50000000       0.00000000 </v>
    <v>       0.12500000       0.12500000       0.12500000 </v>
    <v>       0.25000000       0.12500000       0.12500000 </v>
    <v>       0.37500000       0.12500000       0.12500000 </v>
    <v>       0.50000000       0.12500000       0.12500000 </v>
    <v>       0.25000000       0.25000000       0.12500000 </v>
    <v>       0.37500000       0.25000000       0.12500000 </v>
    <v>       0.50000000       0.25000000       0.12500000 </v>
    <v>       0.37500000       0.37500000       0.12500000 </v>
    <v>       0.50000000       0.37500000       0.12500000 </v>
    <v>       0.50000000       0.50000000       0.12500000 </v>
    <v>       0.25000000       0.25000000       0.25000000 </v>
    <v>       0.37500000       0.25000000       0.25000000 </v>
    <v>       0.50000000       0.25000000       0.25000000 </v>
    <v>       0.37500000       0.37500000       0.25000000 </v>
    <v>       0.50000000       0.37500000       0.25000000 </v>
    <v>       0.50000000       0.50000000       0.25000000 </v>
    <v>       0.37500000       0.37500000       0.37500000 </v>
    <v>       0.50000000       0.37500000       0.37500000 </v>
    <v>       0.50000000       0.50000000       0.37500000 </v>
    <v>       0.50000000       0.50000000       0.50000000 </v>
   </varray>
   <varray name="weights" >
    <v>       0.00195312 </v>
    <v>       0.01171875 </v>
    <v>       0.01171875 </v>
    <v>       0.01171875 </v>
    <v>       0.00585938 </v>
    <v>       0.02343750 </v>
    <v>       0.04687500 </v>
    <v>       0.04687500 </v>
    <v>       0.02343750 </v>
    <v>       0.02343750 </v>
    <v>       0.04687500 </v>
    <v>       0.02343750 </v>
    <v>       0.02343750 </v>
    <v>       0.02343750 </v>
    <v>       0.00585938 </v>
    <v>       0.01562500 </v>
    <v>       0.04687500 </v>
    <v>       0.04687500 </v>
    <v>       0.02343750 </v>
    <v>       0.04687500 </v>
    <v>       0.09375000 </v>
    <v>       0.04687500 </v>
    <v>       0.04687500 </v>
    <v>       0.04687500 </v>
    <v>       0.01171875 </v>
    <v>       0.01562500 </v>
    <v>       0.04687500 </v>
    <v>       0.02343750 </v>
    <v>       0.04687500 </v>
    <v>       0.04687500 </v>
    <v>       0.01171875 </v>
    <v>       0.01562500 </v>
    <v>       0.02343750 </v>
    <v>       0.01171875 </v>
    <v>       0.00195312 </v>
   </varray>
  </kpoints>
  <dynmat>
   <varray name="hessian" >
    <v>      -2.70919432       0.00000000       0.00000000       0.01018937      -0.00000000      -0.00000000       0.00736025      -0.00000000      -0.00000000       0.00626302       0.00000000      -0.00000000       0.00736025       0.00000000       0.00000000       0.00626302      -0.00000000      -0.00000000      -0.04505085      -0.00000000       0.00000000       0.00361163      -0.00000000       0.00000000      -0.01155218      -0.00689742      -0.00043718       0.00506563      -0.00592658      -0.01436330       0.56398853      -0.00981979      -0.00981979      -0.00471614      -0.00689742      -0.00689742       0.02720976      -0.01436330      -0.01436330      -0.00249908      -0.00256838      -0.00256838      -0.01155218      -0.00043718      -0.00689742       0.00506563      -0.01436330      -0.00592658      -0.10079119       0.04794034      -0.04794034      -0.00322329       0.00242663      -0.00242663      -0.10079119       0.04794034       0.04794034      -0.00322329       0.00242663       0.00242663      -0.10079119      -0.04794034      -0.04794034      -0.00322329      -0.00242663      -0.00242663      -0.10079119      -0.04794034       0.04794034      -0.00322329      -0.00242663       0.00242663       0.56398853       0.00981979       0.00981979      -0.00471614       0.00689742       0.00689742      -0.01155218       0.00689742       0.00043718       0.00506563       0.00592658       0.01436330      -0.01155218       0.00043718       0.00689742       0.00506563       0.01436330       0.00592658       0.02720976       0.01436330       0.01436330      -0.00249908       0.00256838       0.00256838       0.09963379      -0.04794034       0.10262938       0.09963379      -0.04794034      -0.10262938       0.00601818      -0.00242663      -0.00672400       0.00601818      -0.00242663       0.00672400       0.09963379       0.04794034      -0.10262938       0.09963379       0.04794034       0.10262938       0.00601818       0.00242663       0.00672400       0.00601818       0.00242663      -0.00672400      -0.01155218       0.00689742      -0.00043718       0.00506563       0.00592658      -0.01436330       0.56398853       0.00981979      -0.00981979      -0.00471614       0.00689742      -0.00689742       0.02720976       0.01436330      -0.01436330      -0.00249908       0.00256838      -0.00256838      -0.01155218       0.00043718      -0.00689742       0.00506563       0.01436330      -0.00592658       0.09963379      -0.10262938       0.04794034       0.09963379       0.10262938       0.04794034       0.09963379       0.10262938      -0.04794034       0.09963379      -0.10262938      -0.04794034       0.00601818       0.00672400       0.00242663       0.00601818      -0.00672400       0.00242663       0.00601818      -0.00672400      -0.00242663       0.00601818       0.00672400      -0.00242663       0.56398853      -0.00981979       0.00981979      -0.00471614      -0.00689742       0.00689742      -0.01155218      -0.00689742       0.00043718       0.00506563      -0.00592658       0.01436330      -0.01155218      -0.00043718       0.00689742       0.00506563      -0.01436330       0.00592658       0.02720976      -0.01436330       0.01436330      -0.00249908      -0.00256838       0.00256838 </v>
    <v>       0.00000000      -2.70919432       0.00000000      -0.00000000       0.00736025      -0.00000000      -0.00000000       0.01018937      -0.00000000       0.00000000       0.00626302      -0.00000000       0.00000000       0.00736025       0.00000000      -0.00000000      -0.04505085       0.00000000      -0.00000000       0.00626302      -0.00000000      -0.00000000       0.00361163       0.00000000      -0.00689742      -0.00471614       0.00689742      -0.00592658       0.00506563       0.01436330      -0.00981979       0.56398853       0.00981979      -0.00689742      -0.01155218       0.00043718      -0.01436330       0.00506563       0.00592658      -0.00256838      -0.00249908       0.00256838      -0.00043718      -0.01155218       0.00689742      -0.01436330       0.02720976       0.01436330      -0.04794034       0.09963379      -0.10262938      -0.00242663       0.00601818       0.00672400      -0.04794034       0.09963379       0.10262938      -0.00242663       0.00601818      -0.00672400       0.04794034       0.09963379       0.10262938       0.00242663       0.00601818      -0.00672400       0.04794034       0.09963379      -0.10262938       0.00242663       0.00601818       0.00672400       0.00981979       0.56398853       0.00981979       0.00689742      -0.01155218       0.00043718       0.00689742      -0.00471614       0.00689742       0.00592658       0.00506563       0.01436330       0.00043718      -0.01155218       0.00689742       0.01436330       0.02720976       0.01436330       0.01436330       0.00506563       0.00592658       0.00256838      -0.00249908       0.00256838       0.04794034      -0.10079119       0.04794034       0.04794034      -0.10079119      -0.04794034       0.00242663      -0.00322329       0.00242663       0.00242663      -0.00322329      -0.00242663      -0.04794034      -0.10079119       0.04794034      -0.04794034      -0.10079119      -0.04794034      -0.00242663      -0.00322329       0.00242663      -0.00242663      -0.00322329      -0.00242663       0.00689742      -0.00471614      -0.00689742       0.00592658       0.00506563      -0.01436330       0.00981979       0.56398853      -0.00981979       0.00689742      -0.01155218      -0.00043718       0.01436330       0.00506563      -0.00592658       0.00256838      -0.00249908      -0.00256838       0.00043718      -0.01155218      -0.00689742       0.01436330       0.02720976      -0.01436330      -0.10262938       0.09963379      -0.04794034       0.10262938       0.09963379       0.04794034       0.10262938       0.09963379      -0.04794034      -0.10262938       0.09963379       0.04794034       0.00672400       0.00601818      -0.00242663      -0.00672400       0.00601818       0.00242663      -0.00672400       0.00601818      -0.00242663       0.00672400       0.00601818       0.00242663      -0.00981979       0.56398853      -0.00981979      -0.00689742      -0.01155218      -0.00043718      -0.00689742      -0.00471614      -0.00689742      -0.00592658       0.00506563      -0.01436330      -0.00043718      -0.01155218      -0.00689742      -0.01436330       0.02720976      -0.01436330      -0.01436330       0.00506563      -0.00592658      -0.00256838      -0.00249908      -0.00256838 </v>
    <v>       0.00000000       0.00000000      -2.70919432      -0.00000000      -0.00000000       0.00736025      -0.00000000      -0.00000000       0.00736025      -0.00000000      -0.00000000      -0.04505085       0.00000000       0.00000000       0.01018937      -0.00000000       0.00000000       0.00626302       0.00000000      -0.00000000       0.00626302       0.00000000       0.00000000       0.00361163      -0.00043718       0.00689742      -0.01155218      -0.01436330       0.01436330       0.02720976      -0.00981979       0.00981979       0.56398853      -0.00689742       0.00043718      -0.01155218      -0.01436330       0.00592658       0.00506563      -0.00256838       0.00256838      -0.00249908      -0.00689742       0.00689742      -0.00471614      -0.00592658       0.01436330       0.00506563       0.04794034      -0.10262938       0.09963379       0.00242663       0.00672400       0.00601818      -0.04794034       0.10262938       0.09963379      -0.00242663      -0.00672400       0.00601818       0.04794034       0.10262938       0.09963379       0.00242663      -0.00672400       0.00601818      -0.04794034      -0.10262938       0.09963379      -0.00242663       0.00672400       0.00601818       0.00981979       0.00981979       0.56398853       0.00689742       0.00043718      -0.01155218       0.00043718       0.00689742      -0.01155218       0.01436330       0.01436330       0.02720976       0.00689742       0.00689742      -0.00471614       0.00592658       0.01436330       0.00506563       0.01436330       0.00592658       0.00506563       0.00256838       0.00256838      -0.00249908       0.10262938      -0.04794034       0.09963379      -0.10262938       0.04794034       0.09963379      -0.00672400      -0.00242663       0.00601818       0.00672400       0.00242663       0.00601818      -0.10262938      -0.04794034       0.09963379       0.10262938       0.04794034       0.09963379       0.00672400      -0.00242663       0.00601818      -0.00672400       0.00242663       0.00601818      -0.00043718      -0.00689742      -0.01155218      -0.01436330      -0.01436330       0.02720976      -0.00981979      -0.00981979       0.56398853      -0.00689742      -0.00043718      -0.01155218      -0.01436330      -0.00592658       0.00506563      -0.00256838      -0.00256838      -0.00249908      -0.00689742      -0.00689742      -0.00471614      -0.00592658      -0.01436330       0.00506563      -0.04794034       0.04794034      -0.10079119      -0.04794034      -0.04794034      -0.10079119       0.04794034       0.04794034      -0.10079119       0.04794034      -0.04794034      -0.10079119      -0.00242663       0.00242663      -0.00322329      -0.00242663      -0.00242663      -0.00322329       0.00242663       0.00242663      -0.00322329       0.00242663      -0.00242663      -0.00322329       0.00981979      -0.00981979       0.56398853       0.00689742      -0.00043718      -0.01155218       0.00043718      -0.00689742      -0.01155218       0.01436330      -0.01436330       0.02720976       0.00689742      -0.00689742      -0.00471614       0.00592658      -0.01436330       0.00506563       0.01436330      -0.00592658       0.00506563       0.00256838      -0.00256838      -0.00249908 </v>
    <v>       0.01018937      -0.00000000      -0.00000000      -2.70919432       0.00000000       0.00000000       0.00626302       0.00000000      -0.00000000       0.00736025      -0.00000000      -0.00000000       0.00626302      -0.00000000      -0.00000000       0.00736025       0.00000000       0.00000000       0.00361163      -0.00000000       0.00000000      -0.04505085      -0.00000000       0.00000000       0.00506563      -0.00592658      -0.01436330      -0.01155218      -0.00689742      -0.00043718      -0.00471614      -0.00689742      -0.00689742       0.56398853      -0.00981979      -0.00981979      -0.00249908      -0.00256838      -0.00256838       0.02720976      -0.01436330      -0.01436330       0.00506563      -0.01436330      -0.00592658      -0.01155218      -0.00043718      -0.00689742      -0.00322329       0.00242663      -0.00242663      -0.10079119       0.04794034      -0.04794034      -0.00322329       0.00242663       0.00242663      -0.10079119       0.04794034       0.04794034      -0.00322329      -0.00242663      -0.00242663      -0.10079119      -0.04794034      -0.04794034      -0.00322329      -0.00242663       0.00242663      -0.10079119      -0.04794034       0.04794034      -0.00471614       0.00689742       0.00689742       0.56398853       0.00981979       0.00981979       0.00506563       0.00592658       0.01436330      -0.01155218       0.00689742       0.00043718       0.00506563       0.01436330       0.00592658      -0.01155218       0.00043718       0.00689742      -0.00249908       0.00256838       0.00256838       0.02720976       0.01436330       0.01436330       0.09963379      -0.04794034      -0.10262938       0.09963379      -0.04794034       0.10262938       0.00601818      -0.00242663       0.00672400       0.00601818      -0.00242663      -0.00672400       0.09963379       0.04794034       0.10262938       0.09963379       0.04794034      -0.10262938       0.00601818       0.00242663      -0.00672400       0.00601818       0.00242663       0.00672400       0.00506563       0.00592658      -0.01436330      -0.01155218       0.00689742      -0.00043718      -0.00471614       0.00689742      -0.00689742       0.56398853       0.00981979      -0.00981979      -0.00249908       0.00256838      -0.00256838       0.02720976       0.01436330      -0.01436330       0.00506563       0.01436330      -0.00592658      -0.01155218       0.00043718      -0.00689742       0.09963379       0.10262938       0.04794034       0.09963379      -0.10262938       0.04794034       0.09963379      -0.10262938      -0.04794034       0.09963379       0.10262938      -0.04794034       0.00601818      -0.00672400       0.00242663       0.00601818       0.00672400       0.00242663       0.00601818       0.00672400      -0.00242663       0.00601818      -0.00672400      -0.00242663      -0.00471614      -0.00689742       0.00689742       0.56398853      -0.00981979       0.00981979       0.00506563      -0.00592658       0.01436330      -0.01155218      -0.00689742       0.00043718       0.00506563      -0.01436330       0.00592658      -0.01155218      -0.00043718       0.00689742      -0.00249908      -0.00256838       0.00256838       0.02720976      -0.01436330       0.01436330 </v>
    <v>      -0.00000000       0.00736025      -0.00000000       0.00000000      -2.70919432       0.00000000       0.00000000       0.00626302      -0.00000000      -0.00000000       0.01018937      -0.00000000      -0.00000000      -0.04505085       0.00000000       0.00000000       0.00736025       0.00000000      -0.00000000       0.00361163       0.00000000      -0.00000000       0.00626302      -0.00000000      -0.00592658       0.00506563       0.01436330      -0.00689742      -0.00471614       0.00689742      -0.00689742      -0.01155218       0.00043718      -0.00981979       0.56398853       0.00981979      -0.00256838      -0.00249908       0.00256838      -0.01436330       0.00506563       0.00592658      -0.01436330       0.02720976       0.01436330      -0.00043718      -0.01155218       0.00689742      -0.00242663       0.00601818       0.00672400      -0.04794034       0.09963379      -0.10262938      -0.00242663       0.00601818      -0.00672400      -0.04794034       0.09963379       0.10262938       0.00242663       0.00601818      -0.00672400       0.04794034       0.09963379       0.10262938       0.00242663       0.00601818       0.00672400       0.04794034       0.09963379      -0.10262938       0.00689742      -0.01155218       0.00043718       0.00981979       0.56398853       0.00981979       0.00592658       0.00506563       0.01436330       0.00689742      -0.00471614       0.00689742       0.01436330       0.02720976       0.01436330       0.00043718      -0.01155218       0.00689742       0.00256838      -0.00249908       0.00256838       0.01436330       0.00506563       0.00592658       0.04794034      -0.10079119      -0.04794034       0.04794034      -0.10079119       0.04794034       0.00242663      -0.00322329      -0.00242663       0.00242663      -0.00322329       0.00242663      -0.04794034      -0.10079119      -0.04794034      -0.04794034      -0.10079119       0.04794034      -0.00242663      -0.00322329      -0.00242663      -0.00242663      -0.00322329       0.00242663       0.00592658       0.00506563      -0.01436330       0.00689742      -0.00471614      -0.00689742       0.00689742      -0.01155218      -0.00043718       0.00981979       0.56398853      -0.00981979       0.00256838      -0.00249908      -0.00256838       0.01436330       0.00506563      -0.00592658       0.01436330       0.02720976      -0.01436330       0.00043718      -0.01155218      -0.00689742       0.10262938       0.09963379       0.04794034      -0.10262938       0.09963379      -0.04794034      -0.10262938       0.09963379       0.04794034       0.10262938       0.09963379      -0.04794034      -0.00672400       0.00601818       0.00242663       0.00672400       0.00601818      -0.00242663       0.00672400       0.00601818       0.00242663      -0.00672400       0.00601818      -0.00242663      -0.00689742      -0.01155218      -0.00043718      -0.00981979       0.56398853      -0.00981979      -0.00592658       0.00506563      -0.01436330      -0.00689742      -0.00471614      -0.00689742      -0.01436330       0.02720976      -0.01436330      -0.00043718      -0.01155218      -0.00689742      -0.00256838      -0.00249908      -0.00256838      -0.01436330       0.00506563      -0.00592658 </v>
    <v>      -0.00000000      -0.00000000       0.00736025       0.00000000       0.00000000      -2.70919432      -0.00000000      -0.00000000      -0.04505085      -0.00000000      -0.00000000       0.00736025      -0.00000000       0.00000000       0.00626302       0.00000000       0.00000000       0.01018937       0.00000000       0.00000000       0.00361163       0.00000000      -0.00000000       0.00626302      -0.01436330       0.01436330       0.02720976      -0.00043718       0.00689742      -0.01155218      -0.00689742       0.00043718      -0.01155218      -0.00981979       0.00981979       0.56398853      -0.00256838       0.00256838      -0.00249908      -0.01436330       0.00592658       0.00506563      -0.00592658       0.01436330       0.00506563      -0.00689742       0.00689742      -0.00471614       0.00242663       0.00672400       0.00601818       0.04794034      -0.10262938       0.09963379      -0.00242663      -0.00672400       0.00601818      -0.04794034       0.10262938       0.09963379       0.00242663      -0.00672400       0.00601818       0.04794034       0.10262938       0.09963379      -0.00242663       0.00672400       0.00601818      -0.04794034      -0.10262938       0.09963379       0.00689742       0.00043718      -0.01155218       0.00981979       0.00981979       0.56398853       0.01436330       0.01436330       0.02720976       0.00043718       0.00689742      -0.01155218       0.00592658       0.01436330       0.00506563       0.00689742       0.00689742      -0.00471614       0.00256838       0.00256838      -0.00249908       0.01436330       0.00592658       0.00506563      -0.10262938       0.04794034       0.09963379       0.10262938      -0.04794034       0.09963379       0.00672400       0.00242663       0.00601818      -0.00672400      -0.00242663       0.00601818       0.10262938       0.04794034       0.09963379      -0.10262938      -0.04794034       0.09963379      -0.00672400       0.00242663       0.00601818       0.00672400      -0.00242663       0.00601818      -0.01436330      -0.01436330       0.02720976      -0.00043718      -0.00689742      -0.01155218      -0.00689742      -0.00043718      -0.01155218      -0.00981979      -0.00981979       0.56398853      -0.00256838      -0.00256838      -0.00249908      -0.01436330      -0.00592658       0.00506563      -0.00592658      -0.01436330       0.00506563      -0.00689742      -0.00689742      -0.00471614      -0.04794034      -0.04794034      -0.10079119      -0.04794034       0.04794034      -0.10079119       0.04794034      -0.04794034      -0.10079119       0.04794034       0.04794034      -0.10079119      -0.00242663      -0.00242663      -0.00322329      -0.00242663       0.00242663      -0.00322329       0.00242663      -0.00242663      -0.00322329       0.00242663       0.00242663      -0.00322329       0.00689742      -0.00043718      -0.01155218       0.00981979      -0.00981979       0.56398853       0.01436330      -0.01436330       0.02720976       0.00043718      -0.00689742      -0.01155218       0.00592658      -0.01436330       0.00506563       0.00689742      -0.00689742      -0.00471614       0.00256838      -0.00256838      -0.00249908       0.01436330      -0.00592658       0.00506563 </v>
[...]
      </set>
     </set>
    </set>
   </array>
  </eigenvalues>
  <separator name="orbital magnetization" >
   <v name="MAGDIPOLOUT">      0.00000000      0.00000000      0.00000000</v>
  </separator>
  <dos>
   <i name="efermi">      7.95481792 </i>
   <total>
    <array>
     <dimension dim="1">gridpoints</dimension>
     <dimension dim="2">spin</dimension>
     <field>energy</field>
     <field>total</field>
     <field>integrated</field>
     <set>
      <set comment="spin 1">
       <r>   -13.3555     0.0000     0.0000 </r>
       <r>   -13.2463     0.0000     0.0000 </r>
       <r>   -13.1370     0.0000     0.0000 </r>
       <r>   -13.0278     0.0000     0.0000 </r>
       <r>   -12.9185     0.0000     0.0000 </r>
       <r>   -12.8093     0.0000     0.0000 </r>
       <r>   -12.7000     0.0000     0.0000 </r>
       <r>   -12.5908     0.0000     0.0000 </r>
       <r>   -12.4815     0.0000     0.0000 </r>
       <r>   -12.3723     0.0000     0.0000 </r>
       <r>   -12.2630     0.0000     0.0000 </r>
       <r>   -12.1538     0.0000     0.0000 </r>
       <r>   -12.0445     0.0000     0.0000 </r>
       <r>   -11.9353     0.0039     0.0004 </r>
       <r>   -11.8260     0.2960     0.0328 </r>
       <r>   -11.7168     1.2126     0.1652 </r>
       <r>   -11.6075     1.8134     0.3633 </r>
       <r>   -11.4983     2.4813     0.6344 </r>
       <r>   -11.3890     2.6886     0.9282 </r>
       <r>   -11.2798     3.0338     1.2596 </r>
       <r>   -11.1705     3.6787     1.6615 </r>
       <r>   -11.0613     2.9850     1.9876 </r>
       <r>   -10.9520     4.5734     2.4872 </r>
       <r>   -10.8428     3.9797     2.9220 </r>
       <r>   -10.7335     4.4050     3.4033 </r>
       <r>   -10.6243     4.5588     3.9013 </r>
       <r>   -10.5150     5.3637     4.4873 </r>
       <r>   -10.4058     5.1816     5.0534 </r>
       <r>   -10.2965     4.0328     5.4939 </r>
       <r>   -10.1873     6.3715     6.1900 </r>
       <r>   -10.0780     6.4245     6.8919 </r>
       <r>    -9.9688     5.0890     7.4478 </r>
       <r>    -9.8595     5.9769     8.1008 </r>
       <r>    -9.7503     6.3992     8.7999 </r>
       <r>    -9.6411     7.2615     9.5932 </r>
       <r>    -9.5318     5.5772    10.2025 </r>
       <r>    -9.4226     8.1278    11.0905 </r>
       <r>    -9.3133     5.4732    11.6884 </r>
       <r>    -9.2041     7.3409    12.4904 </r>
       <r>    -9.0948     7.7701    13.3393 </r>
       <r>    -8.9856     9.3764    14.3636 </r>
       <r>    -8.8763     6.3346    15.0557 </r>
       <r>    -8.7671     6.4439    15.7597 </r>
       <r>    -8.6578     9.4952    16.7970 </r>
       <r>    -8.5486     8.0667    17.6783 </r>
       <r>    -8.4393     9.3593    18.7008 </r>
       <r>    -8.3301     7.7414    19.5465 </r>
       <r>    -8.2208     9.2998    20.5625 </r>
       <r>    -8.1116     8.7542    21.5189 </r>
       <r>    -8.0023     8.6771    22.4669 </r>
       <r>    -7.8931     9.5183    23.5067 </r>
       <r>    -7.7838    10.6927    24.6749 </r>
       <r>    -7.6746    11.0823    25.8856 </r>
       <r>    -7.5653     9.1951    26.8902 </r>
       <r>    -7.4561     9.6469    27.9441 </r>
       <r>    -7.3468     9.0234    28.9299 </r>
       <r>    -7.2376    13.8769    30.4459 </r>
       <r>    -7.1283    11.7302    31.7274 </r>
       <r>    -7.0191    12.0032    33.0387 </r>
       <r>    -6.9098    12.3296    34.3857 </r>
       <r>    -6.8006    15.4122    36.0695 </r>
       <r>    -6.6913    12.3932    37.4234 </r>
       <r>    -6.5821    14.2483    38.9800 </r>
       <r>    -6.4728    11.4713    40.2333 </r>
       <r>    -6.3636    14.7321    41.8427 </r>
       <r>    -6.2543    15.2261    43.5062 </r>
       <r>    -6.1451    11.5671    44.7698 </r>
       <r>    -6.0358     9.6551    45.8247 </r>
       <r>    -5.9266    13.1271    47.2588 </r>
       <r>    -5.8173     9.5054    48.2972 </r>
       <r>    -5.7081    11.8842    49.5956 </r>
       <r>    -5.5988    13.0609    51.0225 </r>
       <r>    -5.4896     8.5366    51.9551 </r>
       <r>    -5.3804    11.7179    53.2352 </r>
       <r>    -5.2711     8.6984    54.1855 </r>
       <r>    -5.1619    10.3423    55.3154 </r>
       <r>    -5.0526     8.9470    56.2929 </r>
       <r>    -4.9434     6.0354    56.9522 </r>
       <r>    -4.8341     8.2804    57.8568 </r>
       <r>    -4.7249     8.9594    58.8356 </r>
       <r>    -4.6156    10.1204    59.9413 </r>
       <r>    -4.5064     8.6537    60.8867 </r>
       <r>    -4.3971     5.9495    61.5367 </r>
       <r>    -4.2879     3.5576    61.9253 </r>
       <r>    -4.1786     4.0373    62.3664 </r>
       <r>    -4.0694     5.0630    62.9195 </r>
       <r>    -3.9601     8.1461    63.8095 </r>
       <r>    -3.8509     8.2712    64.7131 </r>
       <r>    -3.7416     6.0438    65.3734 </r>
       <r>    -3.6324     7.8074    66.2263 </r>
       <r>    -3.5231     7.0929    67.0012 </r>
       <r>    -3.4139     8.9946    67.9838 </r>
       <r>    -3.3046     7.9932    68.8571 </r>
       <r>    -3.1954    10.2634    69.9784 </r>
       <r>    -3.0861    15.7620    71.7003 </r>
       <r>    -2.9769    23.8935    74.3107 </r>
       <r>    -2.8676    27.9939    77.3690 </r>
       <r>    -2.7584    20.6430    79.6242 </r>
       <r>    -2.6491    20.9186    81.9095 </r>
       <r>    -2.5399    15.1331    83.5628 </r>
       <r>    -2.4306    16.0654    85.3179 </r>
       <r>    -2.3214    16.3722    87.1066 </r>
       <r>    -2.2121    22.3683    89.5503 </r>
       <r>    -2.1029    15.1341    91.2036 </r>
       <r>    -1.9936     9.3746    92.2278 </r>
       <r>    -1.8844    11.6751    93.5033 </r>
       <r>    -1.7751     9.3974    94.5299 </r>
       <r>    -1.6659    11.3265    95.7674 </r>
       <r>    -1.5566    10.5533    96.9203 </r>
       <r>    -1.4474    13.4793    98.3929 </r>
       <r>    -1.3381     9.0199    99.3783 </r>
       <r>    -1.2289    10.1653   100.4889 </r>
       <r>    -1.1197    12.0320   101.8033 </r>
       <r>    -1.0104     8.4468   102.7261 </r>
       <r>    -0.9012     4.3980   103.2066 </r>
       <r>    -0.7919     7.4145   104.0166 </r>
       <r>    -0.6827     9.3713   105.0404 </r>
       <r>    -0.5734    11.0636   106.2491 </r>
       <r>    -0.4642     5.8787   106.8914 </r>
       <r>    -0.3549     8.2227   107.7897 </r>
       <r>    -0.2457    11.5778   109.0546 </r>
       <r>    -0.1364    13.7593   110.5577 </r>
       <r>    -0.0272    12.5209   111.9256 </r>
       <r>     0.0821    14.7002   113.5316 </r>
       <r>     0.1913    17.3427   115.4263 </r>
       <r>     0.3006    19.1839   117.5221 </r>
       <r>     0.4098    23.5702   120.0971 </r>
       <r>     0.5191    18.8768   122.1594 </r>
       <r>     0.6283    16.0919   123.9174 </r>
       <r>     0.7376    19.1501   126.0095 </r>
       <r>     0.8468    20.6357   128.2639 </r>
       <r>     0.9561    15.4246   129.9491 </r>
       <r>     1.0653    17.9266   131.9075 </r>
       <r>     1.1746    20.6237   134.1606 </r>
       <r>     1.2838    18.0915   136.1371 </r>
       <r>     1.3931    23.5347   138.7082 </r>
       <r>     1.5023    18.4837   140.7276 </r>
       <r>     1.6116    15.7375   142.4469 </r>
       <r>     1.7208    23.1352   144.9744 </r>
       <r>     1.8301    21.7691   147.3526 </r>
       <r>     1.9393    24.3179   150.0093 </r>
       <r>     2.0486    25.3732   152.7813 </r>
       <r>     2.1578    18.1761   154.7670 </r>
       <r>     2.2671    26.2755   157.6376 </r>
       <r>     2.3763    29.0969   160.8164 </r>
       <r>     2.4856    29.7681   164.0685 </r>
       <r>     2.5948    32.8460   167.6569 </r>
       <r>     2.7041    24.1705   170.2975 </r>
       <r>     2.8133    28.7434   173.4376 </r>
       <r>     2.9225    22.7331   175.9212 </r>
       <r>     3.0318    28.8648   179.0746 </r>
       <r>     3.1410    30.8595   182.4460 </r>
       <r>     3.2503    25.5628   185.2387 </r>
       <r>     3.3595    29.9474   188.5104 </r>
       <r>     3.4688    23.8038   191.1109 </r>
       <r>     3.5780    19.2158   193.2103 </r>
       <r>     3.6873    28.2875   196.3006 </r>
       <r>     3.7965    35.0452   200.1293 </r>
       <r>     3.9058    22.6100   202.5994 </r>
       <r>     4.0150    19.9713   204.7812 </r>
       <r>     4.1243    24.2705   207.4327 </r>
       <r>     4.2335    24.3152   210.0891 </r>
       <r>     4.3428    33.1948   213.7156 </r>
       <r>     4.4520    21.5915   216.0745 </r>
       <r>     4.5613    19.2328   218.1756 </r>
       <r>     4.6705    24.2876   220.8290 </r>
       <r>     4.7798    23.0444   223.3466 </r>
       <r>     4.8890    29.3287   226.5507 </r>
       <r>     4.9983    23.9200   229.1639 </r>
       <r>     5.1075    16.7295   230.9916 </r>
       <r>     5.2168    20.8426   233.2686 </r>
       <r>     5.3260    28.7652   236.4112 </r>
       <r>     5.4353    18.9864   238.4854 </r>
       <r>     5.5445    12.1018   239.8075 </r>
       <r>     5.6538    15.8717   241.5415 </r>
       <r>     5.7630    13.8244   243.0518 </r>
       <r>     5.8723    14.9320   244.6831 </r>
       <r>     5.9815    10.7490   245.8574 </r>
       <r>     6.0908     8.8428   246.8235 </r>
       <r>     6.2000    11.2770   248.0555 </r>
       <r>     6.3093     9.7216   249.1175 </r>
       <r>     6.4185     9.1746   250.1199 </r>
       <r>     6.5278     6.1523   250.7920 </r>
       <r>     6.6370     7.4876   251.6100 </r>
       <r>     6.7463     7.2321   252.4001 </r>
       <r>     6.8555     6.6893   253.1309 </r>
       <r>     6.9648     4.1956   253.5893 </r>
       <r>     7.0740     5.3830   254.1773 </r>
       <r>     7.1832     4.2011   254.6363 </r>
       <r>     7.2925     4.2475   255.1003 </r>
       <r>     7.4017     2.8659   255.4134 </r>
       <r>     7.5110     2.3927   255.6748 </r>
       <r>     7.6202     2.1927   255.9144 </r>
       <r>     7.7295     0.7017   255.9910 </r>
       <r>     7.8387     0.0818   256.0000 </r>
       <r>     7.9480     0.0002   256.0000 </r>
       <r>     8.0572     0.0000   256.0000 </r>
       <r>     8.1665     0.0000   256.0000 </r>
       <r>     8.2757     0.0000   256.0000 </r>
       <r>     8.3850     0.0000   256.0000 </r>
       <r>     8.4942     0.0000   256.0000 </r>
       <r>     8.6035     0.0000   256.0000 </r>
       <r>     8.7127     0.0000   256.0000 </r>
       <r>     8.8220     0.0000   256.0000 </r>
       <r>     8.9312     0.0000   256.0000 </r>
       <r>     9.0405     0.0000   256.0000 </r>
       <r>     9.1497     0.0000   256.0000 </r>
       <r>     9.2590     0.0000   256.0000 </r>
       <r>     9.3682     0.0000   256.0000 </r>
       <r>     9.4775     0.0000   256.0000 </r>
       <r>     9.5867     0.0000   256.0000 </r>
       <r>     9.6960     0.0000   256.0000 </r>
       <r>     9.8052     0.0000   256.0000 </r>
       <r>     9.9145     0.0000   256.0000 </r>
       <r>    10.0237     0.0000   256.0000 </r>
       <r>    10.1330     0.0000   256.0000 </r>
       <r>    10.2422     0.0000   256.0000 </r>
       <r>    10.3515     0.0000   256.0000 </r>
       <r>    10.4607     0.0000   256.0000 </r>
       <r>    10.5700     0.0000   256.0000 </r>
       <r>    10.6792     0.0000   256.0000 </r>
       <r>    10.7885     0.0000   256.0000 </r>
       <r>    10.8977     0.0000   256.0000 </r>
       <r>    11.0070     0.0000   256.0000 </r>
       <r>    11.1162     0.0000   256.0000 </r>
       <r>    11.2255     0.0000   256.0000 </r>
       <r>    11.3347     0.0000   256.0000 </r>
       <r>    11.4439     0.0063   256.0007 </r>
       <r>    11.5532     0.3574   256.0397 </r>
       <r>    11.6624     1.2853   256.1802 </r>
       <r>    11.7717     3.4497   256.5570 </r>
       <r>    11.8809     4.5188   257.0507 </r>
       <r>    11.9902     3.1547   257.3953 </r>
       <r>    12.0994     4.6328   257.9015 </r>
       <r>    12.2087     9.5802   258.9481 </r>
       <r>    12.3179     9.2519   259.9588 </r>
       <r>    12.4272     8.9676   260.9385 </r>
       <r>    12.5364     5.1381   261.4999 </r>
       <r>    12.6457    11.0821   262.7106 </r>
       <r>    12.7549    17.9014   264.6663 </r>
       <r>    12.8642    14.5793   266.2590 </r>
       <r>    12.9734    13.1381   267.6944 </r>
       <r>    13.0827    15.2321   269.3585 </r>
       <r>    13.1919    15.8404   271.0890 </r>
       <r>    13.3012    13.8238   272.5992 </r>
       <r>    13.4104    18.0665   274.5730 </r>
       <r>    13.5197    25.6712   277.3775 </r>
       <r>    13.6289    20.8088   279.6509 </r>
       <r>    13.7382    15.2133   281.3129 </r>
       <r>    13.8474    20.0500   283.5033 </r>
       <r>    13.9567    21.1921   285.8185 </r>
       <r>    14.0659    22.5527   288.2824 </r>
       <r>    14.1752    22.8846   290.7825 </r>
       <r>    14.2844    29.4303   293.9977 </r>
       <r>    14.3937    23.4562   296.5603 </r>
       <r>    14.5029    24.3922   299.2251 </r>
       <r>    14.6122    31.6093   302.6784 </r>
       <r>    14.7214    38.2377   306.8558 </r>
       <r>    14.8307    41.9740   311.4414 </r>
       <r>    14.9399    33.2408   315.0729 </r>
       <r>    15.0492    32.8886   318.6659 </r>
       <r>    15.1584    40.9309   323.1376 </r>
       <r>    15.2677    40.7672   327.5913 </r>
       <r>    15.3769    37.8314   331.7244 </r>
       <r>    15.4862    42.6510   336.3839 </r>
       <r>    15.5954    49.9331   341.8391 </r>
       <r>    15.7046    30.2302   345.1417 </r>
       <r>    15.8139    28.9957   348.3094 </r>
       <r>    15.9231    35.8665   352.2278 </r>
       <r>    16.0324    29.0295   355.3992 </r>
       <r>    16.1416    27.9070   358.4480 </r>
       <r>    16.2509    31.6537   361.9062 </r>
       <r>    16.3601    35.7926   365.8165 </r>
       <r>    16.4694    31.8943   369.3009 </r>
       <r>    16.5786    25.9558   372.1365 </r>
       <r>    16.6879    16.6209   373.9523 </r>
       <r>    16.7971    23.5533   376.5255 </r>
       <r>    16.9064    17.2820   378.4135 </r>
       <r>    17.0156    16.2709   380.1911 </r>
       <r>    17.1249    11.9929   381.5013 </r>
       <r>    17.2341     4.9620   382.0434 </r>
       <r>    17.3434     3.5173   382.4277 </r>
       <r>    17.4526     3.7496   382.8373 </r>
       <r>    17.5619     2.8843   383.1524 </r>
       <r>    17.6711     3.4214   383.5262 </r>
       <r>    17.7804     2.0192   383.7468 </r>
       <r>    17.8896     0.9320   383.8486 </r>
       <r>    17.9989     1.3434   383.9954 </r>
       <r>    18.1081     0.0424   384.0000 </r>
       <r>    18.2174     0.0000   384.0000 </r>
       <r>    18.3266     0.0000   384.0000 </r>
       <r>    18.4359     0.0000   384.0000 </r>
       <r>    18.5451     0.0000   384.0000 </r>
       <r>    18.6544     0.0000   384.0000 </r>
       <r>    18.7636     0.0000   384.0000 </r>
       <r>    18.8729     0.0000   384.0000 </r>
       <r>    18.9821     0.0000   384.0000 </r>
       <r>    19.0914     0.0000   384.0000 </r>
       <r>    19.2006     0.0000   384.0000 </r>
       <r>    19.3099     0.0000   384.0000 </r>
       <r>    19.4191     0.0000   384.0000 </r>
      </set>
     </set>
    </array>
   </total>
  </dos>
 </calculation>
 <structure name="finalpos" >
  <crystal>
   <varray name="basis" >
    <v>       7.49627800       0.00000000       0.00000000 </v>
    <v>       0.00000000       7.49627800       0.00000000 </v>
    <v>       0.00000000       0.00000000       7.49627800 </v>
   </varray>
   <i name="volume">    421.24722415 </i>
   <varray name="rec_basis" >
    <v>       0.13339954       0.00000000       0.00000000 </v>
    <v>       0.00000000       0.13339954       0.00000000 </v>
    <v>       0.00000000       0.00000000       0.13339954 </v>
   </varray>
  </crystal>
  <varray name="positions" >
   <v>       0.12500000       0.37500000       0.12500000 </v>
   <v>       0.62500000       0.37500000       0.12500000 </v>
   <v>       0.12500000       0.87500000       0.12500000 </v>
   <v>       0.62500000       0.87500000       0.12500000 </v>
   <v>       0.12500000       0.37500000       0.62500000 </v>
   <v>       0.62500000       0.37500000       0.62500000 </v>
   <v>       0.12500000       0.87500000       0.62500000 </v>
   <v>       0.62500000       0.87500000       0.62500000 </v>
   <v>       0.00000000       0.00000000       0.25000000 </v>
   <v>       0.50000000       0.00000000       0.25000000 </v>
   <v>       0.00000000       0.50000000       0.25000000 </v>
   <v>       0.50000000       0.50000000       0.25000000 </v>
   <v>       0.00000000       0.00000000       0.75000000 </v>
   <v>       0.50000000       0.00000000       0.75000000 </v>
   <v>       0.00000000       0.50000000       0.75000000 </v>
   <v>       0.50000000       0.50000000       0.75000000 </v>
   <v>       0.12500000       0.12500000       0.37500000 </v>
   <v>       0.62500000       0.12500000       0.37500000 </v>
   <v>       0.12500000       0.62500000       0.37500000 </v>
   <v>       0.62500000       0.62500000       0.37500000 </v>
   <v>       0.12500000       0.12500000       0.87500000 </v>
   <v>       0.62500000       0.12500000       0.87500000 </v>
   <v>       0.12500000       0.62500000       0.87500000 </v>
   <v>       0.62500000       0.62500000       0.87500000 </v>
   <v>       0.00000000       0.25000000       0.00000000 </v>
   <v>       0.50000000       0.25000000       0.00000000 </v>
   <v>       0.00000000       0.75000000       0.00000000 </v>
   <v>       0.50000000       0.75000000       0.00000000 </v>
   <v>       0.00000000       0.25000000       0.50000000 </v>
   <v>       0.50000000       0.25000000       0.50000000 </v>
   <v>       0.00000000       0.75000000       0.50000000 </v>
   <v>       0.50000000       0.75000000       0.50000000 </v>
   <v>       0.37500000       0.37500000       0.37500000 </v>
   <v>       0.87500000       0.37500000       0.37500000 </v>
   <v>       0.37500000       0.87500000       0.37500000 </v>
   <v>       0.87500000       0.87500000       0.37500000 </v>
   <v>       0.37500000       0.37500000       0.87500000 </v>
   <v>       0.87500000       0.37500000       0.87500000 </v>
   <v>       0.37500000       0.87500000       0.87500000 </v>
   <v>       0.87500000       0.87500000       0.87500000 </v>
   <v>       0.25000000       0.00000000       0.00000000 </v>
   <v>       0.75000000       0.00000000       0.00000000 </v>
   <v>       0.25000000       0.50000000       0.00000000 </v>
   <v>       0.75000000       0.50000000       0.00000000 </v>
   <v>       0.25000000       0.00000000       0.50000000 </v>
   <v>       0.75000000       0.00000000       0.50000000 </v>
   <v>       0.25000000       0.50000000       0.50000000 </v>
   <v>       0.75000000       0.50000000       0.50000000 </v>
   <v>       0.37500000       0.12500000       0.12500000 </v>
   <v>       0.87500000       0.12500000       0.12500000 </v>
   <v>       0.37500000       0.62500000       0.12500000 </v>
   <v>       0.87500000       0.62500000       0.12500000 </v>
   <v>       0.37500000       0.12500000       0.62500000 </v>
   <v>       0.87500000       0.12500000       0.62500000 </v>
   <v>       0.37500000       0.62500000       0.62500000 </v>
   <v>       0.87500000       0.62500000       0.62500000 </v>
   <v>       0.25000000       0.25000000       0.25000000 </v>
   <v>       0.75000000       0.25000000       0.25000000 </v>
   <v>       0.25000000       0.75000000       0.25000000 </v>
   <v>       0.75000000       0.75000000       0.25000000 </v>
   <v>       0.25000000       0.25000000       0.75000000 </v>
   <v>       0.75000000       0.25000000       0.75000000 </v>
   <v>       0.25000000       0.75000000       0.75000000 </v>
   <v>       0.75000000       0.75000000       0.75000000 </v>
  </varray>
 </structure>
</modeling>
