  64  64   0   0
  0.5199476E+01  0.6929680E-09  0.6929680E-09  0.6929680E-09  0.5000000E-15
  1.000000000000000E-004
  CAR 
 unknown system                          
     25.38759916    -13.38640971  301     11.31586510      1.00000000
    -13.386  0.0000E+00  0.0000E+00
    -13.257  0.0000E+00  0.0000E+00
    -13.128  0.0000E+00  0.0000E+00
    -12.999  0.0000E+00  0.0000E+00
    -12.869  0.0000E+00  0.0000E+00
    -12.740  0.0000E+00  0.0000E+00
    -12.611  0.0000E+00  0.0000E+00
    -12.482  0.0000E+00  0.0000E+00
    -12.352  0.0000E+00  0.0000E+00
    -12.223  0.0000E+00  0.0000E+00
    -12.094  0.0000E+00  0.0000E+00
    -11.965  0.1510E-16  0.1952E-17
    -11.835  0.9724E-08  0.1257E-08
    -11.706  0.1236E-02  0.1598E-03
    -11.577  0.2334E+00  0.3033E-01
    -11.448  0.1028E+01  0.1632E+00
    -11.318  0.1531E+01  0.3610E+00
    -11.189  0.2153E+01  0.6393E+00
    -11.060  0.2303E+01  0.9370E+00
    -10.931  0.2568E+01  0.1269E+01
    -10.801  0.3144E+01  0.1675E+01
    -10.672  0.2418E+01  0.1988E+01
    -10.543  0.3919E+01  0.2494E+01
    -10.414  0.3337E+01  0.2926E+01
    -10.284  0.3820E+01  0.3419E+01
    -10.155  0.3835E+01  0.3915E+01
    -10.026  0.4594E+01  0.4509E+01
     -9.897  0.4336E+01  0.5069E+01
     -9.768  0.3212E+01  0.5484E+01
     -9.638  0.5493E+01  0.6194E+01
     -9.509  0.5431E+01  0.6896E+01
     -9.380  0.4241E+01  0.7444E+01
     -9.251  0.5130E+01  0.8107E+01
     -9.121  0.5325E+01  0.8796E+01
     -8.992  0.6159E+01  0.9592E+01
     -8.863  0.4395E+01  0.1016E+02
     -8.734  0.6874E+01  0.1105E+02
     -8.604  0.4559E+01  0.1164E+02
     -8.475  0.6241E+01  0.1244E+02
     -8.346  0.6367E+01  0.1327E+02
     -8.217  0.8041E+01  0.1431E+02
     -8.087  0.5235E+01  0.1498E+02
     -7.958  0.4780E+01  0.1560E+02
     -7.829  0.8203E+01  0.1666E+02
     -7.700  0.6570E+01  0.1751E+02
     -7.570  0.7533E+01  0.1848E+02
     -7.441  0.6701E+01  0.1935E+02
     -7.312  0.7228E+01  0.2028E+02
     -7.183  0.7481E+01  0.2125E+02
     -7.053  0.7059E+01  0.2216E+02
     -6.924  0.7960E+01  0.2319E+02
     -6.795  0.7644E+01  0.2418E+02
     -6.666  0.9164E+01  0.2536E+02
     -6.536  0.7671E+01  0.2636E+02
     -6.407  0.8192E+01  0.2741E+02
     -6.278  0.5624E+01  0.2814E+02
     -6.149  0.1044E+02  0.2949E+02
     -6.019  0.1054E+02  0.3085E+02
     -5.890  0.8681E+01  0.3198E+02
     -5.761  0.8072E+01  0.3302E+02
     -5.632  0.1035E+02  0.3436E+02
     -5.502  0.9048E+01  0.3553E+02
     -5.373  0.1002E+02  0.3682E+02
     -5.244  0.1201E+02  0.3837E+02
     -5.115  0.1029E+02  0.3970E+02
     -4.985  0.1144E+02  0.4118E+02
     -4.856  0.1211E+02  0.4275E+02
     -4.727  0.1086E+02  0.4415E+02
     -4.598  0.7289E+01  0.4509E+02
     -4.468  0.9153E+01  0.4628E+02
     -4.339  0.1154E+02  0.4777E+02
     -4.210  0.8202E+01  0.4883E+02
     -4.081  0.1160E+02  0.5033E+02
     -3.951  0.7623E+01  0.5131E+02
     -3.822  0.7961E+01  0.5234E+02
     -3.693  0.9453E+01  0.5356E+02
     -3.564  0.5986E+01  0.5434E+02
     -3.434  0.7279E+01  0.5528E+02
     -3.305  0.8870E+01  0.5642E+02
     -3.176  0.8375E+01  0.5751E+02
     -3.047  0.7719E+01  0.5850E+02
     -2.917  0.1012E+02  0.5981E+02
     -2.788  0.8868E+01  0.6096E+02
     -2.659  0.1109E+02  0.6239E+02
     -2.530  0.7111E+01  0.6331E+02
     -2.400  0.8337E+01  0.6439E+02
     -2.271  0.8223E+01  0.6545E+02
     -2.142  0.1117E+02  0.6689E+02
     -2.013  0.1057E+02  0.6826E+02
     -1.883  0.1042E+02  0.6961E+02
     -1.754  0.7001E+01  0.7051E+02
     -1.625  0.9468E+01  0.7173E+02
     -1.496  0.8659E+01  0.7285E+02
     -1.366  0.1117E+02  0.7430E+02
     -1.237  0.1133E+02  0.7576E+02
     -1.108  0.1630E+02  0.7787E+02
     -0.979  0.2075E+02  0.8055E+02
     -0.849  0.2275E+02  0.8349E+02
     -0.720  0.1355E+02  0.8524E+02
     -0.591  0.1067E+02  0.8662E+02
     -0.462  0.1033E+02  0.8796E+02
     -0.332  0.1036E+02  0.8930E+02
     -0.203  0.1114E+02  0.9074E+02
     -0.074  0.1603E+02  0.9281E+02
      0.055  0.1430E+02  0.9466E+02
      0.184  0.8288E+01  0.9573E+02
      0.314  0.5009E+01  0.9638E+02
      0.443  0.8927E+01  0.9753E+02
      0.572  0.9965E+01  0.9882E+02
      0.701  0.6601E+01  0.9967E+02
      0.831  0.9250E+01  0.1009E+03
      0.960  0.1364E+02  0.1026E+03
      1.089  0.1199E+02  0.1042E+03
      1.218  0.9456E+01  0.1054E+03
      1.348  0.1184E+02  0.1069E+03
      1.477  0.1792E+02  0.1092E+03
      1.606  0.1371E+02  0.1110E+03
      1.735  0.9622E+01  0.1123E+03
      1.865  0.1379E+02  0.1140E+03
      1.994  0.2145E+02  0.1168E+03
      2.123  0.1914E+02  0.1193E+03
      2.252  0.1282E+02  0.1209E+03
      2.382  0.1110E+02  0.1224E+03
      2.511  0.1543E+02  0.1244E+03
      2.640  0.1581E+02  0.1264E+03
      2.769  0.1607E+02  0.1285E+03
      2.899  0.1542E+02  0.1305E+03
      3.028  0.1680E+02  0.1327E+03
      3.157  0.2288E+02  0.1356E+03
      3.286  0.1140E+02  0.1371E+03
      3.416  0.1073E+02  0.1385E+03
      3.545  0.2480E+02  0.1417E+03
      3.674  0.1850E+02  0.1441E+03
      3.803  0.1784E+02  0.1464E+03
      3.933  0.1874E+02  0.1488E+03
      4.062  0.1957E+02  0.1513E+03
      4.191  0.2226E+02  0.1542E+03
      4.320  0.2351E+02  0.1572E+03
      4.450  0.2399E+02  0.1603E+03
      4.579  0.2523E+02  0.1636E+03
      4.708  0.1924E+02  0.1661E+03
      4.837  0.2299E+02  0.1691E+03
      4.967  0.2572E+02  0.1724E+03
      5.096  0.2680E+02  0.1759E+03
      5.225  0.1804E+02  0.1782E+03
      5.354  0.1835E+02  0.1806E+03
      5.484  0.2253E+02  0.1835E+03
      5.613  0.2668E+02  0.1869E+03
      5.742  0.2412E+02  0.1900E+03
      5.871  0.1640E+02  0.1922E+03
      6.001  0.2037E+02  0.1948E+03
      6.130  0.2193E+02  0.1976E+03
      6.259  0.2222E+02  0.2005E+03
      6.388  0.2214E+02  0.2034E+03
      6.518  0.1795E+02  0.2057E+03
      6.647  0.1848E+02  0.2081E+03
      6.776  0.2207E+02  0.2109E+03
      6.905  0.2333E+02  0.2139E+03
      7.035  0.1725E+02  0.2162E+03
      7.164  0.1729E+02  0.2184E+03
      7.293  0.1802E+02  0.2207E+03
      7.422  0.2147E+02  0.2235E+03
      7.552  0.2351E+02  0.2265E+03
      7.681  0.1506E+02  0.2285E+03
      7.810  0.1760E+02  0.2308E+03
      7.939  0.1651E+02  0.2329E+03
      8.069  0.2094E+02  0.2356E+03
      8.198  0.1861E+02  0.2380E+03
      8.327  0.7664E+01  0.2390E+03
      8.456  0.1311E+02  0.2407E+03
      8.586  0.1373E+02  0.2425E+03
      8.715  0.1064E+02  0.2438E+03
      8.844  0.9082E+01  0.2450E+03
      8.973  0.7470E+01  0.2460E+03
      9.103  0.1016E+02  0.2473E+03
      9.232  0.8560E+01  0.2484E+03
      9.361  0.6812E+01  0.2493E+03
      9.490  0.6216E+01  0.2501E+03
      9.620  0.5166E+01  0.2507E+03
      9.749  0.7751E+01  0.2518E+03
      9.878  0.5394E+01  0.2524E+03
     10.007  0.4425E+01  0.2530E+03
     10.136  0.3410E+01  0.2535E+03
     10.266  0.4873E+01  0.2541E+03
     10.395  0.3948E+01  0.2546E+03
     10.524  0.2869E+01  0.2550E+03
     10.653  0.2770E+01  0.2553E+03
     10.783  0.2056E+01  0.2556E+03
     10.912  0.2136E+01  0.2559E+03
     11.041  0.7902E+00  0.2560E+03
     11.170  0.2016E+00  0.2560E+03
     11.300  0.8962E-03  0.2560E+03
     11.429  0.2767E-08  0.2560E+03
     11.558  0.0000E+00  0.2560E+03
     11.687  0.0000E+00  0.2560E+03
     11.817  0.0000E+00  0.2560E+03
     11.946  0.0000E+00  0.2560E+03
     12.075  0.0000E+00  0.2560E+03
     12.204  0.0000E+00  0.2560E+03
     12.334  0.0000E+00  0.2560E+03
     12.463  0.0000E+00  0.2560E+03
     12.592  0.0000E+00  0.2560E+03
     12.721  0.0000E+00  0.2560E+03
     12.851  0.0000E+00  0.2560E+03
     12.980  0.0000E+00  0.2560E+03
     13.109  0.0000E+00  0.2560E+03
     13.238  0.0000E+00  0.2560E+03
     13.368  0.0000E+00  0.2560E+03
     13.497  0.0000E+00  0.2560E+03
     13.626  0.0000E+00  0.2560E+03
     13.755  0.0000E+00  0.2560E+03
     13.885  0.0000E+00  0.2560E+03
     14.014  0.0000E+00  0.2560E+03
     14.143  0.0000E+00  0.2560E+03
     14.272  0.0000E+00  0.2560E+03
     14.402  0.0000E+00  0.2560E+03
     14.531  0.0000E+00  0.2560E+03
     14.660  0.0000E+00  0.2560E+03
     14.789  0.0000E+00  0.2560E+03
     14.919  0.0000E+00  0.2560E+03
     15.048  0.1208E-15  0.2560E+03
     15.177  0.7485E-07  0.2560E+03
     15.306  0.7528E-02  0.2560E+03
     15.436  0.4309E+00  0.2561E+03
     15.565  0.1396E+01  0.2562E+03
     15.694  0.3228E+01  0.2567E+03
     15.823  0.3916E+01  0.2572E+03
     15.953  0.2911E+01  0.2575E+03
     16.082  0.4925E+01  0.2582E+03
     16.211  0.9640E+01  0.2594E+03
     16.340  0.8587E+01  0.2605E+03
     16.470  0.4885E+01  0.2612E+03
     16.599  0.8679E+01  0.2623E+03
     16.728  0.1011E+02  0.2636E+03
     16.857  0.1481E+02  0.2655E+03
     16.987  0.1288E+02  0.2672E+03
     17.116  0.1250E+02  0.2688E+03
     17.245  0.1284E+02  0.2704E+03
     17.374  0.1229E+02  0.2720E+03
     17.504  0.1362E+02  0.2738E+03
     17.633  0.1738E+02  0.2760E+03
     17.762  0.1833E+02  0.2784E+03
     17.891  0.1490E+02  0.2803E+03
     18.021  0.1640E+02  0.2825E+03
     18.150  0.1815E+02  0.2848E+03
     18.279  0.1708E+02  0.2870E+03
     18.408  0.1630E+02  0.2891E+03
     18.538  0.2046E+02  0.2918E+03
     18.667  0.2206E+02  0.2946E+03
     18.796  0.1783E+02  0.2969E+03
     18.925  0.2559E+02  0.3002E+03
     19.055  0.2029E+02  0.3028E+03
     19.184  0.2386E+02  0.3059E+03
     19.313  0.2113E+02  0.3087E+03
     19.442  0.3329E+02  0.3130E+03
     19.571  0.2869E+02  0.3167E+03
     19.701  0.3050E+02  0.3206E+03
     19.830  0.2570E+02  0.3239E+03
     19.959  0.3005E+02  0.3278E+03
     20.088  0.2411E+02  0.3309E+03
     20.218  0.2221E+02  0.3338E+03
     20.347  0.3686E+02  0.3386E+03
     20.476  0.2500E+02  0.3418E+03
     20.605  0.1688E+02  0.3440E+03
     20.735  0.2713E+02  0.3475E+03
     20.864  0.2144E+02  0.3503E+03
     20.993  0.2430E+02  0.3534E+03
     21.122  0.2475E+02  0.3566E+03
     21.252  0.3033E+02  0.3605E+03
     21.381  0.3311E+02  0.3648E+03
     21.510  0.2574E+02  0.3681E+03
     21.639  0.2321E+02  0.3711E+03
     21.769  0.2752E+02  0.3747E+03
     21.898  0.1663E+02  0.3768E+03
     22.027  0.1088E+02  0.3782E+03
     22.156  0.1495E+02  0.3802E+03
     22.286  0.9278E+01  0.3814E+03
     22.415  0.7320E+01  0.3823E+03
     22.544  0.3212E+01  0.3827E+03
     22.673  0.2430E+01  0.3830E+03
     22.803  0.1396E+01  0.3832E+03
     22.932  0.3142E+01  0.3836E+03
     23.061  0.9916E+00  0.3838E+03
     23.190  0.8772E+00  0.3839E+03
     23.320  0.3248E+00  0.3839E+03
     23.449  0.7160E-02  0.3839E+03
     23.578  0.4475E+00  0.3840E+03
     23.707  0.2661E+00  0.3840E+03
     23.837  0.4797E-02  0.3840E+03
     23.966  0.5619E-07  0.3840E+03
     24.095  0.8053E-16  0.3840E+03
     24.224  0.0000E+00  0.3840E+03
     24.354  0.0000E+00  0.3840E+03
     24.483  0.0000E+00  0.3840E+03
     24.612  0.0000E+00  0.3840E+03
     24.741  0.0000E+00  0.3840E+03
     24.871  0.0000E+00  0.3840E+03
     25.000  0.0000E+00  0.3840E+03
     25.129  0.0000E+00  0.3840E+03
     25.258  0.0000E+00  0.3840E+03
     25.388  0.0000E+00  0.3840E+03
