mesh: [    48,    48,    48 ]
nqpoint: 2600   
reciprocal_lattice:
- [   0.28861362,   0.00000000,   0.00000000 ] # a*
- [   0.00000000,   0.28861362,   0.00000000 ] # b*
- [   0.00000000,   0.00000000,   0.28861362 ] # c*
natom:   8      
lattice:
- [     3.464840000000000,     0.000000000000000,     0.000000000000000 ] # a
- [     0.000000000000000,     3.464840000000000,     0.000000000000000 ] # b
- [     0.000000000000000,     0.000000000000000,     3.464840000000000 ] # c
points:
- symbol: C  # 1
  coordinates: [  0.250000000000000,  0.750000000000000,  0.250000000000000 ]
  mass: 12.010700
- symbol: C  # 2
  coordinates: [  0.000000000000000,  0.000000000000000,  0.500000000000000 ]
  mass: 12.010700
- symbol: C  # 3
  coordinates: [  0.250000000000000,  0.250000000000000,  0.750000000000000 ]
  mass: 12.010700
- symbol: C  # 4
  coordinates: [  0.000000000000000,  0.500000000000000,  0.000000000000000 ]
  mass: 12.010700
- symbol: C  # 5
  coordinates: [  0.750000000000000,  0.750000000000000,  0.750000000000000 ]
  mass: 12.010700
- symbol: C  # 6
  coordinates: [  0.500000000000000,  0.000000000000000,  0.000000000000000 ]
  mass: 12.010700
- symbol: C  # 7
  coordinates: [  0.750000000000000,  0.250000000000000,  0.250000000000000 ]
  mass: 12.010700
- symbol: C  # 8
  coordinates: [  0.500000000000000,  0.500000000000000,  0.500000000000000 ]
  mass: 12.010700

phonon:
- q-position: [    0.0104167,    0.0104167,    0.0104167 ]
  distance_from_gamma:  0.005207223
  weight: 8    
  band:
  - # 1
    frequency:     0.6234812497
  - # 2
    frequency:     0.6234812497
  - # 3
    frequency:     1.0207452373
  - # 4
    frequency:    23.8453984031
  - # 5
    frequency:    23.8453984031
  - # 6
    frequency:    23.8453984031
  - # 7
    frequency:    23.8616515268
  - # 8
    frequency:    23.8616515268
  - # 9
    frequency:    23.8616515268
  - # 10
    frequency:    36.4144946521
  - # 11
    frequency:    36.4144946521
  - # 12
    frequency:    36.4144946521
  - # 13
    frequency:    36.4266530021
  - # 14
    frequency:    36.4266530021
  - # 15
    frequency:    36.4266530021
  - # 16
    frequency:    38.6784050948
  - # 17
    frequency:    38.6784050948
  - # 18
    frequency:    38.6784050948
  - # 19
    frequency:    39.0443105769
  - # 20
    frequency:    39.0443105769
  - # 21
    frequency:    39.0443105769
  - # 22
    frequency:    42.5275188053
  - # 23
    frequency:    42.5275188053
  - # 24
    frequency:    42.5307750401

- q-position: [    0.0312500,    0.0104167,    0.0104167 ]
  distance_from_gamma:  0.009971074
  weight: 24   
  band:
  - # 1
    frequency:     1.2187539918
  - # 2
    frequency:     1.2647849545
  - # 3
    frequency:     1.8923348540
  - # 4
    frequency:    23.8197542191
  - # 5
    frequency:    23.8360138290
  - # 6
    frequency:    23.8583281487
  - # 7
    frequency:    23.8583281487
  - # 8
    frequency:    23.9069937777
  - # 9
    frequency:    23.9069937777
  - # 10
    frequency:    36.3808489714
  - # 11
    frequency:    36.3808489714
  - # 12
    frequency:    36.4171751038
  - # 13
    frequency:    36.4171751038
  - # 14
    frequency:    36.4283851041
  - # 15
    frequency:    36.4416735312
  - # 16
    frequency:    38.2946557766
  - # 17
    frequency:    38.6799957199
  - # 18
    frequency:    38.6799957199
  - # 19
    frequency:    39.0433151885
  - # 20
    frequency:    39.0433151885
  - # 21
    frequency:    39.3912203798
  - # 22
    frequency:    42.5161334781
  - # 23
    frequency:    42.5169568728
  - # 24
    frequency:    42.5340329297

- q-position: [    0.0520833,    0.0104167,    0.0104167 ]
  distance_from_gamma:  0.015621670
  weight: 24   
  band:
  - # 1
    frequency:     1.9666312454
  - # 2
    frequency:     2.0041146074
  - # 3
    frequency:     2.9079113237
  - # 4
    frequency:    23.7684947659
  - # 5
    frequency:    23.7847662399
  - # 6
    frequency:    23.9002681636
  - # 7
    frequency:    23.9002681636
  - # 8
    frequency:    23.9810686497
  - # 9
    frequency:    23.9810686497
  - # 10
    frequency:    36.3259264336
  - # 11
    frequency:    36.3259264336
  - # 12
    frequency:    36.3861220978
  - # 13
    frequency:    36.3861220978
  - # 14
    frequency:    36.4554918098
  - # 15
    frequency:    36.4716204950
  - # 16
    frequency:    37.8929314029
  - # 17
    frequency:    38.6830732015
  - # 18
    frequency:    38.6830732015
  - # 19
    frequency:    39.0413654122
  - # 20
    frequency:    39.0413654122
  - # 21
    frequency:    39.7198766658
  - # 22
    frequency:    42.4933928977
  - # 23
    frequency:    42.4942974828
  - # 24
    frequency:    42.5420508508

- q-position: [    0.0729167,    0.0104167,    0.0104167 ]
  distance_from_gamma:  0.021469932
  weight: 24   
  band:
  - # 1
    frequency:     2.7335227121
  - # 2
    frequency:     2.7620486469
  - # 3
    frequency:     3.9626357644
  - # 4
    frequency:    23.6916778039
  - # 5
    frequency:    23.7079643700
  - # 6
    frequency:    23.9707820504
  - # 7
    frequency:    23.9707820504
  - # 8
    frequency:    24.0832621876
  - # 9
    frequency:    24.0832621876
  - # 10
    frequency:    36.2501023153
  - # 11
    frequency:    36.2501023153
  - # 12
    frequency:    36.3336516245
  - # 13
    frequency:    36.3336516245
  - # 14
    frequency:    36.4934589898
  - # 15
    frequency:    36.5163068161
  - # 16
    frequency:    37.4753754165
  - # 17
    frequency:    38.6874462656
  - # 18
    frequency:    38.6874462656
  - # 19
    frequency:    39.0385389020
  - # 20
    frequency:    39.0385389020
  - # 21
    frequency:    40.0303665779
  - # 22
    frequency:    42.4593573307
  - # 23
    frequency:    42.4602809651
  - # 24
    frequency:    42.5540224067

- q-position: [    0.0937500,    0.0104167,    0.0104167 ]
  distance_from_gamma:  0.027389533
  weight: 24   
  band:
  - # 1
    frequency:     3.5025167609
  - # 2
    frequency:     3.5244496249
  - # 3
    frequency:     5.0309179505
  - # 4
    frequency:    23.5893898055
  - # 5
    frequency:    23.6056916271
  - # 6
    frequency:    24.0691746786
  - # 7
    frequency:    24.0691746786
  - # 8
    frequency:    24.2127128951
  - # 9
    frequency:    24.2127128951
  - # 10
    frequency:    36.1538721690
  - # 11
    frequency:    36.1538721690
  - # 12
    frequency:    36.2600457615
  - # 13
    frequency:    36.2600457615
  - # 14
    frequency:    36.5307536883
  - # 15
    frequency:    36.5754546259
  - # 16
    frequency:    37.0531182458
  - # 17
    frequency:    38.6928639457
  - # 18
    frequency:    38.6928639457
  - # 19
    frequency:    39.0349421684
  - # 20
    frequency:    39.0349421684
  - # 21
    frequency:    40.3229081190
  - # 22
    frequency:    42.4141174699
  - # 23
    frequency:    42.4150456493
  - # 24
    frequency:    42.5697119040

- q-position: [    0.1145833,    0.0104167,    0.0104167 ]
  distance_from_gamma:  0.033342498
  weight: 24   
  band:
  - # 1
    frequency:     4.2695390189
  - # 2
    frequency:     4.2865763851
  - # 3
    frequency:     6.1031823059
  - # 4
    frequency:    23.4617457619
  - # 5
    frequency:    23.4780591968
  - # 6
    frequency:    24.1945006371
  - # 7
    frequency:    24.1945006371
  - # 8
    frequency:    24.3683239080
  - # 9
    frequency:    24.3683239080
  - # 10
    frequency:    36.0378446983
  - # 11
    frequency:    36.0378446983
  - # 12
    frequency:    36.1657015152
  - # 13
    frequency:    36.1657015152
  - # 14
    frequency:    36.4422474029
  - # 15
    frequency:    36.6486984829
  - # 16
    frequency:    36.7507892971
  - # 17
    frequency:    38.6990476704
  - # 18
    frequency:    38.6990476704
  - # 19
    frequency:    39.0307008471
  - # 20
    frequency:    39.0307008471
  - # 21
    frequency:    40.5977603740
  - # 22
    frequency:    42.3577947788
  - # 23
    frequency:    42.3587218434
  - # 24
    frequency:    42.5888624201

- q-position: [    0.1354167,    0.0104167,    0.0104167 ]
  distance_from_gamma:  0.039313675
  weight: 24   
  band:
  - # 1
    frequency:     5.0328143392
  - # 2
    frequency:     5.0460624774
  - # 3
    frequency:     7.1747565377
  - # 4
    frequency:    23.3088889398
  - # 5
    frequency:    23.3252060031
  - # 6
    frequency:    24.3455747168
  - # 7
    frequency:    24.3455747168
  - # 8
    frequency:    24.5487766525
  - # 9
    frequency:    24.5487766525
  - # 10
    frequency:    35.9027338135
  - # 11
    frequency:    35.9027338135
  - # 12
    frequency:    36.0304286790
  - # 13
    frequency:    36.0511280923
  - # 14
    frequency:    36.0511280923
  - # 15
    frequency:    36.7355895340
  - # 16
    frequency:    36.7653223918
  - # 17
    frequency:    38.7057206910
  - # 18
    frequency:    38.7057206910
  - # 19
    frequency:    39.0259497165
  - # 20
    frequency:    39.0259497165
  - # 21
    frequency:    40.8552104762
  - # 22
    frequency:    42.2905419365
  - # 23
    frequency:    42.2914648916
  - # 24
    frequency:    42.6111654140

- q-position: [    0.1562500,    0.0104167,    0.0104167 ]
  distance_from_gamma:  0.045295860
  weight: 24   
  band:
  - # 1
    frequency:     5.7911692931
  - # 2
    frequency:     5.8013641386
  - # 3
    frequency:     8.2428486951
  - # 4
    frequency:    23.1309905961
  - # 5
    frequency:    23.1472986399
  - # 6
    frequency:    24.5209830950
  - # 7
    frequency:    24.5209830950
  - # 8
    frequency:    24.7525445425
  - # 9
    frequency:    24.7525445425
  - # 10
    frequency:    35.5396179549
  - # 11
    frequency:    35.7493559275
  - # 12
    frequency:    35.7493559275
  - # 13
    frequency:    35.9169491384
  - # 14
    frequency:    35.9169491384
  - # 15
    frequency:    36.8356005185
  - # 16
    frequency:    36.8517517426
  - # 17
    frequency:    38.7126303282
  - # 18
    frequency:    38.7126303282
  - # 19
    frequency:    39.0208238930
  - # 20
    frequency:    39.0208238930
  - # 21
    frequency:    41.0955688396
  - # 22
    frequency:    42.2125433751
  - # 23
    frequency:    42.2134603128
  - # 24
    frequency:    42.6362588287

- q-position: [    0.1770833,    0.0104167,    0.0104167 ]
  distance_from_gamma:  0.051285203
  weight: 24   
  band:
  - # 1
    frequency:     6.5436356799
  - # 2
    frequency:     6.5512855718
  - # 3
    frequency:     9.3055122800
  - # 4
    frequency:    22.9282496606
  - # 5
    frequency:    22.9445312650
  - # 6
    frequency:    24.7190935200
  - # 7
    frequency:    24.7190935200
  - # 8
    frequency:    24.9779049998
  - # 9
    frequency:    24.9779049998
  - # 10
    frequency:    35.0202128514
  - # 11
    frequency:    35.5786348001
  - # 12
    frequency:    35.5786348001
  - # 13
    frequency:    35.7639099730
  - # 14
    frequency:    35.7639099730
  - # 15
    frequency:    36.9481314989
  - # 16
    frequency:    36.9589757539
  - # 17
    frequency:    38.7195614653
  - # 18
    frequency:    38.7195614653
  - # 19
    frequency:    39.0154521047
  - # 20
    frequency:    39.0154521047
  - # 21
    frequency:    41.3191670500
  - # 22
    frequency:    42.1240158923
  - # 23
    frequency:    42.1249254825
  - # 24
    frequency:    42.6637291611

- q-position: [    0.1979167,    0.0104167,    0.0104167 ]
  distance_from_gamma:  0.057279457
  weight: 24   
  band:
  - # 1
    frequency:     7.2893312900
  - # 2
    frequency:     7.2948008355
  - # 3
    frequency:    10.3612316051
  - # 4
    frequency:    22.7008923928
  - # 5
    frequency:    22.7171254484
  - # 6
    frequency:    24.9380624120
  - # 7
    frequency:    24.9380624120
  - # 8
    frequency:    25.2229477395
  - # 9
    frequency:    25.2229477395
  - # 10
    frequency:    34.4779035218
  - # 11
    frequency:    35.3916151912
  - # 12
    frequency:    35.3916151912
  - # 13
    frequency:    35.5928899357
  - # 14
    frequency:    35.5928899357
  - # 15
    frequency:    37.0725161898
  - # 16
    frequency:    37.0805503412
  - # 17
    frequency:    38.7263420147
  - # 18
    frequency:    38.7263420147
  - # 19
    frequency:    39.0099523559
  - # 20
    frequency:    39.0099523559
  - # 21
    frequency:    41.5263569653
  - # 22
    frequency:    42.0252093263
  - # 23
    frequency:    42.0261106399
  - # 24
    frequency:    42.6931146514

- q-position: [    0.2187500,    0.0104167,    0.0104167 ]
  distance_from_gamma:  0.063277228
  weight: 24   
  band:
  - # 1
    frequency:     8.0274171101
  - # 2
    frequency:     8.0309769954
  - # 3
    frequency:    11.4087353705
  - # 4
    frequency:    22.4491720193
  - # 5
    frequency:    22.4653299720
  - # 6
    frequency:    25.1758363108
  - # 7
    frequency:    25.1758363108
  - # 8
    frequency:    25.4855768034
  - # 9
    frequency:    25.4855768034
  - # 10
    frequency:    33.9140519126
  - # 11
    frequency:    35.1894863148
  - # 12
    frequency:    35.1894863148
  - # 13
    frequency:    35.4049205721
  - # 14
    frequency:    35.4049205721
  - # 15
    frequency:    37.2080287548
  - # 16
    frequency:    37.2143183431
  - # 17
    frequency:    38.7328422973
  - # 18
    frequency:    38.7328422973
  - # 19
    frequency:    39.0044298131
  - # 20
    frequency:    39.0044298131
  - # 21
    frequency:    41.7175104468
  - # 22
    frequency:    41.9164072724
  - # 23
    frequency:    41.9172997329
  - # 24
    frequency:    42.7239090004

- q-position: [    0.2395833,    0.0104167,    0.0104167 ]
  distance_from_gamma:  0.069277601
  weight: 24   
  band:
  - # 1
    frequency:     8.7570799457
  - # 2
    frequency:     8.7589374811
  - # 3
    frequency:    12.4469052619
  - # 4
    frequency:    22.1733683545
  - # 5
    frequency:    22.1894205752
  - # 6
    frequency:    25.4301444210
  - # 7
    frequency:    25.4301444210
  - # 8
    frequency:    25.7635031309
  - # 9
    frequency:    25.7635031309
  - # 10
    frequency:    33.3291237819
  - # 11
    frequency:    34.9736166406
  - # 12
    frequency:    34.9736166406
  - # 13
    frequency:    35.2012114443
  - # 14
    frequency:    35.2012114443
  - # 15
    frequency:    37.3538909373
  - # 16
    frequency:    37.3589862986
  - # 17
    frequency:    38.7389705445
  - # 18
    frequency:    38.7389705445
  - # 19
    frequency:    38.9989764508
  - # 20
    frequency:    38.9989764508
  - # 21
    frequency:    41.7979278207
  - # 22
    frequency:    41.7988112157
  - # 23
    frequency:    41.8930194387
  - # 24
    frequency:    42.7555654196

- q-position: [    0.2604167,    0.0104167,    0.0104167 ]
  distance_from_gamma:  0.075279955
  weight: 24   
  band:
  - # 1
    frequency:     9.4775247854
  - # 2
    frequency:     9.4778433030
  - # 3
    frequency:    13.4747280935
  - # 4
    frequency:    21.8737874064
  - # 5
    frequency:    21.8896996483
  - # 6
    frequency:    25.6984779965
  - # 7
    frequency:    25.6984779965
  - # 8
    frequency:    26.0542233791
  - # 9
    frequency:    26.0542233791
  - # 10
    frequency:    32.7233196733
  - # 11
    frequency:    34.7456029239
  - # 12
    frequency:    34.7456029239
  - # 13
    frequency:    34.9831867790
  - # 14
    frequency:    34.9831867790
  - # 15
    frequency:    37.5092793951
  - # 16
    frequency:    37.5135023872
  - # 17
    frequency:    38.7446664442
  - # 18
    frequency:    38.7446664442
  - # 19
    frequency:    38.9936718908
  - # 20
    frequency:    38.9936718908
  - # 21
    frequency:    41.6701242919
  - # 22
    frequency:    41.6709988184
  - # 23
    frequency:    42.0532962360
  - # 24
    frequency:    42.7875009079

- q-position: [    0.2812500,    0.0104167,    0.0104167 ]
  distance_from_gamma:  0.081283851
  weight: 24   
  band:
  - # 1
    frequency:    10.1868829293
  - # 2
    frequency:    10.1879713394
  - # 3
    frequency:    14.4912694742
  - # 4
    frequency:    21.5507609679
  - # 5
    frequency:    21.5664958728
  - # 6
    frequency:    25.9780507755
  - # 7
    frequency:    25.9780507755
  - # 8
    frequency:    26.3549790117
  - # 9
    frequency:    26.3549790117
  - # 10
    frequency:    32.0967505932
  - # 11
    frequency:    34.5073384360
  - # 12
    frequency:    34.5073384360
  - # 13
    frequency:    34.7525380773
  - # 14
    frequency:    34.7525380773
  - # 15
    frequency:    37.6733331170
  - # 16
    frequency:    37.6768897170
  - # 17
    frequency:    38.7498941413
  - # 18
    frequency:    38.7498941413
  - # 19
    frequency:    38.9885849012
  - # 20
    frequency:    38.9885849012
  - # 21
    frequency:    41.5333859456
  - # 22
    frequency:    41.5342522782
  - # 23
    frequency:    42.1987738396
  - # 24
    frequency:    42.8191006771

- q-position: [    0.3020833,    0.0104167,    0.0104167 ]
  distance_from_gamma:  0.087288970
  weight: 24   
  band:
  - # 1
    frequency:    10.8852666645
  - # 2
    frequency:    10.8876525352
  - # 3
    frequency:    15.4956587729
  - # 4
    frequency:    21.2046461915
  - # 5
    frequency:    21.2201638128
  - # 6
    frequency:    26.2657324181
  - # 7
    frequency:    26.2657324181
  - # 8
    frequency:    26.6626870807
  - # 9
    frequency:    26.6626870807
  - # 10
    frequency:    31.4495009133
  - # 11
    frequency:    34.2611082472
  - # 12
    frequency:    34.2611082472
  - # 13
    frequency:    34.5113004781
  - # 14
    frequency:    34.5113004781
  - # 15
    frequency:    37.8451608055
  - # 16
    frequency:    37.8481923501
  - # 17
    frequency:    38.7546355994
  - # 18
    frequency:    38.7546355994
  - # 19
    frequency:    38.9837751259
  - # 20
    frequency:    38.9837751259
  - # 21
    frequency:    41.3881386341
  - # 22
    frequency:    41.3889980110
  - # 23
    frequency:    42.3299063300
  - # 24
    frequency:    42.8497226569

- q-position: [    0.3229167,    0.0104167,    0.0104167 ]
  distance_from_gamma:  0.093295077
  weight: 24   
  band:
  - # 1
    frequency:    11.5722235076
  - # 2
    frequency:    11.5758139995
  - # 3
    frequency:    16.4870803031
  - # 4
    frequency:    20.8358251461
  - # 5
    frequency:    20.8510834590
  - # 6
    frequency:    26.5579437355
  - # 7
    frequency:    26.5579437355
  - # 8
    frequency:    26.9738303401
  - # 9
    frequency:    26.9738303401
  - # 10
    frequency:    30.7816553055
  - # 11
    frequency:    34.0097230728
  - # 12
    frequency:    34.0097230728
  - # 13
    frequency:    34.2619645136
  - # 14
    frequency:    34.2619645136
  - # 15
    frequency:    38.0238481241
  - # 16
    frequency:    38.0264571581
  - # 17
    frequency:    38.7588848260
  - # 18
    frequency:    38.7588848260
  - # 19
    frequency:    38.9792947406
  - # 20
    frequency:    38.9792947406
  - # 21
    frequency:    41.2348453711
  - # 22
    frequency:    41.2356996966
  - # 23
    frequency:    42.4471692042
  - # 24
    frequency:    42.8787020170

- q-position: [    0.3437500,    0.0104167,    0.0104167 ]
  distance_from_gamma:  0.099301991
  weight: 24   
  band:
  - # 1
    frequency:    12.2469994418
  - # 2
    frequency:    12.2517140704
  - # 3
    frequency:    17.4647680552
  - # 4
    frequency:    20.4447043552
  - # 5
    frequency:    20.4596597312
  - # 6
    frequency:    26.8504986520
  - # 7
    frequency:    26.8504986520
  - # 8
    frequency:    27.2842893455
  - # 9
    frequency:    27.2842893455
  - # 10
    frequency:    30.0933120639
  - # 11
    frequency:    33.7567070581
  - # 12
    frequency:    33.7567070581
  - # 13
    frequency:    34.0076402628
  - # 14
    frequency:    34.0076402628
  - # 15
    frequency:    38.2084647172
  - # 16
    frequency:    38.2107290580
  - # 17
    frequency:    38.7626431773
  - # 18
    frequency:    38.7626431773
  - # 19
    frequency:    38.9751898458
  - # 20
    frequency:    38.9751898458
  - # 21
    frequency:    41.0740067871
  - # 22
    frequency:    41.0748587484
  - # 23
    frequency:    42.5510596346
  - # 24
    frequency:    42.9053556480

- q-position: [    0.3645833,    0.0104167,    0.0104167 ]
  distance_from_gamma:  0.105309576
  weight: 24   
  band:
  - # 1
    frequency:    12.9088565845
  - # 2
    frequency:    12.9146241077
  - # 3
    frequency:    18.4280024992
  - # 4
    frequency:    20.0317143120
  - # 5
    frequency:    20.0463219417
  - # 6
    frequency:    27.1383748075
  - # 7
    frequency:    27.1383748075
  - # 8
    frequency:    27.5890942661
  - # 9
    frequency:    27.5890942661
  - # 10
    frequency:    29.3845905762
  - # 11
    frequency:    33.5065564408
  - # 12
    frequency:    33.5065564408
  - # 13
    frequency:    33.7522975817
  - # 14
    frequency:    33.7522975817
  - # 15
    frequency:    38.3980709257
  - # 16
    frequency:    38.4000517729
  - # 17
    frequency:    38.7659157829
  - # 18
    frequency:    38.7659157829
  - # 19
    frequency:    38.9715014947
  - # 20
    frequency:    38.9715014947
  - # 21
    frequency:    40.9061614359
  - # 22
    frequency:    40.9070146351
  - # 23
    frequency:    42.6420966095
  - # 24
    frequency:    42.9289865481

- q-position: [    0.3854167,    0.0104167,    0.0104167 ]
  distance_from_gamma:  0.111317722
  weight: 24   
  band:
  - # 1
    frequency:    13.5570728717
  - # 2
    frequency:    13.5638289792
  - # 3
    frequency:    19.3761086124
  - # 4
    frequency:    19.5973089739
  - # 5
    frequency:    19.6115232241
  - # 6
    frequency:    27.4153978068
  - # 7
    frequency:    27.4153978068
  - # 8
    frequency:    27.8820745568
  - # 9
    frequency:    27.8820745568
  - # 10
    frequency:    28.6556360177
  - # 11
    frequency:    33.2650772086
  - # 12
    frequency:    33.2650772086
  - # 13
    frequency:    33.5011115639
  - # 14
    frequency:    33.5011115639
  - # 15
    frequency:    38.5917241351
  - # 16
    frequency:    38.5934709689
  - # 17
    frequency:    38.7687090216
  - # 18
    frequency:    38.7687090216
  - # 19
    frequency:    38.9682663199
  - # 20
    frequency:    38.9682663199
  - # 21
    frequency:    40.7318859219
  - # 22
    frequency:    40.7327450226
  - # 23
    frequency:    42.7208209237
  - # 24
    frequency:    42.9488880658

- q-position: [    0.4062500,    0.0104167,    0.0104167 ]
  distance_from_gamma:  0.117326343
  weight: 24   
  band:
  - # 1
    frequency:    14.1909420845
  - # 2
    frequency:    14.1986276531
  - # 3
    frequency:    19.1419652332
  - # 4
    frequency:    19.1557399306
  - # 5
    frequency:    20.3084546219
  - # 6
    frequency:    27.6738480655
  - # 7
    frequency:    27.6738480655
  - # 8
    frequency:    27.9066226025
  - # 9
    frequency:    28.1554064534
  - # 10
    frequency:    28.1554064534
  - # 11
    frequency:    33.0397688863
  - # 12
    frequency:    33.0397688863
  - # 13
    frequency:    33.2609377026
  - # 14
    frequency:    33.2609377026
  - # 15
    frequency:    38.7710289226
  - # 16
    frequency:    38.7710289226
  - # 17
    frequency:    38.7884847036
  - # 18
    frequency:    38.7900383643
  - # 19
    frequency:    38.9655167694
  - # 20
    frequency:    38.9655167694
  - # 21
    frequency:    40.5517948114
  - # 22
    frequency:    40.5526657013
  - # 23
    frequency:    42.7877949878
  - # 24
    frequency:    42.9643479585

- q-position: [    0.4270833,    0.0104167,    0.0104167 ]
  distance_from_gamma:  0.123335370
  weight: 24   
  band:
  - # 1
    frequency:    14.8097740960
  - # 2
    frequency:    14.8183338565
  - # 3
    frequency:    18.6661823653
  - # 4
    frequency:    18.6794710022
  - # 5
    frequency:    21.2244511541
  - # 6
    frequency:    27.1377560216
  - # 7
    frequency:    27.9040771232
  - # 8
    frequency:    27.9040771232
  - # 9
    frequency:    28.3991403382
  - # 10
    frequency:    28.3991403382
  - # 11
    frequency:    32.8401001685
  - # 12
    frequency:    32.8401001685
  - # 13
    frequency:    33.0409026764
  - # 14
    frequency:    33.0409026764
  - # 15
    frequency:    38.7728803293
  - # 16
    frequency:    38.7728803293
  - # 17
    frequency:    38.9632810019
  - # 18
    frequency:    38.9632810019
  - # 19
    frequency:    38.9874214350
  - # 20
    frequency:    38.9888161293
  - # 21
    frequency:    40.3665402944
  - # 22
    frequency:    40.3674302646
  - # 23
    frequency:    42.8436024286
  - # 24
    frequency:    42.9746522275

- q-position: [    0.4479167,    0.0104167,    0.0104167 ]
  distance_from_gamma:  0.129344746
  weight: 24   
  band:
  - # 1
    frequency:    15.4128952661
  - # 2
    frequency:    15.4222767732
  - # 3
    frequency:    18.1704814563
  - # 4
    frequency:    18.1832373138
  - # 5
    frequency:    22.1235505923
  - # 6
    frequency:    26.3492753793
  - # 7
    frequency:    28.0944031048
  - # 8
    frequency:    28.0944031048
  - # 9
    frequency:    28.6009976776
  - # 10
    frequency:    28.6009976776
  - # 11
    frequency:    32.6772497811
  - # 12
    frequency:    32.6772497811
  - # 13
    frequency:    32.8529785365
  - # 14
    frequency:    32.8529785365
  - # 15
    frequency:    38.7742666456
  - # 16
    frequency:    38.7742666456
  - # 17
    frequency:    38.9615825202
  - # 18
    frequency:    38.9615825202
  - # 19
    frequency:    39.1876165688
  - # 20
    frequency:    39.1888812252
  - # 21
    frequency:    40.1768115609
  - # 22
    frequency:    40.1777295046
  - # 23
    frequency:    42.8888474559
  - # 24
    frequency:    42.9790887019

- q-position: [    0.4687500,    0.0104167,    0.0104167 ]
  distance_from_gamma:  0.135354425
  weight: 24   
  band:
  - # 1
    frequency:    15.9996489317
  - # 2
    frequency:    16.0098017665
  - # 3
    frequency:    17.6554048107
  - # 4
    frequency:    17.6675809978
  - # 5
    frequency:    23.0052465174
  - # 6
    frequency:    25.5414547892
  - # 7
    frequency:    28.2318417547
  - # 8
    frequency:    28.2318417547
  - # 9
    frequency:    28.7470751270
  - # 10
    frequency:    28.7470751270
  - # 11
    frequency:    32.5625097307
  - # 12
    frequency:    32.5625097307
  - # 13
    frequency:    32.7121496164
  - # 14
    frequency:    32.7121496164
  - # 15
    frequency:    38.7751899671
  - # 16
    frequency:    38.7751899671
  - # 17
    frequency:    38.9604396523
  - # 18
    frequency:    38.9604396523
  - # 19
    frequency:    39.3881702747
  - # 20
    frequency:    39.3893294924
  - # 21
    frequency:    39.9833338579
  - # 22
    frequency:    39.9842904915
  - # 23
    frequency:    42.9241539720
  - # 24
    frequency:    42.9769503442

- q-position: [    0.4895833,    0.0104167,    0.0104167 ]
  distance_from_gamma:  0.141364367
  weight: 24   
  band:
  - # 1
    frequency:    16.5693959605
  - # 2
    frequency:    16.5802711144
  - # 3
    frequency:    17.1215153435
  - # 4
    frequency:    17.1330647493
  - # 5
    frequency:    23.8690731474
  - # 6
    frequency:    24.7146047214
  - # 7
    frequency:    28.3043337328
  - # 8
    frequency:    28.3043337328
  - # 9
    frequency:    28.8242583366
  - # 10
    frequency:    28.8242583366
  - # 11
    frequency:    32.5038931901
  - # 12
    frequency:    32.5038931901
  - # 13
    frequency:    32.6351671209
  - # 14
    frequency:    32.6351671209
  - # 15
    frequency:    38.7756514019
  - # 16
    frequency:    38.7756514019
  - # 17
    frequency:    38.9598650034
  - # 18
    frequency:    38.9598650034
  - # 19
    frequency:    39.5882046451
  - # 20
    frequency:    39.5892793860
  - # 21
    frequency:    39.7868671920
  - # 22
    frequency:    39.7878753046
  - # 23
    frequency:    42.9501644070
  - # 24
    frequency:    42.9675382612

- q-position: [    0.0312500,    0.0312500,    0.0104167 ]
  distance_from_gamma:  0.013104558
  weight: 24   
  band:
  - # 1
    frequency:     1.5104402673
  - # 2
    frequency:     1.6673483981
  - # 3
    frequency:     2.5376695830
  - # 4
    frequency:    23.8326054065
  - # 5
    frequency:    23.8326054065
  - # 6
    frequency:    23.8387057622
  - # 7
    frequency:    23.8813150270
  - # 8
    frequency:    23.8813150270
  - # 9
    frequency:    23.9844048504
  - # 10
    frequency:    36.3254758351
  - # 11
    frequency:    36.3900773953
  - # 12
    frequency:    36.3900773953
  - # 13
    frequency:    36.4319494731
  - # 14
    frequency:    36.4326508971
  - # 15
    frequency:    36.4326508971
  - # 16
    frequency:    38.3058594708
  - # 17
    frequency:    38.3058594708
  - # 18
    frequency:    38.6680297203
  - # 19
    frequency:    39.0534286244
  - # 20
    frequency:    39.3850111578
  - # 21
    frequency:    39.3850111578
  - # 22
    frequency:    42.5051176693
  - # 23
    frequency:    42.5115366381
  - # 24
    frequency:    42.5318207945

- q-position: [    0.0520833,    0.0312500,    0.0104167 ]
  distance_from_gamma:  0.017786054
  weight: 48   
  band:
  - # 1
    frequency:     2.0923663533
  - # 2
    frequency:     2.2796917755
  - # 3
    frequency:     3.4026103281
  - # 4
    frequency:    23.7811910724
  - # 5
    frequency:    23.8299860770
  - # 6
    frequency:    23.8481448656
  - # 7
    frequency:    23.8743635502
  - # 8
    frequency:    23.9553310847
  - # 9
    frequency:    24.0900241696
  - # 10
    frequency:    36.2514303159
  - # 11
    frequency:    36.3247659017
  - # 12
    frequency:    36.4044135158
  - # 13
    frequency:    36.4061005945
  - # 14
    frequency:    36.4246152376
  - # 15
    frequency:    36.4633333345
  - # 16
    frequency:    37.9181749888
  - # 17
    frequency:    38.3271568429
  - # 18
    frequency:    38.6471292917
  - # 19
    frequency:    39.0710140976
  - # 20
    frequency:    39.3728010702
  - # 21
    frequency:    39.7103586821
  - # 22
    frequency:    42.4825851562
  - # 23
    frequency:    42.4916246989
  - # 24
    frequency:    42.5369654697

- q-position: [    0.0729167,    0.0312500,    0.0104167 ]
  distance_from_gamma:  0.023092534
  weight: 48   
  band: