       N       E                     dE             d eps       ncg     rms          rms(c)
DAV:   1     0.524557957742E+03    0.52456E+03   -0.11527E+05 13440   0.107E+03
DAV:   2    -0.563816044555E+03   -0.10884E+04   -0.10407E+04 17728   0.237E+02
DAV:   3    -0.603350552817E+03   -0.39535E+02   -0.39324E+02 17696   0.422E+01
DAV:   4    -0.603717754999E+03   -0.36720E+00   -0.36656E+00 17504   0.456E+00
DAV:   5    -0.603724737393E+03   -0.69824E-02   -0.69799E-02 16800   0.569E-01    0.298E+01
DAV:   6    -0.584137142855E+03    0.19588E+02   -0.12689E+01 15648   0.739E+00    0.161E+01
DAV:   7    -0.577544331247E+03    0.65928E+01   -0.14126E+01 16320   0.803E+00    0.203E+00
DAV:   8    -0.577614980512E+03   -0.70649E-01   -0.30861E-01 16192   0.113E+00    0.233E-01
DAV:   9    -0.577617019452E+03   -0.20389E-02   -0.36083E-03 17376   0.148E-01    0.842E-02
DAV:  10    -0.577617432521E+03   -0.41307E-03   -0.33620E-04 15808   0.501E-02    0.832E-03
DAV:  11    -0.577617439508E+03   -0.69865E-05   -0.98685E-06 17504   0.776E-03    0.194E-03
DAV:  12    -0.577617439151E+03    0.35726E-06   -0.21586E-07 17088   0.124E-03    0.270E-04
DAV:  13    -0.577617439160E+03   -0.95424E-08   -0.48552E-09 12992   0.180E-04
   1 F= -.57761744E+03 E0= -.57761744E+03  d E =-.690966E-13
 Linear response reoptimize wavefunctions
DAV:   1    -0.577617439190E+03   -0.29685E-07   -0.54460E-10 10432   0.645E-05
DAV:   2    -0.577617439190E+03   -0.13824E-09   -0.60794E-11 10080   0.198E-05
DAV:   3    -0.577617439190E+03    0.10914E-10   -0.76893E-12 10048   0.815E-06
 Linear response DOF=           1
 Linear response progress:
  Degree of freedom:   1/  1
       N       E                     dE             d eps       ncg     rms          rms(c)
RMM:   1    -0.152534032766E+00   -0.15253E+00    0.38013E-03114605   0.763E-01
RMM:   2    -0.127903064535E+00    0.24631E-01   -0.71982E-03 67708   0.194E-01    0.207E-01
RMM:   3    -0.127606419269E+00    0.29665E-03   -0.12525E-03 71233   0.595E-02    0.103E-01
RMM:   4    -0.127953497348E+00   -0.34708E-03   -0.35600E-04 71498   0.331E-02    0.299E-02
RMM:   5    -0.128066834781E+00   -0.11334E-03   -0.22384E-05 72769   0.893E-03    0.700E-03
RMM:   6    -0.128052266070E+00    0.14569E-04   -0.96872E-07 73443   0.208E-03    0.144E-03
RMM:   7    -0.128043942867E+00    0.83232E-05   -0.39749E-08 74685   0.593E-04    0.413E-04
RMM:   8    -0.128043397454E+00    0.54541E-06   -0.12606E-08 75799   0.241E-04    0.848E-05
RMM:   9    -0.128043126961E+00    0.27049E-06    0.35798E-08 77311   0.124E-04    0.362E-05
RMM:  10    -0.128043176166E+00   -0.49205E-07    0.28648E-08 78949   0.115E-04    0.989E-06
RMM:  11    -0.128043176948E+00   -0.78169E-09    0.29710E-08 79427   0.111E-04    0.398E-06
 Linear response finished
