# Thermal properties / unit cell (natom)

unit:
  temperature:   K
  free_energy:   kJ/mol
  entropy:       J/K/mol
  heat_capacity: J/K/mol

natom: 8    
cutoff_frequency:    0.000
num_modes: 2654208
num_integrated_modes: 2654208

zero_point_energy:     151.2432831
high_T_entropy:        416.9043448

thermal_properties:
- temperature:         0.0000000
  free_energy:       151.2432831
  entropy:             0.0000000
  heat_capacity:       0.0000000
  energy:            151.2432831

- temperature:         2.0000000
  free_energy:       151.2432831
  entropy:             0.0000000
  heat_capacity:       0.0000000
  energy:            151.2432831

- temperature:         4.0000000
  free_energy:       151.2432831
  entropy:             0.0000058
  heat_capacity:       0.0000387
  energy:            151.2432831

- temperature:         6.0000000
  free_energy:       151.2432830
  entropy:             0.0000532
  heat_capacity:       0.0002383
  energy:            151.2432834

- temperature:         8.0000000
  free_energy:       151.2432828
  entropy:             0.0001697
  heat_capacity:       0.0006236
  energy:            151.2432842

- temperature:        10.0000000
  free_energy:       151.2432823
  entropy:             0.0003702
  heat_capacity:       0.0012395
  energy:            151.2432860

- temperature:        12.0000000
  free_energy:       151.2432813
  entropy:             0.0006717
  heat_capacity:       0.0021508
  energy:            151.2432893

- temperature:        14.0000000
  free_energy:       151.2432795
  entropy:             0.0010937
  heat_capacity:       0.0034219
  energy:            151.2432948

- temperature:        16.0000000
  free_energy:       151.2432768
  entropy:             0.0016562
  heat_capacity:       0.0051156
  energy:            151.2433033

- temperature:        18.0000000
  free_energy:       151.2432728
  entropy:             0.0023794
  heat_capacity:       0.0072950
  energy:            151.2433156

- temperature:        20.0000000
  free_energy:       151.2432672
  entropy:             0.0032842
  heat_capacity:       0.0100239
  energy:            151.2433329

- temperature:        22.0000000
  free_energy:       151.2432595
  entropy:             0.0043912
  heat_capacity:       0.0133670
  energy:            151.2433561

- temperature:        24.0000000
  free_energy:       151.2432495
  entropy:             0.0057216
  heat_capacity:       0.0173901
  energy:            151.2433868

- temperature:        26.0000000
  free_energy:       151.2432365
  entropy:             0.0072967
  heat_capacity:       0.0221604
  energy:            151.2434262

- temperature:        28.0000000
  free_energy:       151.2432201
  entropy:             0.0091382
  heat_capacity:       0.0277467
  energy:            151.2434760

- temperature:        30.0000000
  free_energy:       151.2431997
  entropy:             0.0112679
  heat_capacity:       0.0342194
  energy:            151.2435378

- temperature:        32.0000000
  free_energy:       151.2431748
  entropy:             0.0137082
  heat_capacity:       0.0416510
  energy:            151.2436135

- temperature:        34.0000000
  free_energy:       151.2431447
  entropy:             0.0164819
  heat_capacity:       0.0501163
  energy:            151.2437051

- temperature:        36.0000000
  free_energy:       151.2431087
  entropy:             0.0196121
  heat_capacity:       0.0596926
  energy:            151.2438147

- temperature:        38.0000000
  free_energy:       151.2430660
  entropy:             0.0231224
  heat_capacity:       0.0704602
  energy:            151.2439446

- temperature:        40.0000000
  free_energy:       151.2430159
  entropy:             0.0270371
  heat_capacity:       0.0825029
  energy:            151.2440974

- temperature:        42.0000000
  free_energy:       151.2429575
  entropy:             0.0313811
  heat_capacity:       0.0959086
  energy:            151.2442756

- temperature:        44.0000000
  free_energy:       151.2428901
  entropy:             0.0361799
  heat_capacity:       0.1107696
  energy:            151.2444820

- temperature:        46.0000000
  free_energy:       151.2428125
  entropy:             0.0414600
  heat_capacity:       0.1271836
  energy:            151.2447197

- temperature:        48.0000000
  free_energy:       151.2427239
  entropy:             0.0472486
  heat_capacity:       0.1452543
  energy:            151.2449918

- temperature:        50.0000000
  free_energy:       151.2426232
  entropy:             0.0535742
  heat_capacity:       0.1650921
  energy:            151.2453019

- temperature:        52.0000000
  free_energy:       151.2425092
  entropy:             0.0604660
  heat_capacity:       0.1868149
  energy:            151.2456534

- temperature:        54.0000000
  free_energy:       151.2423809
  entropy:             0.0679550
  heat_capacity:       0.2105486
  energy:            151.2460505

- temperature:        56.0000000
  free_energy:       151.2422370
  entropy:             0.0760732
  heat_capacity:       0.2364274
  energy:            151.2464971

- temperature:        58.0000000
  free_energy:       151.2420762
  entropy:             0.0848541
  heat_capacity:       0.2645944
  energy:            151.2469977

- temperature:        60.0000000
  free_energy:       151.2418971
  entropy:             0.0943331
  heat_capacity:       0.2952018
  energy:            151.2475571

- temperature:        62.0000000
  free_energy:       151.2416983
  entropy:             0.1045468
  heat_capacity:       0.3284106
  energy:            151.2481802

- temperature:        64.0000000
  free_energy:       151.2414784
  entropy:             0.1155340
  heat_capacity:       0.3643902
  energy:            151.2488726

- temperature:        66.0000000
  free_energy:       151.2412357
  entropy:             0.1273350
  heat_capacity:       0.4033187
  energy:            151.2496398

- temperature:        68.0000000
  free_energy:       151.2409685
  entropy:             0.1399919
  heat_capacity:       0.4453811
  energy:            151.2504879

- temperature:        70.0000000
  free_energy:       151.2406751
  entropy:             0.1535488
  heat_capacity:       0.4907696
  energy:            151.2514235

- temperature:        72.0000000
  free_energy:       151.2403536
  entropy:             0.1680514
  heat_capacity:       0.5396816
  energy:            151.2524534

- temperature:        74.0000000
  free_energy:       151.2400022
  entropy:             0.1835472
  heat_capacity:       0.5923195
  energy:            151.2535847

- temperature:        76.0000000
  free_energy:       151.2396188
  entropy:             0.2000853
  heat_capacity:       0.6488887
  energy:            151.2548253

- temperature:        78.0000000
  free_energy:       151.2392012
  entropy:             0.2177164
  heat_capacity:       0.7095969
  energy:            151.2561830

- temperature:        80.0000000
  free_energy:       151.2387471
  entropy:             0.2364925
  heat_capacity:       0.7746522
  energy:            151.2576665

- temperature:        82.0000000
  free_energy:       151.2382544
  entropy:             0.2564670
  heat_capacity:       0.8442626
  energy:            151.2592847

- temperature:        84.0000000
  free_energy:       151.2377204
  entropy:             0.2776944
  heat_capacity:       0.9186339
  energy:            151.2610468

- temperature:        86.0000000
  free_energy:       151.2371427
  entropy:             0.3002301
  heat_capacity:       0.9979687
  energy:            151.2629625

- temperature:        88.0000000
  free_energy:       151.2365186
  entropy:             0.3241304
  heat_capacity:       1.0824655
  energy:            151.2650421

- temperature:        90.0000000
  free_energy:       151.2358453
  entropy:             0.3494521
  heat_capacity:       1.1723172
  energy:            151.2672960

- temperature:        92.0000000
  free_energy:       151.2351198
  entropy:             0.3762525
  heat_capacity:       1.2677103
  energy:            151.2697350

- temperature:        94.0000000
  free_energy:       151.2343392
  entropy:             0.4045891
  heat_capacity:       1.3688239
  energy:            151.2723706

- temperature:        96.0000000
  free_energy:       151.2335004
  entropy:             0.4345195
  heat_capacity:       1.4758288
  energy:            151.2752143

- temperature:        98.0000000
  free_energy:       151.2326000
  entropy:             0.4661011
  heat_capacity:       1.5888871
  energy:            151.2782780

- temperature:       100.0000000
  free_energy:       151.2316348
  entropy:             0.4993910
  heat_capacity:       1.7081515
  energy:            151.2815740

- temperature:       102.0000000
  free_energy:       151.2306013
  entropy:             0.5344460
  heat_capacity:       1.8337646
  energy:            151.2851148

- temperature:       104.0000000
  free_energy:       151.2294958
  entropy:             0.5713219
  heat_capacity:       1.9658589
  energy:            151.2889133

- temperature:       106.0000000
  free_energy:       151.2283148
  entropy:             0.6100742
  heat_capacity:       2.1045565
  energy:            151.2929826

- temperature:       108.0000000
  free_energy:       151.2270543
  entropy:             0.6507571
  heat_capacity:       2.2499688
  energy:            151.2973360

- temperature:       110.0000000
  free_energy:       151.2257104
  entropy:             0.6934240
  heat_capacity:       2.4021967
  energy:            151.3019871

- temperature:       112.0000000
  free_energy:       151.2242792
  entropy:             0.7381269
  heat_capacity:       2.5613305
  energy:            151.3069494

- temperature:       114.0000000
  free_energy:       151.2227565
  entropy:             0.7849168
  heat_capacity:       2.7274500
  energy:            151.3122370

- temperature:       116.0000000
  free_energy:       151.2211381
  entropy:             0.8338432
  heat_capacity:       2.9006248
  energy:            151.3178639

- temperature:       118.0000000
  free_energy:       151.2194197
  entropy:             0.8849541
  heat_capacity:       3.0809146
  energy:            151.3238443

- temperature:       120.0000000
  free_energy:       151.2175968
  entropy:             0.9382962
  heat_capacity:       3.2683692
  energy:            151.3301924

- temperature:       122.0000000
  free_energy:       151.2156650
  entropy:             0.9939145
  heat_capacity:       3.4630293
  energy:            151.3369226

- temperature:       124.0000000
  free_energy:       151.2136196
  entropy:             1.0518524
  heat_capacity:       3.6649267
  energy:            151.3440493

- temperature:       126.0000000
  free_energy:       151.2114560
  entropy:             1.1121516
  heat_capacity:       3.8740843
  energy:            151.3515871

- temperature:       128.0000000
  free_energy:       151.2091694
  entropy:             1.1748522
  heat_capacity:       4.0905174
  energy:            151.3595505

- temperature:       130.0000000
  free_energy:       151.2067550
  entropy:             1.2399928
  heat_capacity:       4.3142331
  energy:            151.3679540

- temperature:       132.0000000
  free_energy:       151.2042078
  entropy:             1.3076098
  heat_capacity:       4.5452318
  energy:            151.3768123

- temperature:       134.0000000
  free_energy:       151.2015229
  entropy:             1.3777384
  heat_capacity:       4.7835068
  energy:            151.3861398

- temperature:       136.0000000
  free_energy:       151.1986951
  entropy:             1.4504119
  heat_capacity:       5.0290451
  energy:            151.3959512

- temperature:       138.0000000
  free_energy:       151.1957195
  entropy:             1.5256618
  heat_capacity:       5.2818278
  energy:            151.4062608

- temperature:       140.0000000
  free_energy:       151.1925907
  entropy:             1.6035181
  heat_capacity:       5.5418308
  energy:            151.4170833

- temperature:       142.0000000
  free_energy:       151.1893037
  entropy:             1.6840090
  heat_capacity:       5.8090245
  energy:            151.4284329

- temperature:       144.0000000
  free_energy:       151.1858529
  entropy:             1.7671612
  heat_capacity:       6.0833750
  energy:            151.4403241

- temperature:       146.0000000
  free_energy:       151.1822332
  entropy:             1.8529997
  heat_capacity:       6.3648439
  energy:            151.4527712

- temperature:       148.0000000
  free_energy:       151.1784391
  entropy:             1.9415480
  heat_capacity:       6.6533888
  energy:            151.4657882

- temperature:       150.0000000
  free_energy:       151.1744652
  entropy:             2.0328281
  heat_capacity:       6.9489638
  energy:            151.4793894

- temperature:       152.0000000
  free_energy:       151.1703060
  entropy:             2.1268603
  heat_capacity:       7.2515198
  energy:            151.4935887

- temperature:       154.0000000
  free_energy:       151.1659559
  entropy:             2.2236636
  heat_capacity:       7.5610045
  energy:            151.5084001

- temperature:       156.0000000
  free_energy:       151.1614095
  entropy:             2.3232556
  heat_capacity:       7.8773629
  energy:            151.5238373

- temperature:       158.0000000
  free_energy:       151.1566610
  entropy:             2.4256524
  heat_capacity:       8.2005375
  energy:            151.5399141

- temperature:       160.0000000
  free_energy:       151.1517050
  entropy:             2.5308689
  heat_capacity:       8.5304686
  energy:            151.5566440

- temperature:       162.0000000
  free_energy:       151.1465357
  entropy:             2.6389184
  heat_capacity:       8.8670942
  energy:            151.5740405

- temperature:       164.0000000
  free_energy:       151.1411474
  entropy:             2.7498133
  heat_capacity:       9.2103508
  energy:            151.5921168

- temperature:       166.0000000
  free_energy:       151.1355345
  entropy:             2.8635646
  heat_capacity:       9.5601728
  energy:            151.6108862

- temperature:       168.0000000
  free_energy:       151.1296912
  entropy:             2.9801820
  heat_capacity:       9.9164931
  energy:            151.6303618

- temperature:       170.0000000
  free_energy:       151.1236119
  entropy:             3.0996743
  heat_capacity:      10.2792435
  energy:            151.6505565

- temperature:       172.0000000
  free_energy:       151.1172906
  entropy:             3.2220489
  heat_capacity:      10.6483540
  energy:            151.6714830

- temperature:       174.0000000
  free_energy:       151.1107217
  entropy:             3.3473124
  heat_capacity:      11.0237537
  energy:            151.6931541

- temperature:       176.0000000
  free_energy:       151.1038994
  entropy:             3.4754702
  heat_capacity:      11.4053705
  energy:            151.7155822

- temperature:       178.0000000
  free_energy:       151.0968179
  entropy:             3.6065267
  heat_capacity:      11.7931311
  energy:            151.7387797

- temperature:       180.0000000
  free_energy:       151.0894714
  entropy:             3.7404854
  heat_capacity:      12.1869616
  energy:            151.7627588

- temperature:       182.0000000
  free_energy:       151.0818541
  entropy:             3.8773487
  heat_capacity:      12.5867867
  energy:            151.7875315

- temperature:       184.0000000
  free_energy:       151.0739601
  entropy:             4.0171184
  heat_capacity:      12.9925307
  energy:            151.8131099

- temperature:       186.0000000
  free_energy:       151.0657836
  entropy:             4.1597952
  heat_capacity:      13.4041168
  energy:            151.8395055

- temperature:       188.0000000
  free_energy:       151.0573190
  entropy:             4.3053788
  heat_capacity:      13.8214675
  energy:            151.8667302

- temperature:       190.0000000
  free_energy:       151.0485602
  entropy:             4.4538685
  heat_capacity:      14.2445045
  energy:            151.8947952

- temperature:       192.0000000
  free_energy:       151.0395015
  entropy:             4.6052624
  heat_capacity:      14.6731490
  energy:            151.9237119

- temperature:       194.0000000
  free_energy:       151.0301372
  entropy:             4.7595581
  heat_capacity:      15.1073212
  energy:            151.9534915

- temperature:       196.0000000
  free_energy:       151.0204614
  entropy:             4.9167524
  heat_capacity:      15.5469408
  energy:            151.9841448

- temperature:       198.0000000
  free_energy:       151.0104683
  entropy:             5.0768412
  heat_capacity:      15.9919269
  energy:            152.0156828

- temperature:       200.0000000
  free_energy:       151.0001521
  entropy:             5.2398199
  heat_capacity:      16.4421979
  energy:            152.0481161

- temperature:       202.0000000
  free_energy:       150.9895071
  entropy:             5.4056833
  heat_capacity:      16.8976716
  energy:            152.0814551

- temperature:       204.0000000
  free_energy:       150.9785274
  entropy:             5.5744252
  heat_capacity:      17.3582653
  energy:            152.1157102

- temperature:       206.0000000
  free_energy:       150.9672074
  entropy:             5.7460391
  heat_capacity:      17.8238954
  energy:            152.1508915

- temperature:       208.0000000
  free_energy:       150.9555414
  entropy:             5.9205177
  heat_capacity:      18.2944781
  energy:            152.1870091

- temperature:       210.0000000
  free_energy:       150.9435235
  entropy:             6.0978533
  heat_capacity:      18.7699289
  energy:            152.2240727

- temperature:       212.0000000
  free_energy:       150.9311481
  entropy:             6.2780373
  heat_capacity:      19.2501627
  energy:            152.2620920

- temperature:       214.0000000
  free_energy:       150.9184094
  entropy:             6.4610608
  heat_capacity:      19.7350941
  energy:            152.3010764

- temperature:       216.0000000
  free_energy:       150.9053019
  entropy:             6.6469143
  heat_capacity:      20.2246370
  energy:            152.3410354

- temperature:       218.0000000
  free_energy:       150.8918199
  entropy:             6.8355877
  heat_capacity:      20.7187048
  energy:            152.3819780

- temperature:       220.0000000
  free_energy:       150.8779577
  entropy:             7.0270704
  heat_capacity:      21.2172106
  energy:            152.4239132

- temperature:       222.0000000
  free_energy:       150.8637097
  entropy:             7.2213514
  heat_capacity:      21.7200671
  energy:            152.4668498

- temperature:       224.0000000
  free_energy:       150.8490704
  entropy:             7.4184190
  heat_capacity:      22.2271863
  energy:            152.5107963

- temperature:       226.0000000
  free_energy:       150.8340342
  entropy:             7.6182613
  heat_capacity:      22.7384801
  energy:            152.5557613

- temperature:       228.0000000
  free_energy:       150.8185956
  entropy:             7.8208658
  heat_capacity:      23.2538599
  energy:            152.6017529

- temperature:       230.0000000
  free_energy:       150.8027489
  entropy:             8.0262194
  heat_capacity:      23.7732367
  energy:            152.6487794

- temperature:       232.0000000
  free_energy:       150.7864888
  entropy:             8.2343088
  heat_capacity:      24.2965215
  energy:            152.6968485

- temperature:       234.0000000
  free_energy:       150.7698099
  entropy:             8.4451203
  heat_capacity:      24.8236248
  energy:            152.7459680

- temperature:       236.0000000
  free_energy:       150.7527066
  entropy:             8.6586395
  heat_capacity:      25.3544567
  energy:            152.7961455

- temperature:       238.0000000
  free_energy:       150.7351735
  entropy:             8.8748519
  heat_capacity:      25.8889273
  energy:            152.8473883

- temperature:       240.0000000
  free_energy:       150.7172054
  entropy:             9.0937424
  heat_capacity:      26.4269467
  energy:            152.8997036

- temperature:       242.0000000
  free_energy:       150.6987968
  entropy:             9.3152958
  heat_capacity:      26.9684244
  energy:            152.9530984

- temperature:       244.0000000
  free_energy:       150.6799424
  entropy:             9.5394962
  heat_capacity:      27.5132701
  energy:            153.0075795

- temperature:       246.0000000
  free_energy:       150.6606370
  entropy:             9.7663276
  heat_capacity:      28.0613935
  energy:            153.0631536

- temperature:       248.0000000
  free_energy:       150.6408754
  entropy:             9.9957735
  heat_capacity:      28.6127039
  energy:            153.1198272

- temperature:       250.0000000
  free_energy:       150.6206522
  entropy:            10.2278172
  heat_capacity:      29.1671110
  energy:            153.1776065

- temperature:       252.0000000
  free_energy:       150.5999624
  entropy:            10.4624415
  heat_capacity:      29.7245243
  energy:            153.2364976

- temperature:       254.0000000
  free_energy:       150.5788007
  entropy:            10.6996292
  heat_capacity:      30.2848534
  energy:            153.2965065

- temperature:       256.0000000
  free_energy:       150.5571622
  entropy:            10.9393624
  heat_capacity:      30.8480082
  energy:            153.3576389

- temperature:       258.0000000
  free_energy:       150.5350416
  entropy:            11.1816233
  heat_capacity:      31.4138985
  energy:            153.4199004

- temperature:       260.0000000
  free_energy:       150.5124340
  entropy:            11.4263935
  heat_capacity:      31.9824344
  energy:            153.4832963

- temperature:       262.0000000
  free_energy:       150.4893344
  entropy:            11.6736545
  heat_capacity:      32.5535262
  energy:            153.5478318

- temperature:       264.0000000
  free_energy:       150.4657377
  entropy:            11.9233876
  heat_capacity:      33.1270846
  energy:            153.6135121

- temperature:       266.0000000
  free_energy:       150.4416392
  entropy:            12.1755736
  heat_capacity:      33.7030204
  energy:            153.6803418

- temperature:       268.0000000
  free_energy:       150.4170338
  entropy:            12.4301934
  heat_capacity:      34.2812449
  energy:            153.7483257

- temperature:       270.0000000
  free_energy:       150.3919168
  entropy:            12.6872275
  heat_capacity:      34.8616697
  energy:            153.8174682

- temperature:       272.0000000
  free_energy:       150.3662833
  entropy:            12.9466560
  heat_capacity:      35.4442069
  energy:            153.8877737

- temperature:       274.0000000
  free_energy:       150.3401286
  entropy:            13.2084591
  heat_capacity:      36.0287689
  energy:            153.9592464

- temperature:       276.0000000
  free_energy:       150.3134479
  entropy:            13.4726167
  heat_capacity:      36.6152688
  energy:            154.0318901

- temperature:       278.0000000
  free_energy:       150.2862366
  entropy:            13.7391084
  heat_capacity:      37.2036200
  energy:            154.1057087

- temperature:       280.0000000
  free_energy:       150.2584899
  entropy:            14.0079137
  heat_capacity:      37.7937365
  energy:            154.1807058

- temperature:       282.0000000
  free_energy:       150.2302034
  entropy:            14.2790120
  heat_capacity:      38.3855330
  energy:            154.2568848

- temperature:       284.0000000
  free_energy:       150.2013724
  entropy:            14.5523824
  heat_capacity:      38.9789248
  energy:            154.3342490

- temperature:       286.0000000
  free_energy:       150.1719924
  entropy:            14.8280039
  heat_capacity:      39.5738278
  energy:            154.4128015

- temperature:       288.0000000
  free_energy:       150.1420589
  entropy:            15.1058554
  heat_capacity:      40.1701585
  energy:            154.4925452

- temperature:       290.0000000
  free_energy:       150.1115675
  entropy:            15.3859157
  heat_capacity:      40.7678343
  energy:            154.5734830

- temperature:       292.0000000
  free_energy:       150.0805137
  entropy:            15.6681632
  heat_capacity:      41.3667732
  energy:            154.6556174

- temperature:       294.0000000
  free_energy:       150.0488934
  entropy:            15.9525766
  heat_capacity:      41.9668939
  energy:            154.7389509

- temperature:       296.0000000
  free_energy:       150.0167020
  entropy:            16.2391342
  heat_capacity:      42.5681162
  energy:            154.8234857

- temperature:       298.0000000
  free_energy:       149.9839354
  entropy:            16.5278142
  heat_capacity:      43.1703603
  energy:            154.9092240

- temperature:       300.0000000
  free_energy:       149.9505893
  entropy:            16.8185948
  heat_capacity:      43.7735475
  energy:            154.9961678

- temperature:       302.0000000
  free_energy:       149.9166596
  entropy:            17.1114541
  heat_capacity:      44.3775999
  energy:            155.0843188

- temperature:       304.0000000
  free_energy:       149.8821422
  entropy:            17.4063702
  heat_capacity:      44.9824405
  energy:            155.1736787

- temperature:       306.0000000
  free_energy:       149.8470328
  entropy:            17.7033210
  heat_capacity:      45.5879931
  energy:            155.2642490

- temperature:       308.0000000
  free_energy:       149.8113275
  entropy:            18.0022843
  heat_capacity:      46.1941827
  energy:            155.3560311

- temperature:       310.0000000
  free_energy:       149.7750223
  entropy:            18.3032381
  heat_capacity:      46.8009348
  energy:            155.4490261

- temperature:       312.0000000
  free_energy:       149.7381133
  entropy:            18.6061599
  heat_capacity:      47.4081763
  energy:            155.5432352

- temperature:       314.0000000
  free_energy:       149.7005964
  entropy:            18.9110278
  heat_capacity:      48.0158347
  energy:            155.6386591

- temperature:       316.0000000
  free_energy:       149.6624679
  entropy:            19.2178192
  heat_capacity:      48.6238388
  energy:            155.7352987

- temperature:       318.0000000
  free_energy:       149.6237239
  entropy:            19.5265119
  heat_capacity:      49.2321182
  energy:            155.8331547

- temperature:       320.0000000
  free_energy:       149.5843606
  entropy:            19.8370837
  heat_capacity:      49.8406035
  energy:            155.9322274

- temperature:       322.0000000
  free_energy:       149.5443743
  entropy:            20.1495120
  heat_capacity:      50.4492264
  energy:            156.0325172

- temperature:       324.0000000
  free_energy:       149.5037613
  entropy:            20.4637747
  heat_capacity:      51.0579197
  energy:            156.1340243

- temperature:       326.0000000
  free_energy:       149.4625180
  entropy:            20.7798493
  heat_capacity:      51.6666171
  energy:            156.2367488

- temperature:       328.0000000
  free_energy:       149.4206407
  entropy:            21.0977135
  heat_capacity:      52.2752534
  energy:            156.3406907

- temperature:       330.0000000
  free_energy:       149.3781260
  entropy:            21.4173449
  heat_capacity:      52.8837646
  energy:            156.4458498

- temperature:       332.0000000
  free_energy:       149.3349702
  entropy:            21.7387214
  heat_capacity:      53.4920874
  energy:            156.5522257

- temperature:       334.0000000
  free_energy:       149.2911699
  entropy:            22.0618205
  heat_capacity:      54.1001601
  energy:            156.6598180

- temperature:       336.0000000
  free_energy:       149.2467218
  entropy:            22.3866201
  heat_capacity:      54.7079215
  energy:            156.7686261

- temperature:       338.0000000
  free_energy:       149.2016223
  entropy:            22.7130979
  heat_capacity:      55.3153119
  energy:            156.8786494

- temperature:       340.0000000
  free_energy:       149.1558683
  entropy:            23.0412318
  heat_capacity:      55.9222726
  energy:            156.9898871

- temperature:       342.0000000
  free_energy:       149.1094563
  entropy:            23.3709996
  heat_capacity:      56.5287457
  energy:            157.1023382

- temperature:       344.0000000
  free_energy:       149.0623832
  entropy:            23.7023793
  heat_capacity:      57.1346749
  energy:            157.2160017

- temperature:       346.0000000
  free_energy:       149.0146457
  entropy:            24.0353490
  heat_capacity:      57.7400044
  energy:            157.3308765

- temperature:       348.0000000
  free_energy:       148.9662407
  entropy:            24.3698865
  heat_capacity:      58.3446799
  energy:            157.4469613

- temperature:       350.0000000
  free_energy:       148.9171651
  entropy:            24.7059702
  heat_capacity:      58.9486480
  energy:            157.5642547

- temperature:       352.0000000
  free_energy:       148.8674159
  entropy:            25.0435781
  heat_capacity:      59.5518565
  energy:            157.6827553

- temperature:       354.0000000
  free_energy:       148.8169898
  entropy:            25.3826886
  heat_capacity:      60.1542542
  energy:            157.8024616

- temperature:       356.0000000
  free_energy:       148.7658841
  entropy:            25.7232800