<?xml version="1.0" encoding="ISO-8859-1"?>
<modeling>
 <generator>
  <i name="program" type="string">vasp </i>
  <i name="version" type="string">5.4.4.18Apr17-6-g9f103f2a35  </i>
  <i name="subversion" type="string">(build Mar 12 2022 03:36:41) complex            parallel </i>
  <i name="platform" type="string">IFC19.0.3.199_CrayMPICH7.7.19 </i>
  <i name="date" type="string">2022 12 01 </i>
  <i name="time" type="string">05:00:13 </i>
 </generator>
 <incar>
  <i type="string" name="PREC">accurate</i>
  <i type="int" name="IALGO">    38</i>
  <i type="logical" name="ADDGRID"> T  </i>
  <i type="int" name="IBRION">     8</i>
  <i name="EDIFF">      0.00000001</i>
  <i type="logical" name="LREAL"> F  </i>
  <i type="int" name="ISMEAR">     0</i>
  <i name="SIGMA">      0.06000000</i>
  <i type="logical" name="LWAVE"> F  </i>
  <i type="logical" name="LCHARG"> F  </i>
  <v type="int" name="KPOINT_BSE">    -1     0     0     0</v>
 </incar>
 <structure name="primitive_cell" >
  <crystal>
   <varray name="basis" >
    <v>       1.73242000       1.73242000       0.00000000 </v>
    <v>       1.73242000       0.00000000      -1.73242000 </v>
    <v>       0.00000000       1.73242000      -1.73242000 </v>
   </varray>
   <i name="volume">     10.39895173 </i>
   <varray name="rec_basis" >
    <v>       0.28861362       0.28861362       0.28861362 </v>
    <v>       0.28861362      -0.28861362      -0.28861362 </v>
    <v>      -0.28861362       0.28861362      -0.28861362 </v>
   </varray>
  </crystal>
  <varray name="positions" >
   <v>       0.25000000       0.25000000       0.25000000 </v>
   <v>      -0.50000000      -0.50000000      -0.50000000 </v>
  </varray>
 </structure>
 <varray name="primitive_index" >
  <v type="int" >        1 </v>
  <v type="int" >       11 </v>
 </varray>
 <kpoints>
  <generation param="Gamma">
   <v type="int" name="divisions">       8        8        8 </v>
   <v name="usershift">      0.00000000       0.00000000       0.00000000 </v>
   <v name="genvec1">      0.12500000       0.00000000       0.00000000 </v>
   <v name="genvec2">      0.00000000       0.12500000       0.00000000 </v>
   <v name="genvec3">      0.00000000       0.00000000       0.12500000 </v>
   <v name="shift">      0.00000000       0.00000000       0.00000000 </v>
  </generation>
  <varray name="kpointlist" >
   <v>       0.00000000       0.00000000       0.00000000 </v>
   <v>       0.12500000       0.00000000       0.00000000 </v>
   <v>       0.25000000       0.00000000       0.00000000 </v>
   <v>       0.37500000       0.00000000       0.00000000 </v>
   <v>       0.50000000       0.00000000       0.00000000 </v>
   <v>       0.12500000       0.12500000       0.00000000 </v>
   <v>       0.25000000       0.12500000       0.00000000 </v>
   <v>       0.37500000       0.12500000       0.00000000 </v>
   <v>       0.50000000       0.12500000       0.00000000 </v>
   <v>       0.25000000       0.25000000       0.00000000 </v>
   <v>       0.37500000       0.25000000       0.00000000 </v>
   <v>       0.50000000       0.25000000       0.00000000 </v>
   <v>       0.37500000       0.37500000       0.00000000 </v>
   <v>       0.50000000       0.37500000       0.00000000 </v>
   <v>       0.50000000       0.50000000       0.00000000 </v>
   <v>       0.12500000       0.12500000       0.12500000 </v>
   <v>       0.25000000       0.12500000       0.12500000 </v>
   <v>       0.37500000       0.12500000       0.12500000 </v>
   <v>       0.50000000       0.12500000       0.12500000 </v>
   <v>       0.25000000       0.25000000       0.12500000 </v>
   <v>       0.37500000       0.25000000       0.12500000 </v>
   <v>       0.50000000       0.25000000       0.12500000 </v>
   <v>       0.37500000       0.37500000       0.12500000 </v>
   <v>       0.50000000       0.37500000       0.12500000 </v>
   <v>       0.50000000       0.50000000       0.12500000 </v>
   <v>       0.25000000       0.25000000       0.25000000 </v>
   <v>       0.37500000       0.25000000       0.25000000 </v>
   <v>       0.50000000       0.25000000       0.25000000 </v>
   <v>       0.37500000       0.37500000       0.25000000 </v>
   <v>       0.50000000       0.37500000       0.25000000 </v>
   <v>       0.50000000       0.50000000       0.25000000 </v>
   <v>       0.37500000       0.37500000       0.37500000 </v>
   <v>       0.50000000       0.37500000       0.37500000 </v>
   <v>       0.50000000       0.50000000       0.37500000 </v>
   <v>       0.50000000       0.50000000       0.50000000 </v>
  </varray>
  <varray name="weights" >
   <v>       0.00195312 </v>
   <v>       0.01171875 </v>
   <v>       0.01171875 </v>
   <v>       0.01171875 </v>
   <v>       0.00585938 </v>
   <v>       0.02343750 </v>
   <v>       0.04687500 </v>
   <v>       0.04687500 </v>
   <v>       0.02343750 </v>
   <v>       0.02343750 </v>
   <v>       0.04687500 </v>
   <v>       0.02343750 </v>
   <v>       0.02343750 </v>
   <v>       0.02343750 </v>
   <v>       0.00585938 </v>
   <v>       0.01562500 </v>
   <v>       0.04687500 </v>
   <v>       0.04687500 </v>
   <v>       0.02343750 </v>
   <v>       0.04687500 </v>
   <v>       0.09375000 </v>
   <v>       0.04687500 </v>
   <v>       0.04687500 </v>
   <v>       0.04687500 </v>
   <v>       0.01171875 </v>
   <v>       0.01562500 </v>
   <v>       0.04687500 </v>
   <v>       0.02343750 </v>
   <v>       0.04687500 </v>
   <v>       0.04687500 </v>
   <v>       0.01171875 </v>
   <v>       0.01562500 </v>
   <v>       0.02343750 </v>
   <v>       0.01171875 </v>
   <v>       0.00195312 </v>
  </varray>
 </kpoints>
 <parameters>
  <separator name="general" >
   <i type="string" name="SYSTEM">unknown system</i>
   <i type="logical" name="LCOMPAT"> F  </i>
  </separator>
  <separator name="electronic" >
   <i type="string" name="PREC">accura</i>
   <i name="ENMAX">    400.00000000</i>
   <i name="ENAUG">    644.87300000</i>
   <i name="EDIFF">      0.00000001</i>
   <i type="int" name="IALGO">    38</i>
   <i type="int" name="IWAVPR">    11</i>
   <i type="int" name="NBANDS">   192</i>
   <i name="NELECT">    256.00000000</i>
   <i type="int" name="TURBO">     0</i>
   <i type="int" name="IRESTART">     0</i>
   <i type="int" name="NREBOOT">     0</i>
   <i type="int" name="NMIN">     0</i>
   <i name="EREF">      0.00000000</i>
   <separator name="electronic smearing" >
    <i type="int" name="ISMEAR">     0</i>
    <i name="SIGMA">      0.06000000</i>
    <i name="KSPACING">      0.50000000</i>
    <i type="logical" name="KGAMMA"> T  </i>
   </separator>
   <separator name="electronic projectors" >
    <i type="logical" name="LREAL"> F  </i>
    <v name="ROPT">      0.00000000</v>
    <i type="int" name="LMAXPAW">  -100</i>
    <i type="int" name="LMAXMIX">     2</i>
    <i type="logical" name="NLSPLINE"> F  </i>
   </separator>
   <separator name="electronic startup" >
    <i type="int" name="ISTART">     0</i>
    <i type="int" name="ICHARG">     2</i>
    <i type="int" name="INIWAV">     1</i>
   </separator>
   <separator name="electronic spin" >
    <i type="int" name="ISPIN">     1</i>
    <i type="logical" name="LNONCOLLINEAR"> F  </i>
    <v name="MAGMOM">      1.00000000      1.00000000      1.00000000      1.00000000      1.00000000      1.00000000      1.00000000      1.00000000      1.00000000      1.00000000      1.00000000      1.00000000      1.00000000      1.00000000      1.00000000      1.00000000      1.00000000      1.00000000      1.00000000      1.00000000
      1.00000000      1.00000000      1.00000000      1.00000000      1.00000000      1.00000000      1.00000000      1.00000000      1.00000000      1.00000000      1.00000000      1.00000000      1.00000000      1.00000000      1.00000000      1.00000000      1.00000000      1.00000000      1.00000000      1.00000000
      1.00000000      1.00000000      1.00000000      1.00000000      1.00000000      1.00000000      1.00000000      1.00000000      1.00000000      1.00000000      1.00000000      1.00000000      1.00000000      1.00000000      1.00000000      1.00000000      1.00000000      1.00000000      1.00000000      1.00000000
      1.00000000      1.00000000      1.00000000      1.00000000</v>
    <i name="NUPDOWN">     -1.00000000</i>
    <i type="logical" name="LSORBIT"> F  </i>
    <v name="SAXIS">      0.00000000      0.00000000      1.00000000</v>
    <i type="logical" name="LSPIRAL"> F  </i>
    <v name="QSPIRAL">      0.00000000      0.00000000      0.00000000</v>
    <i type="logical" name="LZEROZ"> F  </i>
   </separator>
   <separator name="electronic exchange-correlation" >
    <i type="logical" name="LASPH"> F  </i>
    <i type="logical" name="LMETAGGA"> F  </i>
   </separator>
   <separator name="electronic convergence" >
    <i type="int" name="NELM">    60</i>
    <i type="int" name="NELMDL">    -5</i>
    <i type="int" name="NELMIN">     2</i>
    <i name="ENINI">    400.00000000</i>
    <separator name="electronic convergence detail" >
     <i type="logical" name="LDIAG"> T  </i>
     <i type="logical" name="LSUBROT"> F  </i>
     <i name="WEIMIN">      0.00100000</i>
     <i name="EBREAK">      0.00000000</i>
     <i name="DEPER">      0.30000000</i>
     <i type="int" name="NRMM">     4</i>
     <i name="TIME">      0.40000000</i>
    </separator>
   </separator>
   <separator name="electronic mixer" >
    <i name="AMIX">      0.40000000</i>
    <i name="BMIX">      1.00000000</i>
    <i name="AMIN">      0.10000000</i>
    <i name="AMIX_MAG">      1.60000000</i>
    <i name="BMIX_MAG">      1.00000000</i>
    <separator name="electronic mixer details" >
     <i type="int" name="IMIX">     4</i>
     <i type="logical" name="MIXFIRST"> F  </i>
     <i type="int" name="MAXMIX">   -45</i>
     <i name="WC">    100.00000000</i>
     <i type="int" name="INIMIX">     1</i>
     <i type="int" name="MIXPRE">     1</i>
     <i type="int" name="MREMOVE">     5</i>
    </separator>
   </separator>
   <separator name="electronic dipolcorrection" >
    <i type="logical" name="LDIPOL"> F  </i>
    <i type="logical" name="LMONO"> F  </i>
    <i type="int" name="IDIPOL">     0</i>
    <i name="EPSILON">      1.00000000</i>
    <v name="DIPOL">   -100.00000000   -100.00000000   -100.00000000</v>
    <i name="EFIELD">      0.00000000</i>
   </separator>
  </separator>
  <separator name="grids" >
   <i type="int" name="NGX">    48</i>
   <i type="int" name="NGY">    48</i>
   <i type="int" name="NGZ">    48</i>
   <i type="int" name="NGXF">    96</i>
   <i type="int" name="NGYF">    96</i>
   <i type="int" name="NGZF">    96</i>
   <i type="logical" name="ADDGRID"> T  </i>
  </separator>
  <separator name="ionic" >
   <i type="int" name="NSW">     1</i>
   <i type="int" name="IBRION">     8</i>
   <i type="int" name="MDALGO">     0</i>
   <i type="int" name="ISIF">     2</i>
   <i name="PSTRESS">      0.00000000</i>
   <i name="EDIFFG">      0.00000010</i>
   <i type="int" name="NFREE">     0</i>
   <i name="POTIM">      0.50000000</i>
   <i name="SMASS">     -3.00000000</i>
   <i name="SCALEE">      1.00000000</i>
  </separator>
  <separator name="ionic md" >
   <i name="TEBEG">      0.00010000</i>
   <i name="TEEND">      0.00010000</i>
   <i type="int" name="NBLOCK">     1</i>
   <i type="int" name="KBLOCK">     1</i>
   <i type="int" name="NPACO">   256</i>
   <i name="APACO">     16.00000000</i>
  </separator>
  <separator name="symmetry" >
   <i type="int" name="ISYM">     2</i>
   <i name="SYMPREC">      0.00001000</i>
  </separator>
  <separator name="dos" >
   <i type="int" name="LORBIT">     0</i>
   <v name="RWIGS">     -1.00000000</v>
   <i type="int" name="NEDOS">   301</i>
   <i name="EMIN">     10.00000000</i>
   <i name="EMAX">    -10.00000000</i>
   <i name="EFERMI">      0.00000000</i>
  </separator>
  <separator name="writing" >
   <i type="int" name="NWRITE">     2</i>
   <i type="logical" name="LWAVE"> F  </i>
   <i type="logical" name="LDOWNSAMPLE"> F  </i>
   <i type="logical" name="LCHARG"> F  </i>
   <i type="logical" name="LPARD"> F  </i>
   <i type="logical" name="LVTOT"> F  </i>
   <i type="logical" name="LVHAR"> F  </i>
   <i type="logical" name="LELF"> F  </i>
   <i type="logical" name="LOPTICS"> F  </i>
   <v name="STM">      0.00000000      0.00000000      0.00000000      0.00000000      0.00000000      0.00000000      0.00000000</v>
  </separator>
  <separator name="performance" >
   <i type="int" name="NPAR">    32</i>
   <i type="int" name="NSIM">     4</i>
   <i type="int" name="NBLK">    -1</i>
   <i type="logical" name="LPLANE"> T  </i>
   <i type="logical" name="LSCALAPACK"> T  </i>
   <i type="logical" name="LSCAAWARE"> F  </i>
   <i type="logical" name="LSCALU"> F  </i>
   <i type="logical" name="LASYNC"> F  </i>
   <i type="logical" name="LORBITALREAL"> F  </i>
  </separator>
  <separator name="miscellaneous" >
   <i type="int" name="IDIOT">     3</i>
   <i type="int" name="ISPECIAL">     0</i>
   <i type="logical" name="LMUSIC"> F  </i>
   <v name="POMASS">     12.01100000</v>
   <v name="DARWINR">      0.00000000</v>
   <v name="DARWINV">      1.00000000</v>
   <i type="logical" name="LCORR"> T  </i>
  </separator>
  <i type="logical" name="GGA_COMPAT"> T  </i>
  <i type="logical" name="LBERRY"> F  </i>
  <i type="int" name="ICORELEVEL">     0</i>
  <i type="logical" name="LDAU"> F  </i>
  <i type="int" name="I_CONSTRAINED_M">     0</i>
  <separator name="electronic exchange-correlation" >
   <i type="string" name="GGA">--</i>
   <i type="int" name="VOSKOWN">     0</i>
   <i type="logical" name="LHFCALC"> F  </i>
   <i type="string" name="PRECFOCK"></i>
   <i type="logical" name="LSYMGRAD"> F  </i>
   <i type="logical" name="LHFONE"> F  </i>
   <i type="logical" name="LRHFCALC"> F  </i>
   <i type="logical" name="LTHOMAS"> F  </i>
   <i type="logical" name="LMODELHF"> F  </i>
   <i name="ENCUT4O">     -1.00000000</i>
   <i type="int" name="EXXOEP">     0</i>
   <i type="int" name="FOURORBIT">     0</i>
   <i name="AEXX">      0.00000000</i>
   <i name="HFALPHA">      0.00000000</i>
   <i name="MCALPHA">      0.00000000</i>
   <i name="ALDAX">      1.00000000</i>
   <i name="AGGAX">      1.00000000</i>
   <i name="ALDAC">      1.00000000</i>
   <i name="AGGAC">      1.00000000</i>
   <i type="int" name="NKREDX">     1</i>
   <i type="int" name="NKREDY">     1</i>
   <i type="int" name="NKREDZ">     1</i>
   <i type="logical" name="SHIFTRED"> F  </i>
   <i type="logical" name="ODDONLY"> F  </i>
   <i type="logical" name="EVENONLY"> F  </i>
   <i type="int" name="LMAXFOCK">     0</i>
   <i type="int" name="NMAXFOCKAE">     0</i>
   <i type="logical" name="LFOCKAEDFT"> F  </i>
   <i name="HFSCREEN">      0.00000000</i>
   <i name="HFSCREENC">      0.00000000</i>
   <i type="int" name="NBANDSGWLOW">     0</i>
  </separator>
  <separator name="vdW DFT" >
   <i type="logical" name="LUSE_VDW"> F  </i>
   <i name="Zab_VDW">     -0.84910000</i>
   <i name="PARAM1">      0.12340000</i>
   <i name="PARAM2">      1.00000000</i>
   <i name="PARAM3">      0.00000000</i>
  </separator>
  <separator name="model GW" >
   <i type="int" name="MODEL_GW">     0</i>
   <i name="MODEL_EPS0">      3.11968552</i>
   <i name="MODEL_ALPHA">      1.00000000</i>
  </separator>
  <separator name="linear response parameters" >
   <i type="logical" name="LEPSILON"> F  </i>
   <i type="logical" name="LRPA"> F  </i>
   <i type="logical" name="LNABLA"> F  </i>
   <i type="logical" name="LVEL"> F  </i>
   <i type="int" name="KINTER">     0</i>
   <i name="CSHIFT">      0.10000000</i>
   <i name="OMEGAMAX">     -1.00000000</i>
   <i name="DEG_THRESHOLD">      0.00200000</i>
   <i name="RTIME">     -0.10000000</i>
   <i name="WPLASMAI">      0.00000000</i>
   <v name="DFIELD">      0.00000000      0.00000000      0.00000000</v>
   <v name="WPLASMA">      0.00000000      0.00000000      0.00000000      0.00000000      0.00000000      0.00000000      0.00000000      0.00000000      0.00000000</v>
  </separator>
  <separator name="orbital magnetization" >
   <i type="logical" name="NUCIND"> F  </i>
   <v name="MAGPOS">      0.00000000      0.00000000      0.00000000</v>
   <i type="logical" name="LNICSALL"> T  </i>
   <i type="logical" name="ORBITALMAG"> F  </i>
   <i type="logical" name="LMAGBLOCH"> F  </i>
   <i type="logical" name="LCHIMAG"> F  </i>
   <i type="logical" name="LGAUGE"> T  </i>
   <i type="int" name="MAGATOM">     0</i>
   <v name="MAGDIPOL">      0.00000000      0.00000000      0.00000000</v>
   <v name="AVECCONST">      0.00000000      0.00000000      0.00000000</v>
  </separator>
  <separator name="response functions" >
   <i type="logical" name="LADDER"> F  </i>
   <i type="logical" name="LRPAFORCE"> F  </i>
   <i type="logical" name="LFXC"> F  </i>
   <i type="logical" name="LHARTREE"> T  </i>
   <i type="int" name="IBSE">     0</i>
   <v type="int" name="KPOINT">    -1     0     0     0</v>
   <i type="logical" name="LTCTE"> F  </i>
   <i type="logical" name="LTETE"> F  </i>
   <i type="logical" name="LTRIPLET"> F  </i>
   <i type="logical" name="LFXCEPS"> F  </i>
   <i type="logical" name="LFXHEG"> F  </i>
   <i type="int" name="NATURALO">     2</i>
   <i type="logical" name="L2ORDER"> F  </i>
   <i type="logical" name="LMP2LT"> F  </i>
   <i type="logical" name="LUSEW"> F  </i>
   <i name="ENCUTGW">     -2.00000000</i>
   <i name="ENCUTGWSOFT">     -2.00000000</i>
   <i name="ENCUTLF">     -1.00000000</i>
   <i type="int" name="LMAXMP2">    -1</i>
   <i name="SCISSOR">      0.00000000</i>
   <i type="int" name="NOMEGA">     0</i>
   <i type="int" name="NOMEGAR">     0</i>
   <i type="int" name="NBANDSGW">    -1</i>
   <i type="int" name="NBANDSO">    -1</i>
   <i type="int" name="NBANDSV">    -1</i>
   <i type="int" name="NELM">     1</i>
   <i type="int" name="NELMHF">     1</i>
   <i type="int" name="DIM">     3</i>
   <i type="int" name="ANTIRES">     0</i>
   <i name="OMEGAMAX">    -30.00000000</i>
   <i name="OMEGAMIN">    -30.00000000</i>
   <i name="OMEGATL">   -200.00000000</i>
   <i type="int" name="OMEGAGRID">   140</i>
   <i name="CSHIFT">     -0.10000000</i>
   <i type="logical" name="SELFENERGY"> F  </i>
   <i type="logical" name="LSPECTRAL"> F  </i>
   <i type="logical" name="LSPECTRALGW"> F  </i>
   <i type="logical" name="LSINGLES"> F  </i>
   <i type="logical" name="LFERMIGW"> F  </i>
   <i type="logical" name="ODDONLYGW"> F  </i>
   <i type="logical" name="EVENONLYGW"> F  </i>
   <i type="int" name="NKREDLFX">     1</i>
   <i type="int" name="NKREDLFY">     1</i>
   <i type="int" name="NKREDLFZ">     1</i>
   <i type="int" name="MAXMEM">  2800</i>
   <i type="int" name="TELESCOPE">     0</i>
   <i type="int" name="TAUPAR">     1</i>
   <i type="int" name="OMEGAPAR">    -1</i>
   <i name="LAMBDA">      1.00000000</i>
  </separator>
  <separator name="External order field" >
   <i name="OFIELD_KAPPA">      0.00000000</i>
   <v name="OFIELD_K">      0.00000000      0.00000000      0.00000000</v>
   <i name="OFIELD_Q6_NEAR">      0.00000000</i>
   <i name="OFIELD_Q6_FAR">      0.00000000</i>
   <i name="OFIELD_A">      0.00000000</i>
  </separator>
 </parameters>
 <atominfo>
  <atoms>      64 </atoms>
  <types>       1 </types>
  <array name="atoms" >
   <dimension dim="1">ion</dimension>
   <field type="string">element</field>
   <field type="int">atomtype</field>
   <set>
    <rc><c>C </c><c>   1</c></rc>
    <rc><c>C </c><c>   1</c></rc>
    <rc><c>C </c><c>   1</c></rc>
    <rc><c>C </c><c>   1</c></rc>
    <rc><c>C </c><c>   1</c></rc>
    <rc><c>C </c><c>   1</c></rc>
    <rc><c>C </c><c>   1</c></rc>
    <rc><c>C </c><c>   1</c></rc>
    <rc><c>C </c><c>   1</c></rc>
    <rc><c>C </c><c>   1</c></rc>
    <rc><c>C </c><c>   1</c></rc>
    <rc><c>C </c><c>   1</c></rc>
    <rc><c>C </c><c>   1</c></rc>
    <rc><c>C </c><c>   1</c></rc>
    <rc><c>C </c><c>   1</c></rc>
    <rc><c>C </c><c>   1</c></rc>
    <rc><c>C </c><c>   1</c></rc>
    <rc><c>C </c><c>   1</c></rc>
    <rc><c>C </c><c>   1</c></rc>
    <rc><c>C </c><c>   1</c></rc>
    <rc><c>C </c><c>   1</c></rc>
    <rc><c>C </c><c>   1</c></rc>
    <rc><c>C </c><c>   1</c></rc>
    <rc><c>C </c><c>   1</c></rc>
    <rc><c>C </c><c>   1</c></rc>
    <rc><c>C </c><c>   1</c></rc>
    <rc><c>C </c><c>   1</c></rc>
    <rc><c>C </c><c>   1</c></rc>
    <rc><c>C </c><c>   1</c></rc>
    <rc><c>C </c><c>   1</c></rc>
    <rc><c>C </c><c>   1</c></rc>
    <rc><c>C </c><c>   1</c></rc>
    <rc><c>C </c><c>   1</c></rc>
    <rc><c>C </c><c>   1</c></rc>
    <rc><c>C </c><c>   1</c></rc>
    <rc><c>C </c><c>   1</c></rc>
    <rc><c>C </c><c>   1</c></rc>
    <rc><c>C </c><c>   1</c></rc>
    <rc><c>C </c><c>   1</c></rc>
    <rc><c>C </c><c>   1</c></rc>
    <rc><c>C </c><c>   1</c></rc>
    <rc><c>C </c><c>   1</c></rc>
    <rc><c>C </c><c>   1</c></rc>
    <rc><c>C </c><c>   1</c></rc>
    <rc><c>C </c><c>   1</c></rc>
    <rc><c>C </c><c>   1</c></rc>
    <rc><c>C </c><c>   1</c></rc>
    <rc><c>C </c><c>   1</c></rc>
    <rc><c>C </c><c>   1</c></rc>
    <rc><c>C </c><c>   1</c></rc>
    <rc><c>C </c><c>   1</c></rc>
    <rc><c>C </c><c>   1</c></rc>
    <rc><c>C </c><c>   1</c></rc>
    <rc><c>C </c><c>   1</c></rc>
    <rc><c>C </c><c>   1</c></rc>
    <rc><c>C </c><c>   1</c></rc>
    <rc><c>C </c><c>   1</c></rc>
    <rc><c>C </c><c>   1</c></rc>
    <rc><c>C </c><c>   1</c></rc>
    <rc><c>C </c><c>   1</c></rc>
    <rc><c>C </c><c>   1</c></rc>
    <rc><c>C </c><c>   1</c></rc>
    <rc><c>C </c><c>   1</c></rc>
    <rc><c>C </c><c>   1</c></rc>
   </set>
  </array>
  <array name="atomtypes" >
   <dimension dim="1">type</dimension>
   <field type="int">atomspertype</field>
   <field type="string">element</field>
   <field>mass</field>
   <field>valence</field>
   <field type="string">pseudopotential</field>
   <set>
    <rc><c>  64</c><c>C </c><c>     12.01100000</c><c>      4.00000000</c><c> PAW_PBE C 08Apr2002                    </c></rc>
   </set>
  </array>
 </atominfo>
 <structure name="initialpos" >
  <crystal>
   <varray name="basis" >
    <v>       6.92968000       0.00000000       0.00000000 </v>
    <v>       0.00000000       6.92968000       0.00000000 </v>
    <v>       0.00000000       0.00000000       6.92968000 </v>
   </varray>
   <i name="volume">    332.76645522 </i>
   <varray name="rec_basis" >
    <v>       0.14430681       0.00000000       0.00000000 </v>
    <v>       0.00000000       0.14430681       0.00000000 </v>
    <v>       0.00000000       0.00000000       0.14430681 </v>
   </varray>
  </crystal>
  <varray name="positions" >
   <v>       0.12500000       0.37500000       0.12500000 </v>
   <v>       0.62500000       0.37500000       0.12500000 </v>
   <v>       0.12500000       0.87500000       0.12500000 </v>
   <v>       0.62500000       0.87500000       0.12500000 </v>
   <v>       0.12500000       0.37500000       0.62500000 </v>
   <v>       0.62500000       0.37500000       0.62500000 </v>
   <v>       0.12500000       0.87500000       0.62500000 </v>
   <v>       0.62500000       0.87500000       0.62500000 </v>
   <v>       0.00000000       0.00000000       0.25000000 </v>
   <v>       0.50000000       0.00000000       0.25000000 </v>
   <v>       0.00000000       0.50000000       0.25000000 </v>
   <v>       0.50000000       0.50000000       0.25000000 </v>
   <v>       0.00000000       0.00000000       0.75000000 </v>
   <v>       0.50000000       0.00000000       0.75000000 </v>
   <v>       0.00000000       0.50000000       0.75000000 </v>
   <v>       0.50000000       0.50000000       0.75000000 </v>
   <v>       0.12500000       0.12500000       0.37500000 </v>
   <v>       0.62500000       0.12500000       0.37500000 </v>
   <v>       0.12500000       0.62500000       0.37500000 </v>
   <v>       0.62500000       0.62500000       0.37500000 </v>
   <v>       0.12500000       0.12500000       0.87500000 </v>
   <v>       0.62500000       0.12500000       0.87500000 </v>
   <v>       0.12500000       0.62500000       0.87500000 </v>
   <v>       0.62500000       0.62500000       0.87500000 </v>
   <v>       0.00000000       0.25000000       0.00000000 </v>
   <v>       0.50000000       0.25000000       0.00000000 </v>
   <v>       0.00000000       0.75000000       0.00000000 </v>
   <v>       0.50000000       0.75000000       0.00000000 </v>
   <v>       0.00000000       0.25000000       0.50000000 </v>
   <v>       0.50000000       0.25000000       0.50000000 </v>
   <v>       0.00000000       0.75000000       0.50000000 </v>
   <v>       0.50000000       0.75000000       0.50000000 </v>
   <v>       0.37500000       0.37500000       0.37500000 </v>
   <v>       0.87500000       0.37500000       0.37500000 </v>
   <v>       0.37500000       0.87500000       0.37500000 </v>
   <v>       0.87500000       0.87500000       0.37500000 </v>
   <v>       0.37500000       0.37500000       0.87500000 </v>
   <v>       0.87500000       0.37500000       0.87500000 </v>
   <v>       0.37500000       0.87500000       0.87500000 </v>
   <v>       0.87500000       0.87500000       0.87500000 </v>
   <v>       0.25000000       0.00000000       0.00000000 </v>
   <v>       0.75000000       0.00000000       0.00000000 </v>
   <v>       0.25000000       0.50000000       0.00000000 </v>
   <v>       0.75000000       0.50000000       0.00000000 </v>
   <v>       0.25000000       0.00000000       0.50000000 </v>
   <v>       0.75000000       0.00000000       0.50000000 </v>
   <v>       0.25000000       0.50000000       0.50000000 </v>
   <v>       0.75000000       0.50000000       0.50000000 </v>
   <v>       0.37500000       0.12500000       0.12500000 </v>
   <v>       0.87500000       0.12500000       0.12500000 </v>
   <v>       0.37500000       0.62500000       0.12500000 </v>
   <v>       0.87500000       0.62500000       0.12500000 </v>
   <v>       0.37500000       0.12500000       0.62500000 </v>
   <v>       0.87500000       0.12500000       0.62500000 </v>
   <v>       0.37500000       0.62500000       0.62500000 </v>
   <v>       0.87500000       0.62500000       0.62500000 </v>
   <v>       0.25000000       0.25000000       0.25000000 </v>
   <v>       0.75000000       0.25000000       0.25000000 </v>
   <v>       0.25000000       0.75000000       0.25000000 </v>
   <v>       0.75000000       0.75000000       0.25000000 </v>
   <v>       0.25000000       0.25000000       0.75000000 </v>
   <v>       0.75000000       0.25000000       0.75000000 </v>
   <v>       0.25000000       0.75000000       0.75000000 </v>
   <v>       0.75000000       0.75000000       0.75000000 </v>
  </varray>
 </structure>
 <calculation>
  <scstep>
   <time name="dav">   22.24   22.26</time>
   <time name="total">   22.37   22.49</time>
   <energy>
    <i name="alphaZ">   1002.93387901 </i>
    <i name="ewald"> -11462.34881803 </i>
    <i name="hartreedc">   -504.35990506 </i>
    <i name="XCdc">    933.30279769 </i>
    <i name="pawpsdc">   2421.21235816 </i>
    <i name="pawaedc">  -2494.84305711 </i>
    <i name="eentropy">     -0.00946910 </i>
    <i name="bandstr">   1212.52784440 </i>
    <i name="atom">   9416.14232778 </i>
    <i name="e_fr_energy">    524.55795774 </i>
    <i name="e_wo_entrp">    524.56742684 </i>
    <i name="e_0_energy">    524.56269229 </i>
   </energy>
  </scstep>
  <scstep>
   <time name="dav">   28.24   28.24</time>
   <time name="total">   28.24   28.25</time>
   <energy>
    <i name="e_fr_energy">   -563.81604455 </i>
    <i name="e_wo_entrp">   -563.81604455 </i>
    <i name="e_0_energy">   -563.81604455 </i>
   </energy>
  </scstep>
  <scstep>
   <time name="dav">   28.21   28.22</time>
   <time name="total">   28.22   28.22</time>
   <energy>
    <i name="e_fr_energy">   -603.35055282 </i>
    <i name="e_wo_entrp">   -603.35055282 </i>
    <i name="e_0_energy">   -603.35055282 </i>
   </energy>
  </scstep>
  <scstep>
   <time name="dav">   28.20   28.21</time>
   <time name="total">   28.21   28.21</time>
   <energy>
    <i name="e_fr_energy">   -603.71775500 </i>
    <i name="e_wo_entrp">   -603.71775500 </i>
    <i name="e_0_energy">   -603.71775500 </i>
   </energy>
  </scstep>
  <scstep>
   <time name="dav">   26.87   26.87</time>
   <time name="total">   27.60   27.60</time>
   <energy>
    <i name="e_fr_energy">   -603.72473739 </i>
    <i name="e_wo_entrp">   -603.72473739 </i>
    <i name="e_0_energy">   -603.72473739 </i>
   </energy>
  </scstep>
  <scstep>
   <time name="dav">   25.33   25.33</time>
   <time name="total">   26.16   26.16</time>
   <energy>
    <i name="e_fr_energy">   -584.13714286 </i>
    <i name="e_wo_entrp">   -584.13714286 </i>
    <i name="e_0_energy">   -584.13714286 </i>
   </energy>
  </scstep>
  <scstep>
   <time name="dav">   26.53   26.53</time>
   <time name="total">   27.36   27.37</time>
   <energy>
    <i name="e_fr_energy">   -577.54433125 </i>
    <i name="e_wo_entrp">   -577.54433125 </i>
    <i name="e_0_energy">   -577.54433125 </i>
   </energy>
  </scstep>
  <scstep>
   <time name="dav">   25.90   25.91</time>
   <time name="total">   26.73   26.73</time>
   <energy>
    <i name="e_fr_energy">   -577.61498051 </i>
    <i name="e_wo_entrp">   -577.61498051 </i>
    <i name="e_0_energy">   -577.61498051 </i>
   </energy>
  </scstep>
  <scstep>
   <time name="dav">   27.87   27.87</time>
   <time name="total">   28.72   28.72</time>
   <energy>
    <i name="e_fr_energy">   -577.61701945 </i>
    <i name="e_wo_entrp">   -577.61701945 </i>
    <i name="e_0_energy">   -577.61701945 </i>
   </energy>
  </scstep>
  <scstep>
   <time name="dav">   25.79   25.79</time>
   <time name="total">   26.62   26.63</time>
   <energy>
    <i name="e_fr_energy">   -577.61743252 </i>
    <i name="e_wo_entrp">   -577.61743252 </i>
    <i name="e_0_energy">   -577.61743252 </i>
   </energy>
  </scstep>
  <scstep>
   <time name="dav">   28.32   28.33</time>
   <time name="total">   29.16   29.16</time>
   <energy>
    <i name="e_fr_energy">   -577.61743951 </i>
    <i name="e_wo_entrp">   -577.61743951 </i>
    <i name="e_0_energy">   -577.61743951 </i>
   </energy>
  </scstep>
  <scstep>
   <time name="dav">   27.87   27.87</time>
   <time name="total">   28.70   28.70</time>
   <energy>
    <i name="e_fr_energy">   -577.61743915 </i>
    <i name="e_wo_entrp">   -577.61743915 </i>
    <i name="e_0_energy">   -577.61743915 </i>
   </energy>
  </scstep>
  <scstep>
   <time name="dav">   23.86   23.86</time>
   <time name="total">   23.97   23.97</time>
   <energy>
    <i name="alphaZ">   1002.93387901 </i>
    <i name="ewald"> -11462.34881803 </i>
    <i name="hartreedc">   -805.59954523 </i>
    <i name="XCdc">    961.92036043 </i>
    <i name="pawpsdc">   4603.34823564 </i>
    <i name="pawaedc">  -4686.23866818 </i>
    <i name="eentropy">     -0.00000000 </i>
    <i name="bandstr">    392.22478940 </i>
    <i name="atom">   9416.14232778 </i>
    <i name="e_fr_energy">   -577.61743916 </i>
    <i name="e_wo_entrp">   -577.61743916 </i>
    <i name="e_0_energy">   -577.61743916 </i>
   </energy>
  </scstep>
  <structure>
   <crystal>
    <varray name="basis" >
     <v>       6.92968000       0.00000000       0.00000000 </v>
     <v>       0.00000000       6.92968000       0.00000000 </v>
     <v>       0.00000000       0.00000000       6.92968000 </v>
    </varray>
    <i name="volume">    332.76645522 </i>
    <varray name="rec_basis" >
     <v>       0.14430681       0.00000000       0.00000000 </v>
     <v>       0.00000000       0.14430681       0.00000000 </v>
     <v>       0.00000000       0.00000000       0.14430681 </v>
    </varray>
   </crystal>
   <varray name="positions" >
    <v>       0.12500000       0.37500000       0.12500000 </v>
    <v>       0.62500000       0.37500000       0.12500000 </v>
    <v>       0.12500000       0.87500000       0.12500000 </v>
    <v>       0.62500000       0.87500000       0.12500000 </v>
    <v>       0.12500000       0.37500000       0.62500000 </v>
    <v>       0.62500000       0.37500000       0.62500000 </v>
    <v>       0.12500000       0.87500000       0.62500000 </v>
    <v>       0.62500000       0.87500000       0.62500000 </v>
    <v>       0.00000000       0.00000000       0.25000000 </v>
    <v>       0.50000000       0.00000000       0.25000000 </v>
    <v>       0.00000000       0.50000000       0.25000000 </v>
    <v>       0.50000000       0.50000000       0.25000000 </v>
    <v>       0.00000000       0.00000000       0.75000000 </v>
    <v>       0.50000000       0.00000000       0.75000000 </v>
    <v>       0.00000000       0.50000000       0.75000000 </v>
    <v>       0.50000000       0.50000000       0.75000000 </v>
    <v>       0.12500000       0.12500000       0.37500000 </v>
    <v>       0.62500000       0.12500000       0.37500000 </v>
    <v>       0.12500000       0.62500000       0.37500000 </v>
    <v>       0.62500000       0.62500000       0.37500000 </v>
    <v>       0.12500000       0.12500000       0.87500000 </v>
    <v>       0.62500000       0.12500000       0.87500000 </v>
    <v>       0.12500000       0.62500000       0.87500000 </v>
    <v>       0.62500000       0.62500000       0.87500000 </v>
    <v>       0.00000000       0.25000000       0.00000000 </v>
    <v>       0.50000000       0.25000000       0.00000000 </v>
    <v>       0.00000000       0.75000000       0.00000000 </v>
    <v>       0.50000000       0.75000000       0.00000000 </v>
    <v>       0.00000000       0.25000000       0.50000000 </v>
    <v>       0.50000000       0.25000000       0.50000000 </v>
    <v>       0.00000000       0.75000000       0.50000000 </v>
    <v>       0.50000000       0.75000000       0.50000000 </v>
    <v>       0.37500000       0.37500000       0.37500000 </v>
    <v>       0.87500000       0.37500000       0.37500000 </v>
    <v>       0.37500000       0.87500000       0.37500000 </v>
    <v>       0.87500000       0.87500000       0.37500000 </v>
    <v>       0.37500000       0.37500000       0.87500000 </v>
    <v>       0.87500000       0.37500000       0.87500000 </v>
    <v>       0.37500000       0.87500000       0.87500000 </v>
    <v>       0.87500000       0.87500000       0.87500000 </v>
    <v>       0.25000000       0.00000000       0.00000000 </v>
    <v>       0.75000000       0.00000000       0.00000000 </v>
    <v>       0.25000000       0.50000000       0.00000000 </v>
    <v>       0.75000000       0.50000000       0.00000000 </v>
    <v>       0.25000000       0.00000000       0.50000000 </v>
    <v>       0.75000000       0.00000000       0.50000000 </v>
    <v>       0.25000000       0.50000000       0.50000000 </v>
    <v>       0.75000000       0.50000000       0.50000000 </v>
    <v>       0.37500000       0.12500000       0.12500000 </v>
    <v>       0.87500000       0.12500000       0.12500000 </v>
    <v>       0.37500000       0.62500000       0.12500000 </v>
    <v>       0.87500000       0.62500000       0.12500000 </v>
    <v>       0.37500000       0.12500000       0.62500000 </v>
    <v>       0.87500000       0.12500000       0.62500000 </v>
    <v>       0.37500000       0.62500000       0.62500000 </v>
    <v>       0.87500000       0.62500000       0.62500000 </v>
    <v>       0.25000000       0.25000000       0.25000000 </v>
    <v>       0.75000000       0.25000000       0.25000000 </v>
    <v>       0.25000000       0.75000000       0.25000000 </v>
    <v>       0.75000000       0.75000000       0.25000000 </v>
    <v>       0.25000000       0.25000000       0.75000000 </v>
    <v>       0.75000000       0.25000000       0.75000000 </v>
    <v>       0.25000000       0.75000000       0.75000000 </v>
    <v>       0.75000000       0.75000000       0.75000000 </v>
   </varray>
  </structure>
  <varray name="forces" >
   <v>       0.00000000      -0.00000000       0.00000000 </v>
   <v>       0.00000000       0.00000000       0.00000000 </v>
   <v>       0.00000000      -0.00000000       0.00000000 </v>
   <v>       0.00000000       0.00000000       0.00000000 </v>
   <v>      -0.00000000       0.00000000       0.00000000 </v>
   <v>       0.00000000       0.00000000       0.00000000 </v>
   <v>       0.00000000       0.00000000      -0.00000000 </v>
   <v>      -0.00000000       0.00000000       0.00000000 </v>
   <v>      -0.00000000      -0.00000000      -0.00000000 </v>
   <v>      -0.00000000       0.00000000      -0.00000000 </v>
   <v>      -0.00000000      -0.00000000      -0.00000000 </v>
   <v>      -0.00000000      -0.00000000      -0.00000000 </v>
   <v>      -0.00000000      -0.00000000      -0.00000000 </v>
   <v>      -0.00000000      -0.00000000      -0.00000000 </v>
   <v>       0.00000000      -0.00000000      -0.00000000 </v>
   <v>      -0.00000000      -0.00000000      -0.00000000 </v>
   <v>       0.00000000      -0.00000000       0.00000000 </v>
   <v>       0.00000000       0.00000000      -0.00000000 </v>
   <v>       0.00000000       0.00000000       0.00000000 </v>
   <v>       0.00000000       0.00000000       0.00000000 </v>
   <v>       0.00000000       0.00000000      -0.00000000 </v>
   <v>       0.00000000       0.00000000       0.00000000 </v>
   <v>       0.00000000       0.00000000       0.00000000 </v>
   <v>       0.00000000      -0.00000000       0.00000000 </v>
   <v>      -0.00000000      -0.00000000      -0.00000000 </v>
   <v>      -0.00000000      -0.00000000      -0.00000000 </v>
   <v>      -0.00000000      -0.00000000       0.00000000 </v>
   <v>      -0.00000000      -0.00000000      -0.00000000 </v>
   <v>       0.00000000      -0.00000000      -0.00000000 </v>
   <v>      -0.00000000      -0.00000000      -0.00000000 </v>
   <v>      -0.00000000       0.00000000       0.00000000 </v>
   <v>       0.00000000      -0.00000000      -0.00000000 </v>
   <v>       0.00000000       0.00000000       0.00000000 </v>
   <v>       0.00000000       0.00000000       0.00000000 </v>
   <v>       0.00000000       0.00000000       0.00000000 </v>
   <v>       0.00000000       0.00000000       0.00000000 </v>
   <v>       0.00000000      -0.00000000       0.00000000 </v>
   <v>       0.00000000       0.00000000      -0.00000000 </v>
   <v>      -0.00000000       0.00000000       0.00000000 </v>
   <v>       0.00000000       0.00000000       0.00000000 </v>
   <v>      -0.00000000      -0.00000000      -0.00000000 </v>
   <v>      -0.00000000       0.00000000      -0.00000000 </v>
   <v>      -0.00000000       0.00000000      -0.00000000 </v>
   <v>      -0.00000000      -0.00000000       0.00000000 </v>
   <v>      -0.00000000      -0.00000000      -0.00000000 </v>
   <v>       0.00000000      -0.00000000      -0.00000000 </v>
   <v>       0.00000000      -0.00000000      -0.00000000 </v>
   <v>       0.00000000      -0.00000000      -0.00000000 </v>
   <v>       0.00000000      -0.00000000       0.00000000 </v>
   <v>       0.00000000      -0.00000000      -0.00000000 </v>
   <v>       0.00000000      -0.00000000      -0.00000000 </v>
   <v>       0.00000000       0.00000000       0.00000000 </v>
   <v>       0.00000000       0.00000000      -0.00000000 </v>
   <v>      -0.00000000       0.00000000       0.00000000 </v>
   <v>       0.00000000       0.00000000       0.00000000 </v>
   <v>       0.00000000      -0.00000000      -0.00000000 </v>
   <v>      -0.00000000      -0.00000000      -0.00000000 </v>
   <v>      -0.00000000       0.00000000      -0.00000000 </v>
   <v>      -0.00000000       0.00000000      -0.00000000 </v>
   <v>      -0.00000000      -0.00000000      -0.00000000 </v>
   <v>      -0.00000000      -0.00000000      -0.00000000 </v>
   <v>       0.00000000      -0.00000000      -0.00000000 </v>
   <v>      -0.00000000      -0.00000000      -0.00000000 </v>
   <v>      -0.00000000       0.00000000      -0.00000000 </v>
  </varray>
  <varray name="stress" >
   <v>     435.26867172      -0.00000000      -0.00000000 </v>
   <v>      -0.00000000     435.26867172       0.00000000 </v>
   <v>      -0.00000000       0.00000000     435.26867172 </v>
  </varray>
  <energy>
   <i name="e_fr_energy">   -577.61743916 </i>
   <i name="e_wo_entrp">   -577.61743916 </i>
   <i name="e_0_energy">     -0.00000000 </i>
  </energy>
  <kpoints>
   <generation param="Gamma">
    <v type="int" name="divisions">       8        8        8 </v>
    <v name="usershift">      0.00000000       0.00000000       0.00000000 </v>
    <v name="genvec1">      0.12500000       0.00000000       0.00000000 </v>
    <v name="genvec2">      0.00000000       0.12500000       0.00000000 </v>
    <v name="genvec3">      0.00000000       0.00000000       0.12500000 </v>
    <v name="shift">      0.00000000       0.00000000       0.00000000 </v>
   </generation>
   <varray name="kpointlist" >
    <v>       0.00000000       0.00000000       0.00000000 </v>
    <v>       0.12500000       0.00000000       0.00000000 </v>
    <v>       0.25000000       0.00000000       0.00000000 </v>
    <v>       0.37500000       0.00000000       0.00000000 </v>
    <v>       0.50000000       0.00000000       0.00000000 </v>
    <v>       0.00000000       0.12500000       0.00000000 </v>
    <v>       0.12500000       0.12500000       0.00000000 </v>
    <v>       0.25000000       0.12500000       0.00000000 </v>
    <v>       0.37500000       0.12500000       0.00000000 </v>
    <v>       0.50000000       0.12500000       0.00000000 </v>
    <v>       0.00000000       0.25000000       0.00000000 </v>
    <v>       0.12500000       0.25000000       0.00000000 </v>
    <v>       0.25000000       0.25000000       0.00000000 </v>
    <v>       0.37500000       0.25000000       0.00000000 </v>
    <v>       0.50000000       0.25000000       0.00000000 </v>
    <v>       0.00000000       0.37500000       0.00000000 </v>
    <v>       0.12500000       0.37500000       0.00000000 </v>
    <v>       0.25000000       0.37500000       0.00000000 </v>
    <v>       0.37500000       0.37500000       0.00000000 </v>
    <v>       0.50000000       0.37500000       0.00000000 </v>
    <v>       0.00000000       0.50000000       0.00000000 </v>
    <v>       0.12500000       0.50000000       0.00000000 </v>
    <v>       0.25000000       0.50000000       0.00000000 </v>
    <v>       0.37500000       0.50000000       0.00000000 </v>
    <v>       0.50000000       0.50000000       0.00000000 </v>
    <v>       0.00000000       0.12500000       0.12500000 </v>
    <v>       0.12500000       0.12500000       0.12500000 </v>
    <v>       0.25000000       0.12500000       0.12500000 </v>
    <v>       0.37500000       0.12500000       0.12500000 </v>
    <v>       0.50000000       0.12500000       0.12500000 </v>
    <v>       0.00000000       0.25000000       0.12500000 </v>
    <v>       0.12500000       0.25000000       0.12500000 </v>
    <v>       0.25000000       0.25000000       0.12500000 </v>
    <v>       0.37500000       0.25000000       0.12500000 </v>
    <v>       0.50000000       0.25000000       0.12500000 </v>
    <v>       0.00000000       0.37500000       0.12500000 </v>
    <v>       0.12500000       0.37500000       0.12500000 </v>
    <v>       0.25000000       0.37500000       0.12500000 </v>
    <v>       0.37500000       0.37500000       0.12500000 </v>
    <v>       0.50000000       0.37500000       0.12500000 </v>
    <v>       0.00000000       0.50000000       0.12500000 </v>
    <v>       0.12500000       0.50000000       0.12500000 </v>
    <v>       0.25000000       0.50000000       0.12500000 </v>
    <v>       0.37500000       0.50000000       0.12500000 </v>
    <v>       0.50000000       0.50000000       0.12500000 </v>
    <v>       0.00000000      -0.37500000       0.12500000 </v>
    <v>       0.12500000      -0.37500000       0.12500000 </v>
    <v>       0.25000000      -0.37500000       0.12500000 </v>
    <v>       0.37500000      -0.37500000       0.12500000 </v>
    <v>       0.50000000      -0.37500000       0.12500000 </v>
    <v>       0.00000000      -0.25000000       0.12500000 </v>
    <v>       0.12500000      -0.25000000       0.12500000 </v>
    <v>       0.25000000      -0.25000000       0.12500000 </v>
    <v>       0.37500000      -0.25000000       0.12500000 </v>
    <v>       0.50000000      -0.25000000       0.12500000 </v>
    <v>       0.00000000      -0.12500000       0.12500000 </v>
    <v>       0.12500000      -0.12500000       0.12500000 </v>
    <v>       0.25000000      -0.12500000       0.12500000 </v>
    <v>       0.37500000      -0.12500000       0.12500000 </v>
    <v>       0.50000000      -0.12500000       0.12500000 </v>
    <v>       0.00000000       0.25000000       0.25000000 </v>
    <v>       0.12500000       0.25000000       0.25000000 </v>
    <v>       0.25000000       0.25000000       0.25000000 </v>
    <v>       0.37500000       0.25000000       0.25000000 </v>
    <v>       0.50000000       0.25000000       0.25000000 </v>
    <v>       0.00000000       0.37500000       0.25000000 </v>
    <v>       0.12500000       0.37500000       0.25000000 </v>
    <v>       0.25000000       0.37500000       0.25000000 </v>
    <v>       0.37500000       0.37500000       0.25000000 </v>
    <v>       0.50000000       0.37500000       0.25000000 </v>
    <v>       0.00000000       0.50000000       0.25000000 </v>
    <v>       0.12500000       0.50000000       0.25000000 </v>
    <v>       0.25000000       0.50000000       0.25000000 </v>
    <v>       0.37500000       0.50000000       0.25000000 </v>
    <v>       0.50000000       0.50000000       0.25000000 </v>
    <v>       0.00000000      -0.37500000       0.25000000 </v>
    <v>       0.12500000      -0.37500000       0.25000000 </v>
    <v>       0.25000000      -0.37500000       0.25000000 </v>
    <v>       0.37500000      -0.37500000       0.25000000 </v>
    <v>       0.50000000      -0.37500000       0.25000000 </v>
    <v>       0.00000000      -0.25000000       0.25000000 </v>
    <v>       0.12500000      -0.25000000       0.25000000 </v>
    <v>       0.25000000      -0.25000000       0.25000000 </v>
    <v>       0.37500000      -0.25000000       0.25000000 </v>
    <v>       0.50000000      -0.25000000       0.25000000 </v>
    <v>       0.00000000       0.37500000       0.37500000 </v>
    <v>       0.12500000       0.37500000       0.37500000 </v>
    <v>       0.25000000       0.37500000       0.37500000 </v>
    <v>       0.37500000       0.37500000       0.37500000 </v>
    <v>       0.50000000       0.37500000       0.37500000 </v>
    <v>       0.00000000       0.50000000       0.37500000 </v>
    <v>       0.12500000       0.50000000       0.37500000 </v>
    <v>       0.25000000       0.50000000       0.37500000 </v>
    <v>       0.37500000       0.50000000       0.37500000 </v>
    <v>       0.50000000       0.50000000       0.37500000 </v>
    <v>       0.00000000      -0.37500000       0.37500000 </v>
    <v>       0.12500000      -0.37500000       0.37500000 </v>
    <v>       0.25000000      -0.37500000       0.37500000 </v>
    <v>       0.37500000      -0.37500000       0.37500000 </v>
    <v>       0.50000000      -0.37500000       0.37500000 </v>
    <v>       0.00000000       0.50000000       0.50000000 </v>
    <v>       0.12500000       0.50000000       0.50000000 </v>
    <v>       0.25000000       0.50000000       0.50000000 </v>
    <v>       0.37500000       0.50000000       0.50000000 </v>
    <v>       0.50000000       0.50000000       0.50000000 </v>
   </varray>
   <varray name="weights" >
    <v>       0.00195312 </v>
    <v>       0.00390625 </v>
    <v>       0.00390625 </v>
    <v>       0.00390625 </v>
    <v>       0.00195312 </v>
    <v>       0.00781250 </v>
    <v>       0.01562500 </v>
    <v>       0.01562500 </v>
    <v>       0.01562500 </v>
    <v>       0.00781250 </v>
    <v>       0.00781250 </v>
    <v>       0.01562500 </v>
    <v>       0.01562500 </v>
    <v>       0.01562500 </v>
    <v>       0.00781250 </v>
    <v>       0.00781250 </v>
    <v>       0.01562500 </v>
    <v>       0.01562500 </v>
    <v>       0.01562500 </v>
    <v>       0.00781250 </v>
    <v>       0.00390625 </v>
    <v>       0.00781250 </v>
    <v>       0.00781250 </v>
    <v>       0.00781250 </v>
    <v>       0.00390625 </v>
    <v>       0.00390625 </v>
    <v>       0.00781250 </v>
    <v>       0.00781250 </v>
    <v>       0.00781250 </v>
    <v>       0.00390625 </v>
    <v>       0.00781250 </v>
    <v>       0.01562500 </v>
    <v>       0.01562500 </v>
    <v>       0.01562500 </v>
    <v>       0.00781250 </v>
    <v>       0.00781250 </v>
    <v>       0.01562500 </v>
    <v>       0.01562500 </v>
    <v>       0.01562500 </v>
    <v>       0.00781250 </v>
    <v>       0.00781250 </v>
    <v>       0.01562500 </v>
    <v>       0.01562500 </v>
    <v>       0.01562500 </v>
    <v>       0.00781250 </v>
    <v>       0.00781250 </v>
    <v>       0.01562500 </v>
    <v>       0.01562500 </v>
    <v>       0.01562500 </v>
    <v>       0.00781250 </v>
    <v>       0.00781250 </v>
    <v>       0.01562500 </v>
    <v>       0.01562500 </v>
    <v>       0.01562500 </v>
    <v>       0.00781250 </v>
    <v>       0.00390625 </v>
    <v>       0.00781250 </v>
    <v>       0.00781250 </v>
    <v>       0.00781250 </v>
    <v>       0.00390625 </v>
    <v>       0.00390625 </v>
    <v>       0.00781250 </v>
    <v>       0.00781250 </v>
    <v>       0.00781250 </v>
    <v>       0.00390625 </v>
    <v>       0.00781250 </v>
    <v>       0.01562500 </v>
    <v>       0.01562500 </v>
    <v>       0.01562500 </v>
    <v>       0.00781250 </v>
    <v>       0.00781250 </v>
    <v>       0.01562500 </v>
    <v>       0.01562500 </v>
    <v>       0.01562500 </v>
    <v>       0.00781250 </v>
    <v>       0.00781250 </v>
    <v>       0.01562500 </v>
    <v>       0.01562500 </v>
    <v>       0.01562500 </v>
    <v>       0.00781250 </v>
    <v>       0.00390625 </v>
    <v>       0.00781250 </v>
    <v>       0.00781250 </v>
    <v>       0.00781250 </v>
    <v>       0.00390625 </v>
    <v>       0.00390625 </v>
    <v>       0.00781250 </v>
    <v>       0.00781250 </v>
    <v>       0.00781250 </v>
    <v>       0.00390625 </v>
    <v>       0.00781250 </v>
    <v>       0.01562500 </v>
    <v>       0.01562500 </v>
    <v>       0.01562500 </v>
    <v>       0.00781250 </v>
    <v>       0.00390625 </v>
    <v>       0.00781250 </v>
    <v>       0.00781250 </v>
    <v>       0.00781250 </v>
    <v>       0.00390625 </v>
    <v>       0.00195312 </v>
    <v>       0.00390625 </v>
    <v>       0.00390625 </v>
    <v>       0.00390625 </v>
    <v>       0.00195312 </v>
   </varray>
  </kpoints>
  <scstep>
   <time name="total">   82.63   82.64</time>
   <energy>
    <i name="e_fr_energy">   -381.33508192 </i>
    <i name="e_wo_entrp">   -381.33508192 </i>
    <i name="e_0_energy">   -381.33508192 </i>
   </energy>
  </scstep>
  <scstep>
   <time name="total">   61.34   61.35</time>
   <energy>
    <i name="e_fr_energy">   -319.75766134 </i>
    <i name="e_wo_entrp">   -319.75766134 </i>
    <i name="e_0_energy">   -319.75766134 </i>
   </energy>
  </scstep>
  <scstep>
   <time name="total">   62.33   62.34</time>
   <energy>
    <i name="e_fr_energy">   -319.01604817 </i>
    <i name="e_wo_entrp">   -319.01604817 </i>
    <i name="e_0_energy">   -319.01604817 </i>
   </energy>
  </scstep>
  <scstep>
   <time name="total">   62.66   62.66</time>
   <energy>
    <i name="e_fr_energy">   -319.88374337 </i>
    <i name="e_wo_entrp">   -319.88374337 </i>
    <i name="e_0_energy">   -319.88374337 </i>
   </energy>
  </scstep>
  <scstep>
   <time name="total">   63.45   63.45</time>
   <energy>
    <i name="e_fr_energy">   -320.16708695 </i>
    <i name="e_wo_entrp">   -320.16708695 </i>
    <i name="e_0_energy">   -320.16708695 </i>
   </energy>
  </scstep>
  <scstep>
   <time name="total">   62.89   62.90</time>
   <energy>
    <i name="e_fr_energy">   -320.13066518 </i>
    <i name="e_wo_entrp">   -320.13066518 </i>
    <i name="e_0_energy">   -320.13066518 </i>
   </energy>
  </scstep>
  <scstep>
   <time name="total">   63.96   63.96</time>
   <energy>
    <i name="e_fr_energy">   -320.10985717 </i>
    <i name="e_wo_entrp">   -320.10985717 </i>
    <i name="e_0_energy">   -320.10985717 </i>
   </energy>
  </scstep>
  <scstep>
   <time name="total">   64.53   64.54</time>
   <energy>
    <i name="e_fr_energy">   -320.10849364 </i>
    <i name="e_wo_entrp">   -320.10849364 </i>
    <i name="e_0_energy">   -320.10849364 </i>
   </energy>
  </scstep>
  <scstep>
   <time name="total">   65.38   65.38</time>
   <energy>
    <i name="e_fr_energy">   -320.10781740 </i>
    <i name="e_wo_entrp">   -320.10781740 </i>
    <i name="e_0_energy">   -320.10781740 </i>
   </energy>
  </scstep>
  <scstep>
   <time name="total">   66.08   66.09</time>
   <energy>
    <i name="e_fr_energy">   -320.10794042 </i>
    <i name="e_wo_entrp">   -320.10794042 </i>
    <i name="e_0_energy">   -320.10794042 </i>
   </energy>
  </scstep>
  <scstep>
   <time name="total">   66.73   66.74</time>
   <energy>
    <i name="e_fr_energy">   -320.10794237 </i>
    <i name="e_wo_entrp">   -320.10794237 </i>
    <i name="e_0_energy">   -320.10794237 </i>
   </energy>
  </scstep>
  <kpoints>
   <generation param="Gamma">
    <v type="int" name="divisions">       8        8        8 </v>
    <v name="usershift">      0.00000000       0.00000000       0.00000000 </v>
    <v name="genvec1">      0.12500000       0.00000000       0.00000000 </v>
    <v name="genvec2">      0.00000000       0.12500000       0.00000000 </v>
    <v name="genvec3">      0.00000000       0.00000000       0.12500000 </v>
    <v name="shift">      0.00000000       0.00000000       0.00000000 </v>
   </generation>
   <varray name="kpointlist" >
    <v>       0.00000000       0.00000000       0.00000000 </v>
    <v>       0.12500000       0.00000000       0.00000000 </v>
    <v>       0.25000000       0.00000000       0.00000000 </v>
    <v>       0.37500000       0.00000000       0.00000000 </v>
    <v>       0.50000000       0.00000000       0.00000000 </v>
    <v>       0.12500000       0.12500000       0.00000000 </v>
    <v>       0.25000000       0.12500000       0.00000000 </v>
    <v>       0.37500000       0.12500000       0.00000000 </v>
    <v>       0.50000000       0.12500000       0.00000000 </v>
    <v>       0.25000000       0.25000000       0.00000000 </v>
    <v>       0.37500000       0.25000000       0.00000000 </v>
    <v>       0.50000000       0.25000000       0.00000000 </v>
    <v>       0.37500000       0.37500000       0.00000000 </v>
    <v>       0.50000000       0.37500000       0.00000000 </v>
    <v>       0.50000000       0.50000000       0.00000000 </v>
    <v>       0.12500000       0.12500000       0.12500000 </v>
    <v>       0.25000000       0.12500000       0.12500000 </v>
    <v>       0.37500000       0.12500000       0.12500000 </v>
    <v>       0.50000000       0.12500000       0.12500000 </v>
    <v>       0.25000000       0.25000000       0.12500000 </v>
    <v>       0.37500000       0.25000000       0.12500000 </v>
    <v>       0.50000000       0.25000000       0.12500000 </v>
    <v>       0.37500000       0.37500000       0.12500000 </v>
    <v>       0.50000000       0.37500000       0.12500000 </v>
    <v>       0.50000000       0.50000000       0.12500000 </v>
    <v>       0.25000000       0.25000000       0.25000000 </v>
    <v>       0.37500000       0.25000000       0.25000000 </v>
    <v>       0.50000000       0.25000000       0.25000000 </v>
    <v>       0.37500000       0.37500000       0.25000000 </v>
    <v>       0.50000000       0.37500000       0.25000000 </v>
    <v>       0.50000000       0.50000000       0.25000000 </v>
    <v>       0.37500000       0.37500000       0.37500000 </v>
    <v>       0.50000000       0.37500000       0.37500000 </v>
    <v>       0.50000000       0.50000000       0.37500000 </v>
    <v>       0.50000000       0.50000000       0.50000000 </v>
   </varray>
   <varray name="weights" >
    <v>       0.00195312 </v>
    <v>       0.01171875 </v>
    <v>       0.01171875 </v>
    <v>       0.01171875 </v>
    <v>       0.00585938 </v>
    <v>       0.02343750 </v>
    <v>       0.04687500 </v>
    <v>       0.04687500 </v>
    <v>       0.02343750 </v>
    <v>       0.02343750 </v>
    <v>       0.04687500 </v>
    <v>       0.02343750 </v>
    <v>       0.02343750 </v>
    <v>       0.02343750 </v>
    <v>       0.00585938 </v>
    <v>       0.01562500 </v>
    <v>       0.04687500 </v>
    <v>       0.04687500 </v>
    <v>       0.02343750 </v>
    <v>       0.04687500 </v>
    <v>       0.09375000 </v>
    <v>       0.04687500 </v>
    <v>       0.04687500 </v>
    <v>       0.04687500 </v>
    <v>       0.01171875 </v>
    <v>       0.01562500 </v>
    <v>       0.04687500 </v>
    <v>       0.02343750 </v>
    <v>       0.04687500 </v>
    <v>       0.04687500 </v>
    <v>       0.01171875 </v>
    <v>       0.01562500 </v>
    <v>       0.02343750 </v>
    <v>       0.01171875 </v>
    <v>       0.00195312 </v>
   </varray>
  </kpoints>
  <dynmat>
   <varray name="hessian" >
    <v>      -4.42232131      -0.00000000      -0.00000000       0.01610300       0.00000000       0.00000000       0.00829292       0.00000000      -0.00000000       0.01263876       0.00000000       0.00000000       0.00829292       0.00000000      -0.00000000       0.01263876      -0.00000000       0.00000000      -0.04961449      -0.00000000      -0.00000000       0.00498432      -0.00000000      -0.00000000      -0.01396984      -0.00817048       0.00396677       0.00848858      -0.01126167      -0.02060366       0.91461293      -0.32026779      -0.32026779      -0.00572910      -0.00817048      -0.00817048       0.03006700      -0.02060366      -0.02060366      -0.00284781      -0.00252275      -0.00252275      -0.01396984       0.00396677      -0.00817048       0.00848858      -0.02060366      -0.01126167      -0.12660413       0.06905202      -0.06905202      -0.00619510       0.00376916      -0.00376916      -0.12660413       0.06905202       0.06905202      -0.00619510       0.00376916       0.00376916      -0.12660413      -0.06905202      -0.06905202      -0.00619510      -0.00376916      -0.00376916      -0.12660413      -0.06905202       0.06905202      -0.00619510      -0.00376916       0.00376916       0.91461293       0.32026779       0.32026779      -0.00572910       0.00817048       0.00817048      -0.01396984       0.00817048      -0.00396677       0.00848858       0.01126167       0.02060366      -0.01396984      -0.00396677       0.00817048       0.00848858       0.02060366       0.01126167       0.03006700       0.02060366       0.02060366      -0.00284781       0.00252275       0.00252275       0.14730706      -0.06905202       0.15402969       0.14730706      -0.06905202      -0.15402969       0.00764544      -0.00376916      -0.00591588       0.00764544      -0.00376916       0.00591588       0.14730706       0.06905202      -0.15402969       0.14730706       0.06905202       0.15402969       0.00764544       0.00376916       0.00591588       0.00764544       0.00376916      -0.00591588      -0.01396984       0.00817048       0.00396677       0.00848858       0.01126167      -0.02060366       0.91461293       0.32026779      -0.32026779      -0.00572910       0.00817048      -0.00817048       0.03006700       0.02060366      -0.02060366      -0.00284781       0.00252275      -0.00252275      -0.01396984      -0.00396677      -0.00817048       0.00848858       0.02060366      -0.01126167       0.14730706      -0.15402969       0.06905202       0.14730706       0.15402969       0.06905202       0.14730706       0.15402969      -0.06905202       0.14730706      -0.15402969      -0.06905202       0.00764544       0.00591588       0.00376916       0.00764544      -0.00591588       0.00376916       0.00764544      -0.00591588      -0.00376916       0.00764544       0.00591588      -0.00376916       0.91461293      -0.32026779       0.32026779      -0.00572910      -0.00817048       0.00817048      -0.01396984      -0.00817048      -0.00396677       0.00848858      -0.01126167       0.02060366      -0.01396984       0.00396677       0.00817048       0.00848858      -0.02060366       0.01126167       0.03006700      -0.02060366       0.02060366      -0.00284781      -0.00252275       0.00252275 </v>
    <v>      -0.00000000      -4.42232131      -0.00000000       0.00000000       0.00829292      -0.00000000       0.00000000       0.01610300       0.00000000       0.00000000       0.01263876       0.00000000       0.00000000       0.00829292      -0.00000000      -0.00000000      -0.04961449      -0.00000000      -0.00000000       0.01263876       0.00000000      -0.00000000       0.00498432      -0.00000000      -0.00817048      -0.00572910       0.00817048      -0.01126167       0.00848858       0.02060366      -0.32026779       0.91461293       0.32026779      -0.00817048      -0.01396984      -0.00396677      -0.02060366       0.00848858       0.01126167      -0.00252275      -0.00284781       0.00252275       0.00396677      -0.01396984       0.00817048      -0.02060366       0.03006700       0.02060366      -0.06905202       0.14730706      -0.15402969      -0.00376916       0.00764544       0.00591588      -0.06905202       0.14730706       0.15402969      -0.00376916       0.00764544      -0.00591588       0.06905202       0.14730706       0.15402969       0.00376916       0.00764544      -0.00591588       0.06905202       0.14730706      -0.15402969       0.00376916       0.00764544       0.00591588       0.32026779       0.91461293       0.32026779       0.00817048      -0.01396984      -0.00396677       0.00817048      -0.00572910       0.00817048       0.01126167       0.00848858       0.02060366      -0.00396677      -0.01396984       0.00817048       0.02060366       0.03006700       0.02060366       0.02060366       0.00848858       0.01126167       0.00252275      -0.00284781       0.00252275       0.06905202      -0.12660413       0.06905202       0.06905202      -0.12660413      -0.06905202       0.00376916      -0.00619510       0.00376916       0.00376916      -0.00619510      -0.00376916      -0.06905202      -0.12660413       0.06905202      -0.06905202      -0.12660413      -0.06905202      -0.00376916      -0.00619510       0.00376916      -0.00376916      -0.00619510      -0.00376916       0.00817048      -0.00572910      -0.00817048       0.01126167       0.00848858      -0.02060366       0.32026779       0.91461293      -0.32026779       0.00817048      -0.01396984       0.00396677       0.02060366       0.00848858      -0.01126167       0.00252275      -0.00284781      -0.00252275      -0.00396677      -0.01396984      -0.00817048       0.02060366       0.03006700      -0.02060366      -0.15402969       0.14730706      -0.06905202       0.15402969       0.14730706       0.06905202       0.15402969       0.14730706      -0.06905202      -0.15402969       0.14730706       0.06905202       0.00591588       0.00764544      -0.00376916      -0.00591588       0.00764544       0.00376916      -0.00591588       0.00764544      -0.00376916       0.00591588       0.00764544       0.00376916      -0.32026779       0.91461293      -0.32026779      -0.00817048      -0.01396984       0.00396677      -0.00817048      -0.00572910      -0.00817048      -0.01126167       0.00848858      -0.02060366       0.00396677      -0.01396984      -0.00817048      -0.02060366       0.03006700      -0.02060366      -0.02060366       0.00848858      -0.01126167      -0.00252275      -0.00284781      -0.00252275 </v>
    <v>      -0.00000000      -0.00000000      -4.42232131       0.00000000      -0.00000000       0.00829292      -0.00000000       0.00000000       0.00829292       0.00000000       0.00000000      -0.04961449      -0.00000000      -0.00000000       0.01610300       0.00000000      -0.00000000       0.01263876      -0.00000000       0.00000000       0.01263876      -0.00000000      -0.00000000       0.00498432       0.00396677       0.00817048      -0.01396984      -0.02060366       0.02060366       0.03006700      -0.32026779       0.32026779       0.91461293      -0.00817048      -0.00396677      -0.01396984      -0.02060366       0.01126167       0.00848858      -0.00252275       0.00252275      -0.00284781      -0.00817048       0.00817048      -0.00572910      -0.01126167       0.02060366       0.00848858       0.06905202      -0.15402969       0.14730706       0.00376916       0.00591588       0.00764544      -0.06905202       0.15402969       0.14730706      -0.00376916      -0.00591588       0.00764544       0.06905202       0.15402969       0.14730706       0.00376916      -0.00591588       0.00764544      -0.06905202      -0.15402969       0.14730706      -0.00376916       0.00591588       0.00764544       0.32026779       0.32026779       0.91461293       0.00817048      -0.00396677      -0.01396984      -0.00396677       0.00817048      -0.01396984       0.02060366       0.02060366       0.03006700       0.00817048       0.00817048      -0.00572910       0.01126167       0.02060366       0.00848858       0.02060366       0.01126167       0.00848858       0.00252275       0.00252275      -0.00284781       0.15402969      -0.06905202       0.14730706      -0.15402969       0.06905202       0.14730706      -0.00591588      -0.00376916       0.00764544       0.00591588       0.00376916       0.00764544      -0.15402969      -0.06905202       0.14730706       0.15402969       0.06905202       0.14730706       0.00591588      -0.00376916       0.00764544      -0.00591588       0.00376916       0.00764544       0.00396677      -0.00817048      -0.01396984      -0.02060366      -0.02060366       0.03006700      -0.32026779      -0.32026779       0.91461293      -0.00817048       0.00396677      -0.01396984      -0.02060366      -0.01126167       0.00848858      -0.00252275      -0.00252275      -0.00284781      -0.00817048      -0.00817048      -0.00572910      -0.01126167      -0.02060366       0.00848858      -0.06905202       0.06905202      -0.12660413      -0.06905202      -0.06905202      -0.12660413       0.06905202       0.06905202      -0.12660413       0.06905202      -0.06905202      -0.12660413      -0.00376916       0.00376916      -0.00619510      -0.00376916      -0.00376916      -0.00619510       0.00376916       0.00376916      -0.00619510       0.00376916      -0.00376916      -0.00619510       0.32026779      -0.32026779       0.91461293       0.00817048       0.00396677      -0.01396984      -0.00396677      -0.00817048      -0.01396984       0.02060366      -0.02060366       0.03006700       0.00817048      -0.00817048      -0.00572910       0.01126167      -0.02060366       0.00848858       0.02060366      -0.01126167       0.00848858       0.00252275      -0.00252275      -0.00284781 </v>
    <v>       0.01610300       0.00000000       0.00000000      -4.42232131      -0.00000000      -0.00000000       0.01263876       0.00000000       0.00000000       0.00829292       0.00000000      -0.00000000       0.01263876      -0.00000000       0.00000000       0.00829292       0.00000000      -0.00000000       0.00498432      -0.00000000      -0.00000000      -0.04961449      -0.00000000      -0.00000000       0.00848858      -0.01126167      -0.02060366      -0.01396984      -0.00817048       0.00396677      -0.00572910      -0.00817048      -0.00817048       0.91461293      -0.32026779      -0.32026779      -0.00284781      -0.00252275      -0.00252275       0.03006700      -0.02060366      -0.02060366       0.00848858      -0.02060366      -0.01126167      -0.01396984       0.00396677      -0.00817048      -0.00619510       0.00376916      -0.00376916      -0.12660413       0.06905202      -0.06905202      -0.00619510       0.00376916       0.00376916      -0.12660413       0.06905202       0.06905202      -0.00619510      -0.00376916      -0.00376916      -0.12660413      -0.06905202      -0.06905202      -0.00619510      -0.00376916       0.00376916      -0.12660413      -0.06905202       0.06905202      -0.00572910       0.00817048       0.00817048       0.91461293       0.32026779       0.32026779       0.00848858       0.01126167       0.02060366      -0.01396984       0.00817048      -0.00396677       0.00848858       0.02060366       0.01126167      -0.01396984      -0.00396677       0.00817048      -0.00284781       0.00252275       0.00252275       0.03006700       0.02060366       0.02060366       0.14730706      -0.06905202      -0.15402969       0.14730706      -0.06905202       0.15402969       0.00764544      -0.00376916       0.00591588       0.00764544      -0.00376916      -0.00591588       0.14730706       0.06905202       0.15402969       0.14730706       0.06905202      -0.15402969       0.00764544       0.00376916      -0.00591588       0.00764544       0.00376916       0.00591588       0.00848858       0.01126167      -0.02060366      -0.01396984       0.00817048       0.00396677      -0.00572910       0.00817048      -0.00817048       0.91461293       0.32026779      -0.32026779      -0.00284781       0.00252275      -0.00252275       0.03006700       0.02060366      -0.02060366       0.00848858       0.02060366      -0.01126167      -0.01396984      -0.00396677      -0.00817048       0.14730706       0.15402969       0.06905202       0.14730706      -0.15402969       0.06905202       0.14730706      -0.15402969      -0.06905202       0.14730706       0.15402969      -0.06905202       0.00764544      -0.00591588       0.00376916       0.00764544       0.00591588       0.00376916       0.00764544       0.00591588      -0.00376916       0.00764544      -0.00591588      -0.00376916      -0.00572910      -0.00817048       0.00817048       0.91461293      -0.32026779       0.32026779       0.00848858      -0.01126167       0.02060366      -0.01396984      -0.00817048      -0.00396677       0.00848858      -0.02060366       0.01126167      -0.01396984       0.00396677       0.00817048      -0.00284781      -0.00252275       0.00252275       0.03006700      -0.02060366       0.02060366 </v>
    <v>       0.00000000       0.00829292      -0.00000000      -0.00000000      -4.42232131      -0.00000000       0.00000000       0.01263876       0.00000000       0.00000000       0.01610300       0.00000000      -0.00000000      -0.04961449      -0.00000000       0.00000000       0.00829292      -0.00000000      -0.00000000       0.00498432      -0.00000000      -0.00000000       0.01263876       0.00000000      -0.01126167       0.00848858       0.02060366      -0.00817048      -0.00572910       0.00817048      -0.00817048      -0.01396984      -0.00396677      -0.32026779       0.91461293       0.32026779      -0.00252275      -0.00284781       0.00252275      -0.02060366       0.00848858       0.01126167      -0.02060366       0.03006700       0.02060366       0.00396677      -0.01396984       0.00817048      -0.00376916       0.00764544       0.00591588      -0.06905202       0.14730706      -0.15402969      -0.00376916       0.00764544      -0.00591588      -0.06905202       0.14730706       0.15402969       0.00376916       0.00764544      -0.00591588       0.06905202       0.14730706       0.15402969       0.00376916       0.00764544       0.00591588       0.06905202       0.14730706      -0.15402969       0.00817048      -0.01396984      -0.00396677       0.32026779       0.91461293       0.32026779       0.01126167       0.00848858       0.02060366       0.00817048      -0.00572910       0.00817048       0.02060366       0.03006700       0.02060366      -0.00396677      -0.01396984       0.00817048       0.00252275      -0.00284781       0.00252275       0.02060366       0.00848858       0.01126167       0.06905202      -0.12660413      -0.06905202       0.06905202      -0.12660413       0.06905202       0.00376916      -0.00619510      -0.00376916       0.00376916      -0.00619510       0.00376916      -0.06905202      -0.12660413      -0.06905202      -0.06905202      -0.12660413       0.06905202      -0.00376916      -0.00619510      -0.00376916      -0.00376916      -0.00619510       0.00376916       0.01126167       0.00848858      -0.02060366       0.00817048      -0.00572910      -0.00817048       0.00817048      -0.01396984       0.00396677       0.32026779       0.91461293      -0.32026779       0.00252275      -0.00284781      -0.00252275       0.02060366       0.00848858      -0.01126167       0.02060366       0.03006700      -0.02060366      -0.00396677      -0.01396984      -0.00817048       0.15402969       0.14730706       0.06905202      -0.15402969       0.14730706      -0.06905202      -0.15402969       0.14730706       0.06905202       0.15402969       0.14730706      -0.06905202      -0.00591588       0.00764544       0.00376916       0.00591588       0.00764544      -0.00376916       0.00591588       0.00764544       0.00376916      -0.00591588       0.00764544      -0.00376916      -0.00817048      -0.01396984       0.00396677      -0.32026779       0.91461293      -0.32026779      -0.01126167       0.00848858      -0.02060366      -0.00817048      -0.00572910      -0.00817048      -0.02060366       0.03006700      -0.02060366       0.00396677      -0.01396984      -0.00817048      -0.00252275      -0.00284781      -0.00252275      -0.02060366       0.00848858      -0.01126167 </v>
    <v>       0.00000000      -0.00000000       0.00829292      -0.00000000      -0.00000000      -4.42232131       0.00000000       0.00000000      -0.04961449      -0.00000000       0.00000000       0.00829292       0.00000000      -0.00000000       0.01263876      -0.00000000      -0.00000000       0.01610300      -0.00000000      -0.00000000       0.00498432      -0.00000000       0.00000000       0.01263876      -0.02060366       0.02060366       0.03006700       0.00396677       0.00817048      -0.01396984      -0.00817048      -0.00396677      -0.01396984      -0.32026779       0.32026779       0.91461293      -0.00252275       0.00252275      -0.00284781      -0.02060366       0.01126167       0.00848858      -0.01126167       0.02060366       0.00848858      -0.00817048       0.00817048      -0.00572910       0.00376916       0.00591588       0.00764544       0.06905202      -0.15402969       0.14730706      -0.00376916      -0.00591588       0.00764544      -0.06905202       0.15402969       0.14730706       0.00376916      -0.00591588       0.00764544       0.06905202       0.15402969       0.14730706      -0.00376916       0.00591588       0.00764544      -0.06905202      -0.15402969       0.14730706       0.00817048      -0.00396677      -0.01396984       0.32026779       0.32026779       0.91461293       0.02060366       0.02060366       0.03006700      -0.00396677       0.00817048      -0.01396984       0.01126167       0.02060366       0.00848858       0.00817048       0.00817048      -0.00572910       0.00252275       0.00252275      -0.00284781       0.02060366       0.01126167       0.00848858      -0.15402969       0.06905202       0.14730706       0.15402969      -0.06905202       0.14730706       0.00591588       0.00376916       0.00764544      -0.00591588      -0.00376916       0.00764544       0.15402969       0.06905202       0.14730706      -0.15402969      -0.06905202       0.14730706      -0.00591588       0.00376916       0.00764544       0.00591588      -0.00376916       0.00764544      -0.02060366      -0.02060366       0.03006700       0.00396677      -0.00817048      -0.01396984      -0.00817048       0.00396677      -0.01396984      -0.32026779      -0.32026779       0.91461293      -0.00252275      -0.00252275      -0.00284781      -0.02060366      -0.01126167       0.00848858      -0.01126167      -0.02060366       0.00848858      -0.00817048      -0.00817048      -0.00572910      -0.06905202      -0.06905202      -0.12660413      -0.06905202       0.06905202      -0.12660413       0.06905202      -0.06905202      -0.12660413       0.06905202       0.06905202      -0.12660413      -0.00376916      -0.00376916      -0.00619510      -0.00376916       0.00376916      -0.00619510       0.00376916      -0.00376916      -0.00619510       0.00376916       0.00376916      -0.00619510       0.00817048       0.00396677      -0.01396984       0.32026779      -0.32026779       0.91461293       0.02060366      -0.02060366       0.03006700      -0.00396677      -0.00817048      -0.01396984       0.01126167      -0.02060366       0.00848858       0.00817048      -0.00817048      -0.00572910       0.00252275      -0.00252275      -0.00284781       0.02060366      -0.01126167       0.00848858 </v>
[...]
      </set>
     </set>
    </set>
   </array>
  </eigenvalues>
  <separator name="orbital magnetization" >
   <v name="MAGDIPOLOUT">      0.00000000      0.00000000      0.00000000</v>
  </separator>
  <dos>
   <i name="efermi">     11.31586510 </i>
   <total>
    <array>
     <dimension dim="1">gridpoints</dimension>
     <dimension dim="2">spin</dimension>
     <field>energy</field>
     <field>total</field>
     <field>integrated</field>
     <set>
      <set comment="spin 1">
       <r>   -13.3864     0.0000     0.0000 </r>
       <r>   -13.2572     0.0000     0.0000 </r>
       <r>   -13.1279     0.0000     0.0000 </r>
       <r>   -12.9987     0.0000     0.0000 </r>
       <r>   -12.8694     0.0000     0.0000 </r>
       <r>   -12.7402     0.0000     0.0000 </r>
       <r>   -12.6109     0.0000     0.0000 </r>
       <r>   -12.4817     0.0000     0.0000 </r>
       <r>   -12.3524     0.0000     0.0000 </r>
       <r>   -12.2232     0.0000     0.0000 </r>
       <r>   -12.0939     0.0000     0.0000 </r>
       <r>   -11.9647     0.0000     0.0000 </r>
       <r>   -11.8354     0.0000     0.0000 </r>
       <r>   -11.7062     0.0012     0.0002 </r>
       <r>   -11.5770     0.2334     0.0303 </r>
       <r>   -11.4477     1.0281     0.1632 </r>
       <r>   -11.3185     1.5306     0.3610 </r>
       <r>   -11.1892     2.1526     0.6393 </r>
       <r>   -11.0600     2.3034     0.9370 </r>
       <r>   -10.9307     2.5679     1.2689 </r>
       <r>   -10.8015     3.1443     1.6753 </r>
       <r>   -10.6722     2.4177     1.9877 </r>
       <r>   -10.5430     3.9193     2.4943 </r>
       <r>   -10.4137     3.3374     2.9256 </r>
       <r>   -10.2845     3.8204     3.4194 </r>
       <r>   -10.1552     3.8347     3.9150 </r>
       <r>   -10.0260     4.5940     4.5088 </r>
       <r>    -9.8967     4.3361     5.0692 </r>
       <r>    -9.7675     3.2117     5.4843 </r>
       <r>    -9.6383     5.4928     6.1943 </r>
       <r>    -9.5090     5.4310     6.8962 </r>
       <r>    -9.3798     4.2413     7.4444 </r>
       <r>    -9.2505     5.1297     8.1074 </r>
       <r>    -9.1213     5.3249     8.7956 </r>
       <r>    -8.9920     6.1591     9.5917 </r>
       <r>    -8.8628     4.3954    10.1597 </r>
       <r>    -8.7335     6.8739    11.0482 </r>
       <r>    -8.6043     4.5590    11.6374 </r>
       <r>    -8.4750     6.2406    12.4440 </r>
       <r>    -8.3458     6.3669    13.2669 </r>
       <r>    -8.2165     8.0414    14.3062 </r>
       <r>    -8.0873     5.2349    14.9828 </r>
       <r>    -7.9580     4.7803    15.6006 </r>
       <r>    -7.8288     8.2034    16.6609 </r>
       <r>    -7.6996     6.5703    17.5101 </r>
       <r>    -7.5703     7.5326    18.4837 </r>
       <r>    -7.4411     6.7005    19.3497 </r>
       <r>    -7.3118     7.2285    20.2839 </r>
       <r>    -7.1826     7.4814    21.2509 </r>
       <r>    -7.0533     7.0592    22.1633 </r>
       <r>    -6.9241     7.9597    23.1920 </r>
       <r>    -6.7948     7.6445    24.1800 </r>
       <r>    -6.6656     9.1638    25.3644 </r>
       <r>    -6.5363     7.6715    26.3560 </r>
       <r>    -6.4071     8.1918    27.4147 </r>
       <r>    -6.2778     5.6241    28.1416 </r>
       <r>    -6.1486    10.4378    29.4907 </r>
       <r>    -6.0193    10.5447    30.8535 </r>
       <r>    -5.8901     8.6805    31.9755 </r>
       <r>    -5.7609     8.0716    33.0187 </r>
       <r>    -5.6316    10.3486    34.3562 </r>
       <r>    -5.5024     9.0477    35.5256 </r>
       <r>    -5.3731    10.0172    36.8203 </r>
       <r>    -5.2439    12.0117    38.3728 </r>
       <r>    -5.1146    10.2924    39.7030 </r>
       <r>    -4.9854    11.4381    41.1814 </r>
       <r>    -4.8561    12.1130    42.7469 </r>
       <r>    -4.7269    10.8581    44.1503 </r>
       <r>    -4.5976     7.2887    45.0923 </r>
       <r>    -4.4684     9.1535    46.2754 </r>
       <r>    -4.3391    11.5376    47.7666 </r>
       <r>    -4.2099     8.2023    48.8267 </r>
       <r>    -4.0806    11.6042    50.3265 </r>
       <r>    -3.9514     7.6225    51.3117 </r>
       <r>    -3.8222     7.9606    52.3406 </r>
       <r>    -3.6929     9.4531    53.5624 </r>
       <r>    -3.5637     5.9861    54.3360 </r>
       <r>    -3.4344     7.2792    55.2768 </r>
       <r>    -3.3052     8.8700    56.4233 </r>
       <r>    -3.1759     8.3746    57.5057 </r>
       <r>    -3.0467     7.7193    58.5034 </r>
       <r>    -2.9174    10.1240    59.8118 </r>
       <r>    -2.7882     8.8684    60.9581 </r>
       <r>    -2.6589    11.0902    62.3914 </r>
       <r>    -2.5297     7.1107    63.3105 </r>
       <r>    -2.4004     8.3366    64.3879 </r>
       <r>    -2.2712     8.2228    65.4507 </r>
       <r>    -2.1419    11.1680    66.8941 </r>
       <r>    -2.0127    10.5651    68.2596 </r>
       <r>    -1.8835    10.4198    69.6064 </r>
       <r>    -1.7542     7.0007    70.5112 </r>
       <r>    -1.6250     9.4675    71.7348 </r>
       <r>    -1.4957     8.6593    72.8540 </r>
       <r>    -1.3665    11.1668    74.2973 </r>
       <r>    -1.2372    11.3309    75.7618 </r>
       <r>    -1.1080    16.3011    77.8686 </r>
       <r>    -0.9787    20.7546    80.5511 </r>
       <r>    -0.8495    22.7496    83.4914 </r>
       <r>    -0.7202    13.5537    85.2432 </r>
       <r>    -0.5910    10.6723    86.6225 </r>
       <r>    -0.4617    10.3297    87.9576 </r>
       <r>    -0.3325    10.3588    89.2965 </r>
       <r>    -0.2032    11.1445    90.7369 </r>
       <r>    -0.0740    16.0271    92.8083 </r>
       <r>     0.0552    14.3029    94.6569 </r>
       <r>     0.1845     8.2879    95.7281 </r>
       <r>     0.3137     5.0092    96.3755 </r>
       <r>     0.4430     8.9273    97.5293 </r>
       <r>     0.5722     9.9652    98.8173 </r>
       <r>     0.7015     6.6012    99.6705 </r>
       <r>     0.8307     9.2504   100.8661 </r>
       <r>     0.9600    13.6416   102.6292 </r>
       <r>     1.0892    11.9866   104.1784 </r>
       <r>     1.2185     9.4563   105.4006 </r>
       <r>     1.3477    11.8361   106.9304 </r>
       <r>     1.4770    17.9219   109.2468 </r>
       <r>     1.6062    13.7108   111.0188 </r>
       <r>     1.7355     9.6222   112.2625 </r>
       <r>     1.8647    13.7887   114.0446 </r>
       <r>     1.9939    21.4519   116.8172 </r>
       <r>     2.1232    19.1427   119.2913 </r>
       <r>     2.2524    12.8196   120.9482 </r>
       <r>     2.3817    11.0958   122.3823 </r>
       <r>     2.5109    15.4252   124.3760 </r>
       <r>     2.6402    15.8108   126.4195 </r>
       <r>     2.7694    16.0686   128.4963 </r>
       <r>     2.8987    15.4219   130.4895 </r>
       <r>     3.0279    16.7988   132.6607 </r>
       <r>     3.1572    22.8843   135.6184 </r>
       <r>     3.2864    11.4049   137.0925 </r>
       <r>     3.4157    10.7349   138.4799 </r>
       <r>     3.5449    24.7973   141.6849 </r>
       <r>     3.6742    18.5002   144.0760 </r>
       <r>     3.8034    17.8393   146.3816 </r>
       <r>     3.9326    18.7351   148.8031 </r>
       <r>     4.0619    19.5687   151.3323 </r>
       <r>     4.1911    22.2601   154.2093 </r>
       <r>     4.3204    23.5060   157.2474 </r>
       <r>     4.4496    23.9948   160.3486 </r>
       <r>     4.5789    25.2294   163.6095 </r>
       <r>     4.7081    19.2363   166.0957 </r>
       <r>     4.8374    22.9912   169.0672 </r>
       <r>     4.9666    25.7222   172.3917 </r>
       <r>     5.0959    26.7990   175.8554 </r>
       <r>     5.2251    18.0384   178.1868 </r>
       <r>     5.3544    18.3465   180.5580 </r>
       <r>     5.4836    22.5346   183.4706 </r>
       <r>     5.6129    26.6760   186.9183 </r>
       <r>     5.7421    24.1175   190.0354 </r>
       <r>     5.8713    16.3951   192.1545 </r>
       <r>     6.0006    20.3749   194.7878 </r>
       <r>     6.1298    21.9253   197.6216 </r>
       <r>     6.2591    22.2164   200.4930 </r>
       <r>     6.3883    22.1374   203.3542 </r>
       <r>     6.5176    17.9451   205.6735 </r>
       <r>     6.6468    18.4849   208.0627 </r>
       <r>     6.7761    22.0685   210.9149 </r>
       <r>     6.9053    23.3255   213.9297 </r>
       <r>     7.0346    17.2535   216.1596 </r>
       <r>     7.1638    17.2903   218.3943 </r>
       <r>     7.2931    18.0195   220.7233 </r>
       <r>     7.4223    21.4731   223.4986 </r>
       <r>     7.5516    23.5092   226.5371 </r>
       <r>     7.6808    15.0554   228.4830 </r>
       <r>     7.8100    17.6029   230.7581 </r>
       <r>     7.9393    16.5050   232.8913 </r>
       <r>     8.0685    20.9412   235.5979 </r>
       <r>     8.1978    18.6056   238.0026 </r>
       <r>     8.3270     7.6636   238.9931 </r>
       <r>     8.4563    13.1140   240.6880 </r>
       <r>     8.5855    13.7321   242.4629 </r>
       <r>     8.7148    10.6448   243.8387 </r>
       <r>     8.8440     9.0822   245.0125 </r>
       <r>     8.9733     7.4704   245.9781 </r>
       <r>     9.1025    10.1642   247.2917 </r>
       <r>     9.2318     8.5597   248.3981 </r>
       <r>     9.3610     6.8119   249.2785 </r>
       <r>     9.4903     6.2158   250.0818 </r>
       <r>     9.6195     5.1665   250.7496 </r>
       <r>     9.7487     7.7509   251.7514 </r>
       <r>     9.8780     5.3937   252.4485 </r>
       <r>    10.0072     4.4247   253.0204 </r>
       <r>    10.1365     3.4099   253.4611 </r>
       <r>    10.2657     4.8731   254.0909 </r>
       <r>    10.3950     3.9479   254.6012 </r>
       <r>    10.5242     2.8686   254.9719 </r>
       <r>    10.6535     2.7699   255.3299 </r>
       <r>    10.7827     2.0559   255.5956 </r>
       <r>    10.9120     2.1359   255.8717 </r>
       <r>    11.0412     0.7902   255.9738 </r>
       <r>    11.1705     0.2016   255.9999 </r>
       <r>    11.2997     0.0009   256.0000 </r>
       <r>    11.4290     0.0000   256.0000 </r>
       <r>    11.5582     0.0000   256.0000 </r>
       <r>    11.6874     0.0000   256.0000 </r>
       <r>    11.8167     0.0000   256.0000 </r>
       <r>    11.9459     0.0000   256.0000 </r>
       <r>    12.0752     0.0000   256.0000 </r>
       <r>    12.2044     0.0000   256.0000 </r>
       <r>    12.3337     0.0000   256.0000 </r>
       <r>    12.4629     0.0000   256.0000 </r>
       <r>    12.5922     0.0000   256.0000 </r>
       <r>    12.7214     0.0000   256.0000 </r>
       <r>    12.8507     0.0000   256.0000 </r>
       <r>    12.9799     0.0000   256.0000 </r>
       <r>    13.1092     0.0000   256.0000 </r>
       <r>    13.2384     0.0000   256.0000 </r>
       <r>    13.3677     0.0000   256.0000 </r>
       <r>    13.4969     0.0000   256.0000 </r>
       <r>    13.6261     0.0000   256.0000 </r>
       <r>    13.7554     0.0000   256.0000 </r>
       <r>    13.8846     0.0000   256.0000 </r>
       <r>    14.0139     0.0000   256.0000 </r>
       <r>    14.1431     0.0000   256.0000 </r>
       <r>    14.2724     0.0000   256.0000 </r>
       <r>    14.4016     0.0000   256.0000 </r>
       <r>    14.5309     0.0000   256.0000 </r>
       <r>    14.6601     0.0000   256.0000 </r>
       <r>    14.7894     0.0000   256.0000 </r>
       <r>    14.9186     0.0000   256.0000 </r>
       <r>    15.0479     0.0000   256.0000 </r>
       <r>    15.1771     0.0000   256.0000 </r>
       <r>    15.3064     0.0075   256.0010 </r>
       <r>    15.4356     0.4309   256.0567 </r>
       <r>    15.5649     1.3964   256.2371 </r>
       <r>    15.6941     3.2277   256.6543 </r>
       <r>    15.8233     3.9163   257.1605 </r>
       <r>    15.9526     2.9106   257.5367 </r>
       <r>    16.0818     4.9250   258.1732 </r>
       <r>    16.2111     9.6402   259.4192 </r>
       <r>    16.3403     8.5866   260.5290 </r>
       <r>    16.4696     4.8850   261.1603 </r>
       <r>    16.5988     8.6793   262.2821 </r>
       <r>    16.7281    10.1094   263.5887 </r>
       <r>    16.8573    14.8057   265.5023 </r>
       <r>    16.9866    12.8785   267.1668 </r>
       <r>    17.1158    12.5014   268.7825 </r>
       <r>    17.2451    12.8390   270.4419 </r>
       <r>    17.3743    12.2887   272.0302 </r>
       <r>    17.5036    13.6184   273.7903 </r>
       <r>    17.6328    17.3767   276.0362 </r>
       <r>    17.7620    18.3324   278.4056 </r>
       <r>    17.8913    14.9009   280.3315 </r>
       <r>    18.0205    16.4009   282.4513 </r>
       <r>    18.1498    18.1527   284.7975 </r>
       <r>    18.2790    17.0774   287.0047 </r>
       <r>    18.4083    16.2967   289.1110 </r>
       <r>    18.5375    20.4566   291.7549 </r>
       <r>    18.6668    22.0561   294.6056 </r>
       <r>    18.7960    17.8315   296.9103 </r>
       <r>    18.9253    25.5928   300.2180 </r>
       <r>    19.0545    20.2887   302.8403 </r>
       <r>    19.1838    23.8627   305.9245 </r>
       <r>    19.3130    21.1333   308.6559 </r>
       <r>    19.4423    33.2886   312.9583 </r>
       <r>    19.5715    28.6878   316.6661 </r>
       <r>    19.7007    30.4973   320.6078 </r>
       <r>    19.8300    25.6985   323.9292 </r>
       <r>    19.9592    30.0519   327.8133 </r>
       <r>    20.0885    24.1090   330.9293 </r>
       <r>    20.2177    22.2061   333.7994 </r>
       <r>    20.3470    36.8568   338.5630 </r>
       <r>    20.4762    24.9964   341.7937 </r>
       <r>    20.6055    16.8754   343.9748 </r>
       <r>    20.7347    27.1287   347.4811 </r>
       <r>    20.8640    21.4400   350.2522 </r>
       <r>    20.9932    24.3012   353.3930 </r>
       <r>    21.1225    24.7471   356.5915 </r>
       <r>    21.2517    30.3316   360.5118 </r>
       <r>    21.3810    33.1081   364.7909 </r>
       <r>    21.5102    25.7424   368.1180 </r>
       <r>    21.6394    23.2106   371.1179 </r>
       <r>    21.7687    27.5171   374.6744 </r>
       <r>    21.8979    16.6309   376.8239 </r>
       <r>    22.0272    10.8754   378.2295 </r>
       <r>    22.1564    14.9495   380.1617 </r>
       <r>    22.2857     9.2785   381.3609 </r>
       <r>    22.4149     7.3197   382.3069 </r>
       <r>    22.5442     3.2122   382.7221 </r>
       <r>    22.6734     2.4299   383.0362 </r>
       <r>    22.8027     1.3963   383.2166 </r>
       <r>    22.9319     3.1420   383.6227 </r>
       <r>    23.0612     0.9916   383.7509 </r>
       <r>    23.1904     0.8772   383.8642 </r>
       <r>    23.3197     0.3248   383.9062 </r>
       <r>    23.4489     0.0072   383.9072 </r>
       <r>    23.5781     0.4475   383.9650 </r>
       <r>    23.7074     0.2661   383.9994 </r>
       <r>    23.8366     0.0048   384.0000 </r>
       <r>    23.9659     0.0000   384.0000 </r>
       <r>    24.0951     0.0000   384.0000 </r>
       <r>    24.2244     0.0000   384.0000 </r>
       <r>    24.3536     0.0000   384.0000 </r>
       <r>    24.4829     0.0000   384.0000 </r>
       <r>    24.6121     0.0000   384.0000 </r>
       <r>    24.7414     0.0000   384.0000 </r>
       <r>    24.8706     0.0000   384.0000 </r>
       <r>    24.9999     0.0000   384.0000 </r>
       <r>    25.1291     0.0000   384.0000 </r>
       <r>    25.2584     0.0000   384.0000 </r>
       <r>    25.3876     0.0000   384.0000 </r>
      </set>
     </set>
    </array>
   </total>
  </dos>
 </calculation>
 <structure name="finalpos" >
  <crystal>
   <varray name="basis" >
    <v>       6.92968000       0.00000000       0.00000000 </v>
    <v>       0.00000000       6.92968000       0.00000000 </v>
    <v>       0.00000000       0.00000000       6.92968000 </v>
   </varray>
   <i name="volume">    332.76645522 </i>
   <varray name="rec_basis" >
    <v>       0.14430681       0.00000000       0.00000000 </v>
    <v>       0.00000000       0.14430681       0.00000000 </v>
    <v>       0.00000000       0.00000000       0.14430681 </v>
   </varray>
  </crystal>
  <varray name="positions" >
   <v>       0.12500000       0.37500000       0.12500000 </v>
   <v>       0.62500000       0.37500000       0.12500000 </v>
   <v>       0.12500000       0.87500000       0.12500000 </v>
   <v>       0.62500000       0.87500000       0.12500000 </v>
   <v>       0.12500000       0.37500000       0.62500000 </v>
   <v>       0.62500000       0.37500000       0.62500000 </v>
   <v>       0.12500000       0.87500000       0.62500000 </v>
   <v>       0.62500000       0.87500000       0.62500000 </v>
   <v>       0.00000000       0.00000000       0.25000000 </v>
   <v>       0.50000000       0.00000000       0.25000000 </v>
   <v>       0.00000000       0.50000000       0.25000000 </v>
   <v>       0.50000000       0.50000000       0.25000000 </v>
   <v>       0.00000000       0.00000000       0.75000000 </v>
   <v>       0.50000000       0.00000000       0.75000000 </v>
   <v>       0.00000000       0.50000000       0.75000000 </v>
   <v>       0.50000000       0.50000000       0.75000000 </v>
   <v>       0.12500000       0.12500000       0.37500000 </v>
   <v>       0.62500000       0.12500000       0.37500000 </v>
   <v>       0.12500000       0.62500000       0.37500000 </v>
   <v>       0.62500000       0.62500000       0.37500000 </v>
   <v>       0.12500000       0.12500000       0.87500000 </v>
   <v>       0.62500000       0.12500000       0.87500000 </v>
   <v>       0.12500000       0.62500000       0.87500000 </v>
   <v>       0.62500000       0.62500000       0.87500000 </v>
   <v>       0.00000000       0.25000000       0.00000000 </v>
   <v>       0.50000000       0.25000000       0.00000000 </v>
   <v>       0.00000000       0.75000000       0.00000000 </v>
   <v>       0.50000000       0.75000000       0.00000000 </v>
   <v>       0.00000000       0.25000000       0.50000000 </v>
   <v>       0.50000000       0.25000000       0.50000000 </v>
   <v>       0.00000000       0.75000000       0.50000000 </v>
   <v>       0.50000000       0.75000000       0.50000000 </v>
   <v>       0.37500000       0.37500000       0.37500000 </v>
   <v>       0.87500000       0.37500000       0.37500000 </v>
   <v>       0.37500000       0.87500000       0.37500000 </v>
   <v>       0.87500000       0.87500000       0.37500000 </v>
   <v>       0.37500000       0.37500000       0.87500000 </v>
   <v>       0.87500000       0.37500000       0.87500000 </v>
   <v>       0.37500000       0.87500000       0.87500000 </v>
   <v>       0.87500000       0.87500000       0.87500000 </v>
   <v>       0.25000000       0.00000000       0.00000000 </v>
   <v>       0.75000000       0.00000000       0.00000000 </v>
   <v>       0.25000000       0.50000000       0.00000000 </v>
   <v>       0.75000000       0.50000000       0.00000000 </v>
   <v>       0.25000000       0.00000000       0.50000000 </v>
   <v>       0.75000000       0.00000000       0.50000000 </v>
   <v>       0.25000000       0.50000000       0.50000000 </v>
   <v>       0.75000000       0.50000000       0.50000000 </v>
   <v>       0.37500000       0.12500000       0.12500000 </v>
   <v>       0.87500000       0.12500000       0.12500000 </v>
   <v>       0.37500000       0.62500000       0.12500000 </v>
   <v>       0.87500000       0.62500000       0.12500000 </v>
   <v>       0.37500000       0.12500000       0.62500000 </v>
   <v>       0.87500000       0.12500000       0.62500000 </v>
   <v>       0.37500000       0.62500000       0.62500000 </v>
   <v>       0.87500000       0.62500000       0.62500000 </v>
   <v>       0.25000000       0.25000000       0.25000000 </v>
   <v>       0.75000000       0.25000000       0.25000000 </v>
   <v>       0.25000000       0.75000000       0.25000000 </v>
   <v>       0.75000000       0.75000000       0.25000000 </v>
   <v>       0.25000000       0.25000000       0.75000000 </v>
   <v>       0.75000000       0.25000000       0.75000000 </v>
   <v>       0.25000000       0.75000000       0.75000000 </v>
   <v>       0.75000000       0.75000000       0.75000000 </v>
  </varray>
 </structure>
</modeling>
