   8   8   0   0
  0.5691819E+01  0.3573710E-09  0.3573710E-09  0.3573710E-09  0.2000000E-16
  1.000000000000000E-004
  CAR 
 unknown system                          
     23.50271473    -13.42032311  301      9.84888303      1.00000000
    -13.420  0.0000E+00  0.0000E+00
    -13.297  0.0000E+00  0.0000E+00
    -13.174  0.0000E+00  0.0000E+00
    -13.051  0.0000E+00  0.0000E+00
    -12.928  0.0000E+00  0.0000E+00
    -12.805  0.0000E+00  0.0000E+00
    -12.682  0.0000E+00  0.0000E+00
    -12.559  0.0000E+00  0.0000E+00
    -12.436  0.0000E+00  0.0000E+00
    -12.313  0.0000E+00  0.0000E+00
    -12.190  0.0000E+00  0.0000E+00
    -12.066  0.0000E+00  0.0000E+00
    -11.943  0.0000E+00  0.0000E+00
    -11.820  0.0000E+00  0.0000E+00
    -11.697  0.3784E-01  0.5644E-03
    -11.574  0.1570E+00  0.1540E-01
    -11.451  0.2418E+00  0.4006E-01
    -11.328  0.2754E+00  0.7157E-01
    -11.205  0.3240E+00  0.1084E+00
    -11.082  0.3619E+00  0.1511E+00
    -10.959  0.3921E+00  0.1975E+00
    -10.836  0.4248E+00  0.2477E+00
    -10.713  0.4627E+00  0.3023E+00
    -10.590  0.4852E+00  0.3607E+00
    -10.466  0.5094E+00  0.4219E+00
    -10.343  0.5359E+00  0.4861E+00
    -10.220  0.5643E+00  0.5538E+00
    -10.097  0.5902E+00  0.6250E+00
     -9.974  0.6107E+00  0.6989E+00
     -9.851  0.6345E+00  0.7755E+00
     -9.728  0.6633E+00  0.8553E+00
     -9.605  0.6965E+00  0.9389E+00
     -9.482  0.7340E+00  0.1027E+01
     -9.359  0.7290E+00  0.1117E+01
     -9.236  0.7364E+00  0.1207E+01
     -9.113  0.7526E+00  0.1299E+01
     -8.990  0.7705E+00  0.1392E+01
     -8.866  0.7959E+00  0.1488E+01
     -8.743  0.8183E+00  0.1588E+01
     -8.620  0.8333E+00  0.1690E+01
     -8.497  0.8565E+00  0.1793E+01
     -8.374  0.8840E+00  0.1901E+01
     -8.251  0.9091E+00  0.2011E+01
     -8.128  0.9322E+00  0.2124E+01
     -8.005  0.9393E+00  0.2239E+01
     -7.882  0.9606E+00  0.2356E+01
     -7.759  0.1050E+01  0.2479E+01
     -7.636  0.1139E+01  0.2616E+01
     -7.513  0.1117E+01  0.2756E+01
     -7.390  0.1033E+01  0.2889E+01
     -7.266  0.1048E+01  0.3015E+01
     -7.143  0.1026E+01  0.3143E+01
     -7.020  0.1038E+01  0.3269E+01
     -6.897  0.1164E+01  0.3404E+01
     -6.774  0.1146E+01  0.3549E+01
     -6.651  0.1177E+01  0.3690E+01
     -6.528  0.1309E+01  0.3844E+01
     -6.405  0.1326E+01  0.4007E+01
     -6.282  0.1259E+01  0.4167E+01
     -6.159  0.1310E+01  0.4323E+01
     -6.036  0.1393E+01  0.4492E+01
     -5.913  0.1390E+01  0.4664E+01
     -5.790  0.1420E+01  0.4836E+01
     -5.666  0.1447E+01  0.5014E+01
     -5.543  0.1496E+01  0.5194E+01
     -5.420  0.1389E+01  0.5371E+01
     -5.297  0.1468E+01  0.5549E+01
     -5.174  0.1406E+01  0.5724E+01
     -5.051  0.1294E+01  0.5890E+01
     -4.928  0.1227E+01  0.6044E+01
     -4.805  0.1199E+01  0.6193E+01
     -4.682  0.1169E+01  0.6339E+01
     -4.559  0.1155E+01  0.6481E+01
     -4.436  0.1124E+01  0.6622E+01
     -4.313  0.1181E+01  0.6766E+01
     -4.190  0.1092E+01  0.6907E+01
     -4.066  0.1013E+01  0.7036E+01
     -3.943  0.9627E+00  0.7157E+01
     -3.820  0.9229E+00  0.7273E+01
     -3.697  0.9040E+00  0.7385E+01
     -3.574  0.9450E+00  0.7498E+01
     -3.451  0.1052E+01  0.7620E+01
     -3.328  0.9851E+00  0.7748E+01
     -3.205  0.1086E+01  0.7877E+01
     -3.082  0.9606E+00  0.8002E+01
     -2.959  0.8786E+00  0.8115E+01
     -2.836  0.8901E+00  0.8224E+01
     -2.713  0.9798E+00  0.8343E+01
     -2.590  0.8549E+00  0.8452E+01
     -2.466  0.9857E+00  0.8564E+01
     -2.343  0.1161E+01  0.8697E+01
     -2.220  0.1382E+01  0.8854E+01
     -2.097  0.1747E+01  0.9045E+01
     -1.974  0.2075E+01  0.9283E+01
     -1.851  0.2613E+01  0.9574E+01
     -1.728  0.2241E+01  0.9883E+01
     -1.605  0.2106E+01  0.1015E+02
     -1.482  0.2021E+01  0.1040E+02
     -1.359  0.1986E+01  0.1065E+02
     -1.236  0.1780E+01  0.1088E+02
     -1.113  0.1861E+01  0.1110E+02
     -0.990  0.1595E+01  0.1131E+02
     -0.866  0.1481E+01  0.1150E+02
     -0.743  0.1408E+01  0.1168E+02
     -0.620  0.1353E+01  0.1185E+02
     -0.497  0.1331E+01  0.1201E+02
     -0.374  0.1298E+01  0.1217E+02
     -0.251  0.1211E+01  0.1233E+02
     -0.128  0.1240E+01  0.1248E+02
     -0.005  0.1110E+01  0.1262E+02
      0.118  0.1112E+01  0.1276E+02
      0.241  0.1110E+01  0.1290E+02
      0.364  0.1002E+01  0.1303E+02
      0.487  0.1010E+01  0.1315E+02
      0.610  0.1358E+01  0.1329E+02
      0.734  0.1915E+01  0.1349E+02
      0.857  0.2083E+01  0.1374E+02
      0.980  0.2155E+01  0.1400E+02
      1.103  0.2192E+01  0.1427E+02
      1.226  0.2178E+01  0.1454E+02
      1.349  0.2172E+01  0.1481E+02
      1.472  0.2213E+01  0.1508E+02
      1.595  0.1956E+01  0.1535E+02
      1.718  0.1439E+01  0.1555E+02
      1.841  0.1365E+01  0.1572E+02
      1.964  0.1708E+01  0.1591E+02
      2.087  0.2115E+01  0.1614E+02
      2.210  0.2529E+01  0.1643E+02
      2.334  0.2421E+01  0.1675E+02
      2.457  0.2283E+01  0.1703E+02
      2.580  0.2213E+01  0.1731E+02
      2.703  0.2253E+01  0.1758E+02
      2.826  0.2660E+01  0.1788E+02
      2.949  0.2527E+01  0.1820E+02
      3.072  0.2666E+01  0.1852E+02
      3.195  0.2958E+01  0.1887E+02
      3.318  0.2650E+01  0.1923E+02
      3.441  0.2780E+01  0.1956E+02
      3.564  0.2597E+01  0.1990E+02
      3.687  0.2971E+01  0.2023E+02
      3.810  0.3055E+01  0.2059E+02
      3.934  0.3467E+01  0.2101E+02
      4.057  0.3269E+01  0.2142E+02
      4.180  0.3087E+01  0.2180E+02
      4.303  0.3066E+01  0.2218E+02
      4.426  0.3074E+01  0.2256E+02
      4.549  0.2920E+01  0.2293E+02
      4.672  0.3152E+01  0.2329E+02
      4.795  0.2666E+01  0.2363E+02
      4.918  0.2710E+01  0.2396E+02
      5.041  0.3021E+01  0.2431E+02
      5.164  0.3036E+01  0.2469E+02
      5.287  0.3061E+01  0.2506E+02
      5.410  0.2800E+01  0.2542E+02
      5.534  0.2749E+01  0.2577E+02
      5.657  0.2494E+01  0.2609E+02
      5.780  0.2522E+01  0.2639E+02
      5.903  0.2514E+01  0.2671E+02
      6.026  0.2638E+01  0.2702E+02
      6.149  0.2938E+01  0.2737E+02
      6.272  0.2801E+01  0.2772E+02
      6.395  0.2630E+01  0.2806E+02
      6.518  0.2700E+01  0.2838E+02
      6.641  0.2436E+01  0.2870E+02
      6.764  0.2637E+01  0.2901E+02
      6.887  0.2097E+01  0.2932E+02
      7.010  0.1660E+01  0.2953E+02
      7.134  0.1902E+01  0.2975E+02
      7.257  0.1975E+01  0.2999E+02
      7.380  0.1717E+01  0.3022E+02
      7.503  0.1491E+01  0.3042E+02
      7.626  0.1379E+01  0.3060E+02
      7.749  0.1278E+01  0.3076E+02
      7.872  0.1136E+01  0.3091E+02
      7.995  0.1030E+01  0.3104E+02
      8.118  0.9582E+00  0.3117E+02
      8.241  0.8953E+00  0.3128E+02
      8.364  0.8587E+00  0.3139E+02
      8.487  0.7661E+00  0.3149E+02
      8.610  0.6766E+00  0.3158E+02
      8.733  0.6067E+00  0.3166E+02
      8.857  0.5891E+00  0.3173E+02
      8.980  0.4971E+00  0.3180E+02
      9.103  0.3925E+00  0.3185E+02
      9.226  0.3778E+00  0.3190E+02
      9.349  0.2848E+00  0.3194E+02
      9.472  0.1866E+00  0.3197E+02
      9.595  0.1592E+00  0.3199E+02
      9.718  0.8956E-02  0.3200E+02
      9.841  0.0000E+00  0.3200E+02
      9.964  0.0000E+00  0.3200E+02
     10.087  0.0000E+00  0.3200E+02
     10.210  0.0000E+00  0.3200E+02
     10.333  0.0000E+00  0.3200E+02
     10.457  0.0000E+00  0.3200E+02
     10.580  0.0000E+00  0.3200E+02
     10.703  0.0000E+00  0.3200E+02
     10.826  0.0000E+00  0.3200E+02
     10.949  0.0000E+00  0.3200E+02
     11.072  0.0000E+00  0.3200E+02
     11.195  0.0000E+00  0.3200E+02
     11.318  0.0000E+00  0.3200E+02
     11.441  0.0000E+00  0.3200E+02
     11.564  0.0000E+00  0.3200E+02
     11.687  0.0000E+00  0.3200E+02
     11.810  0.0000E+00  0.3200E+02
     11.933  0.0000E+00  0.3200E+02
     12.057  0.0000E+00  0.3200E+02
     12.180  0.0000E+00  0.3200E+02
     12.303  0.0000E+00  0.3200E+02
     12.426  0.0000E+00  0.3200E+02
     12.549  0.0000E+00  0.3200E+02
     12.672  0.0000E+00  0.3200E+02
     12.795  0.0000E+00  0.3200E+02
     12.918  0.0000E+00  0.3200E+02
     13.041  0.0000E+00  0.3200E+02
     13.164  0.0000E+00  0.3200E+02
     13.287  0.0000E+00  0.3200E+02
     13.410  0.0000E+00  0.3200E+02
     13.533  0.0000E+00  0.3200E+02
     13.657  0.0000E+00  0.3200E+02
     13.780  0.1938E+00  0.3201E+02
     13.903  0.4900E+00  0.3205E+02
     14.026  0.5662E+00  0.3212E+02
     14.149  0.6563E+00  0.3220E+02
     14.272  0.8246E+00  0.3228E+02
     14.395  0.8295E+00  0.3239E+02
     14.518  0.1005E+01  0.3250E+02
     14.641  0.1250E+01  0.3264E+02
     14.764  0.1305E+01  0.3279E+02
     14.887  0.1313E+01  0.3295E+02
     15.010  0.1368E+01  0.3312E+02
     15.133  0.1338E+01  0.3329E+02
     15.257  0.1332E+01  0.3345E+02
     15.380  0.1511E+01  0.3362E+02
     15.503  0.1653E+01  0.3382E+02
     15.626  0.1782E+01  0.3403E+02
     15.749  0.1790E+01  0.3425E+02
     15.872  0.1898E+01  0.3448E+02
     15.995  0.2004E+01  0.3472E+02
     16.118  0.2002E+01  0.3496E+02
     16.241  0.2130E+01  0.3522E+02
     16.364  0.2387E+01  0.3549E+02
     16.487  0.2574E+01  0.3580E+02
     16.610  0.2652E+01  0.3613E+02
     16.733  0.2728E+01  0.3645E+02
     16.857  0.2985E+01  0.3680E+02
     16.980  0.3689E+01  0.3722E+02
     17.103  0.3831E+01  0.3768E+02
     17.226  0.3522E+01  0.3813E+02
     17.349  0.2734E+01  0.3853E+02
     17.472  0.2426E+01  0.3884E+02
     17.595  0.2534E+01  0.3915E+02
     17.718  0.2553E+01  0.3947E+02
     17.841  0.2715E+01  0.3979E+02
     17.964  0.2786E+01  0.4014E+02
     18.087  0.2617E+01  0.4047E+02
     18.210  0.2932E+01  0.4082E+02
     18.333  0.3434E+01  0.4120E+02
     18.457  0.4238E+01  0.4169E+02
     18.580  0.4259E+01  0.4223E+02
     18.703  0.4372E+01  0.4275E+02
     18.826  0.3694E+01  0.4326E+02
     18.949  0.3382E+01  0.4369E+02
     19.072  0.3461E+01  0.4410E+02
     19.195  0.3434E+01  0.4453E+02
     19.318  0.3070E+01  0.4493E+02
     19.441  0.2819E+01  0.4529E+02
     19.564  0.2583E+01  0.4562E+02
     19.687  0.2507E+01  0.4594E+02
     19.810  0.2643E+01  0.4625E+02
     19.933  0.2929E+01  0.4660E+02
     20.057  0.2571E+01  0.4695E+02
     20.180  0.2111E+01  0.4723E+02
     20.303  0.1663E+01  0.4746E+02
     20.426  0.1467E+01  0.4765E+02
     20.549  0.8170E+00  0.4778E+02
     20.672  0.3927E+00  0.4785E+02
     20.795  0.2859E+00  0.4789E+02
     20.918  0.2305E+00  0.4792E+02
     21.041  0.1682E+00  0.4795E+02
     21.164  0.1196E+00  0.4797E+02
     21.287  0.8734E-01  0.4798E+02
     21.410  0.6159E-01  0.4799E+02
     21.533  0.4418E-01  0.4800E+02
     21.657  0.1788E-01  0.4800E+02
     21.780  0.1272E-02  0.4800E+02
     21.903  0.0000E+00  0.4800E+02
     22.026  0.0000E+00  0.4800E+02
     22.149  0.0000E+00  0.4800E+02
     22.272  0.0000E+00  0.4800E+02
     22.395  0.0000E+00  0.4800E+02
     22.518  0.0000E+00  0.4800E+02
     22.641  0.0000E+00  0.4800E+02
     22.764  0.0000E+00  0.4800E+02
     22.887  0.0000E+00  0.4800E+02
     23.010  0.0000E+00  0.4800E+02
     23.133  0.0000E+00  0.4800E+02
     23.257  0.0000E+00  0.4800E+02
     23.380  0.0000E+00  0.4800E+02
     23.503  0.0000E+00  0.4800E+02
