       N       E                     dE             d eps       ncg     rms          rms(c)
DAV:   1     0.576241307721E+02    0.57624E+02   -0.14390E+04  9080   0.105E+03
DAV:   2    -0.707625978852E+02   -0.12839E+03   -0.12157E+03 12648   0.221E+02
DAV:   3    -0.749135796151E+02   -0.41510E+01   -0.41311E+01 11896   0.371E+01
DAV:   4    -0.749536160164E+02   -0.40036E-01   -0.40008E-01 11264   0.407E+00
DAV:   5    -0.749544418560E+02   -0.82584E-03   -0.82542E-03 11920   0.516E-01    0.953E+00
DAV:   6    -0.730281158024E+02    0.19263E+01   -0.12883E+00 10272   0.652E+00    0.522E+00
DAV:   7    -0.723804718519E+02    0.64764E+00   -0.14696E+00 10848   0.716E+00    0.706E-01
DAV:   8    -0.723883396109E+02   -0.78678E-02   -0.34783E-02 11304   0.110E+00    0.765E-02
DAV:   9    -0.723885728262E+02   -0.23322E-03   -0.44605E-04 11176   0.144E-01    0.321E-02
DAV:  10    -0.723886327430E+02   -0.59917E-04   -0.44546E-05 11248   0.501E-02    0.318E-03
DAV:  11    -0.723886341927E+02   -0.14497E-05   -0.12824E-06  8552   0.848E-03    0.905E-04
DAV:  12    -0.723886341688E+02    0.23984E-07   -0.12464E-07  8064   0.253E-03
   1 F= -.72388634E+02 E0= -.72388634E+02  d E =0.000000E+00
