 vasp.5.4.4.18Apr17-6-g9f103f2a35 (build Mar 12 2022 03:36:41) complex          
  
 executed on IFC19.0.3.199_CrayMP date 2022.11.30  12:54:45
 running on   16 total cores
 distrk:  each k-point on   16 cores,    1 groups
 distr:  one band on NCORES_PER_BAND=   4 cores,    4 groups


--------------------------------------------------------------------------------------------------------


 INCAR:
 POTCAR:   PAW_PBE C 08Apr2002                    
 POTCAR:   PAW_PBE C 08Apr2002                    
   VRHFIN =C: s2p2                                                              
   LEXCH  = PE                                                                  
   EATOM  =   147.1560 eV,   10.8157 Ry                                         
                                                                                
   TITEL  = PAW_PBE C 08Apr2002                                                 
   LULTRA =        F    use ultrasoft PP ?                                      
   IUNSCR =        0    unscreen: 0-lin 1-nonlin 2-no                           
   RPACOR =     .000    partial core radius                                     
   POMASS =   12.011; ZVAL   =    4.000    mass and valenz                      
   RCORE  =    1.500    outmost cutoff radius                                   
   RWIGS  =    1.630; RWIGS  =     .863    wigner-seitz radius (au A)           
   ENMAX  =  400.000; ENMIN  =  300.000 eV                                      
   ICORE  =        2    local potential                                         
   LCOR   =        T    correct aug charges                                     
   LPAW   =        T    paw PP                                                  
   EAUG   =  644.873                                                            
   DEXC   =     .000                                                            
   RMAX   =    2.266    core radius for proj-oper                               
   RAUG   =    1.300    factor for augmentation sphere                          
   RDEP   =    1.501    radius for radial grids                                 
   RDEPT  =    1.300    core radius for aug-charge                              
   QCUT   =   -5.516; QGAM   =   11.032    optimization parameters              
                                                                                
   Description                                                                  
     l     E      TYP  RCUT    TYP  RCUT                                        
     0   .000     23  1.200                                                     
     0   .000     23  1.200                                                     
     1   .000     23  1.500                                                     
     1  2.500     23  1.500                                                     
     2   .000      7  1.500                                                     
  local pseudopotential read in
  atomic valenz-charges read in
  non local Contribution for L=           0  read in
    real space projection operators read in
  non local Contribution for L=           0  read in
    real space projection operators read in
  non local Contribution for L=           1  read in
    real space projection operators read in
  non local Contribution for L=           1  read in
    real space projection operators read in
    PAW grid and wavefunctions read in
 
   number of l-projection  operators is LMAX  =           4
   number of lm-projection operators is LMMAX =           8
 
 PAW_PBE C 08Apr2002                    :
 energy of atom  1       EATOM= -147.1560
 kinetic energy error for atom=    0.0288 (will be added to EATOM!!)
 
 
 POSCAR: C8                                      
  positions in direct lattice
  No initial velocities read in
 exchange correlation table for  LEXCH =        8
   RHO(1)=    0.500       N(1)  =     2000
   RHO(2)=  100.500       N(2)  =     4000
 


--------------------------------------------------------------------------------------------------------


 ion  position               nearest neighbor table
   1  0.250  0.750  0.250-   2 1.53   6 1.53   8 1.53   4 1.61
   2  0.000  0.000  0.500-   1 1.53   5 1.53   7 1.53   3 1.61
   3  0.250  0.250  0.750-   4 1.53   6 1.53   8 1.53   2 1.61
   4  0.000  0.500  0.000-   3 1.53   5 1.53   7 1.53   1 1.61
   5  0.750  0.750  0.750-   6 1.53   4 1.53   2 1.53   8 1.61
   6  0.500  0.000  0.000-   5 1.53   3 1.53   1 1.53   7 1.61
   7  0.750  0.250  0.250-   8 1.53   4 1.53   2 1.53   6 1.61
   8  0.500  0.500  0.500-   7 1.53   3 1.53   1 1.53   5 1.61
 
  LATTYP: Found a trigonal (rhomboedric) cell.
 ALAT       =     3.5737100964
 COS(alpha) =     0.0399998870
  
  Lattice vectors:
  
 A1 = (   3.5737100000,   0.0000000000,   0.0000000000)
 A2 = (   0.1429480000,   3.5708500000,   0.0000000000)
 A3 = (   0.1429480000,   0.1373400000,   3.5682080000)


Analysis of symmetry for initial positions (statically):
=====================================================================
 Subroutine PRICEL returns following result:
 
  LATTYP: Found a trigonal (rhomboedric) cell.
 ALAT       =     2.5770388981
 COS(alpha) =     0.5384614305
  
  Lattice vectors:
  
 A1 = (  -0.1429480000,  -1.8540950000,  -1.7841040000)
 A2 = (  -1.8583290000,  -1.7854250000,  -0.0000000000)
 A3 = (  -1.8583290000,  -0.0686700000,  -1.7841040000)
 
   4 primitive cells build up your supercell.
 

 Routine SETGRP: Setting up the symmetry group for a 
 trigonal (rhombohedral) supercell.


 Subroutine GETGRP returns: Found 12 space group operations
 (whereof  6 operations were pure point group operations)
 out of a pool of 12 trial point group operations.


The static configuration has the point symmetry C_3v.
 The point group associated with its full space group is D_3d.


Analysis of symmetry for dynamics (positions and initial velocities):
=====================================================================
 Subroutine PRICEL returns following result:
 
  LATTYP: Found a trigonal (rhomboedric) cell.
 ALAT       =     2.5770388981
 COS(alpha) =     0.5384614305
  
  Lattice vectors:
  
 A1 = (  -0.1429480000,  -1.8540950000,  -1.7841040000)
 A2 = (  -1.8583290000,  -1.7854250000,  -0.0000000000)
 A3 = (  -1.8583290000,  -0.0686700000,  -1.7841040000)
 
   4 primitive cells build up your supercell.
 

 Routine SETGRP: Setting up the symmetry group for a 
 trigonal (rhombohedral) supercell.


 Subroutine GETGRP returns: Found 12 space group operations
 (whereof  6 operations were pure point group operations)
 out of a pool of 12 trial point group operations.


The dynamic configuration has the point symmetry C_3v.
 The point group associated with its full space group is D_3d.


 Subroutine INISYM returns: Found 12 space group operations
 (whereof  6 operations are pure point group operations),
 and found     4 'primitive' translations

 
 
 KPOINTS: kpt_density=1000                        

Automatic generation of k-mesh.
Space group operators:
 irot       det(A)        alpha          n_x          n_y          n_z        tau_x        tau_y        tau_z
    1     1.000000     0.000000     1.000000     0.000000     0.000000     0.000000     0.000000     0.000000
    2    -1.000000   180.000000     0.000000    -0.693375     0.720577     0.000000     0.000000     0.000000
    3     1.000000   120.000000    -0.600000    -0.576461    -0.554700     0.000000     0.000000     0.000000
    4    -1.000000   180.000000    -0.692820     0.721110     0.000000     0.000000     0.000000     0.000000
    5     1.000000   120.000000     0.600000     0.576461     0.554700     0.000000     0.000000     0.000000
    6    -1.000000   180.000000    -0.692820     0.027735     0.720577     0.000000     0.000000     0.000000
    7    -1.000000     0.000000     1.000000     0.000000     0.000000    -0.750000    -0.750000    -0.750000
    8     1.000000   180.000000     0.000000    -0.693375     0.720577    -0.750000    -0.750000    -0.750000
    9    -1.000000   120.000000    -0.600000    -0.576461    -0.554700    -0.750000    -0.750000    -0.750000
   10     1.000000   180.000000    -0.692820     0.721110     0.000000    -0.750000    -0.750000    -0.750000
   11    -1.000000   120.000000     0.600000     0.576461     0.554700    -0.750000    -0.750000    -0.750000
   12     1.000000   180.000000    -0.692820     0.027735     0.720577    -0.750000    -0.750000    -0.750000
 
 Subroutine IBZKPT returns following result:
 ===========================================
 
 Found    189 irreducible k-points:
 
 Following reciprocal coordinates:
            Coordinates               Weight
  0.000000  0.000000  0.000000      1.000000
  0.083333  0.000000 -0.000000      6.000000
  0.166667  0.000000 -0.000000      6.000000
  0.250000 -0.000000 -0.000000      6.000000
  0.333333 -0.000000 -0.000000      6.000000
  0.416667  0.000000 -0.000000      6.000000
  0.500000 -0.000000 -0.000000      3.000000
  0.083333  0.083333 -0.000000      6.000000
  0.166667  0.083333 -0.000000     12.000000
  0.250000  0.083333 -0.000000     12.000000
  0.333333  0.083333 -0.000000     12.000000
  0.416667  0.083333 -0.000000     12.000000
  0.500000  0.083333 -0.000000     12.000000
 -0.416667  0.083333  0.000000     12.000000
 -0.333333  0.083333  0.000000     12.000000
 -0.250000  0.083333  0.000000     12.000000
 -0.166667  0.083333  0.000000     12.000000
 -0.083333  0.083333  0.000000      6.000000
  0.166667  0.166667 -0.000000      6.000000
  0.250000  0.166667 -0.000000     12.000000
  0.333333  0.166667 -0.000000     12.000000
  0.416667  0.166667 -0.000000     12.000000
  0.500000  0.166667 -0.000000     12.000000
 -0.416667  0.166667  0.000000     12.000000
 -0.333333  0.166667  0.000000     12.000000
 -0.250000  0.166667  0.000000     12.000000
 -0.166667  0.166667  0.000000      6.000000
  0.250000  0.250000 -0.000000      6.000000
  0.333333  0.250000 -0.000000     12.000000
  0.416667  0.250000 -0.000000     12.000000
  0.500000  0.250000 -0.000000     12.000000
 -0.416667  0.250000  0.000000     12.000000
 -0.333333  0.250000  0.000000     12.000000
 -0.250000  0.250000  0.000000      6.000000
  0.333333  0.333333 -0.000000      6.000000
  0.416667  0.333333 -0.000000     12.000000
  0.500000  0.333333 -0.000000     12.000000
 -0.416667  0.333333 -0.000000     12.000000
 -0.333333  0.333333  0.000000      6.000000
  0.416667  0.416667 -0.000000      6.000000
  0.500000  0.416667 -0.000000     12.000000
 -0.416667  0.416667  0.000000      6.000000
  0.500000  0.500000 -0.000000      3.000000
  0.083333  0.083333  0.083333      2.000000
  0.166667  0.083333  0.083333      6.000000
  0.250000  0.083333  0.083333      6.000000
  0.333333  0.083333  0.083333      6.000000
  0.416667  0.083333  0.083333      6.000000
  0.500000  0.083333  0.083333      6.000000
 -0.416667  0.083333  0.083333      6.000000
 -0.333333  0.083333  0.083333      6.000000
 -0.250000  0.083333  0.083333      6.000000
 -0.166667  0.083333  0.083333      6.000000
 -0.083333  0.083333  0.083333      6.000000
  0.166667  0.166667  0.083333      6.000000
  0.250000  0.166667  0.083333     12.000000
  0.333333  0.166667  0.083333     12.000000
  0.416667  0.166667  0.083333     12.000000
  0.500000  0.166667  0.083333     12.000000
 -0.416667  0.166667  0.083333     12.000000
 -0.333333  0.166667  0.083333     12.000000
 -0.250000  0.166667  0.083333     12.000000
 -0.166667  0.166667  0.083333     12.000000
 -0.083333  0.166667  0.083333     12.000000
  0.250000  0.250000  0.083333      6.000000
  0.333333  0.250000  0.083333     12.000000
  0.416667  0.250000  0.083333     12.000000
  0.500000  0.250000  0.083333     12.000000
 -0.416667  0.250000  0.083333     12.000000
 -0.333333  0.250000  0.083333     12.000000
 -0.250000  0.250000  0.083333     12.000000
 -0.166667  0.250000  0.083333     12.000000
 -0.083333  0.250000  0.083333     12.000000
  0.333333  0.333333  0.083333      6.000000
  0.416667  0.333333  0.083333     12.000000
  0.500000  0.333333  0.083333     12.000000
 -0.416667  0.333333  0.083333     12.000000
 -0.333333  0.333333  0.083333     12.000000
 -0.250000  0.333333  0.083333     12.000000
 -0.166667  0.333333  0.083333     12.000000
 -0.083333  0.333333  0.083333     12.000000
  0.416667  0.416667  0.083333      6.000000
  0.500000  0.416667  0.083333     12.000000
 -0.416667  0.416667  0.083333     12.000000
 -0.333333  0.416667  0.083333     12.000000
 -0.250000  0.416667  0.083333     12.000000
 -0.166667  0.416667  0.083333     12.000000
 -0.083333  0.416667  0.083333     12.000000
  0.500000  0.500000  0.083333      6.000000
 -0.416667  0.500000  0.083333     12.000000
 -0.333333  0.500000  0.083333     12.000000
 -0.250000  0.500000  0.083333     12.000000
 -0.166667  0.500000  0.083333     12.000000
 -0.083333  0.500000  0.083333      6.000000
 -0.416667 -0.416667  0.083333      6.000000
 -0.333333 -0.416667  0.083333     12.000000
 -0.250000 -0.416667  0.083333     12.000000
 -0.166667 -0.416667  0.083333     12.000000
 -0.333333 -0.333333  0.083333      6.000000
 -0.250000 -0.333333  0.083333     12.000000
 -0.166667 -0.333333  0.083333     12.000000
 -0.250000 -0.250000  0.083333      6.000000
 -0.166667 -0.250000  0.083333     12.000000
 -0.166667 -0.166667  0.083333      6.000000
  0.166667  0.166667  0.166667      2.000000
  0.250000  0.166667  0.166667      6.000000
  0.333333  0.166667  0.166667      6.000000
  0.416667  0.166667  0.166667      6.000000
  0.500000  0.166667  0.166667      6.000000
 -0.416667  0.166667  0.166667      6.000000
 -0.333333  0.166667  0.166667      6.000000
 -0.250000  0.166667  0.166667      6.000000
 -0.166667  0.166667  0.166667      6.000000
  0.250000  0.250000  0.166667      6.000000
  0.333333  0.250000  0.166667     12.000000
  0.416667  0.250000  0.166667     12.000000
  0.500000  0.250000  0.166667     12.000000
 -0.416667  0.250000  0.166667     12.000000
 -0.333333  0.250000  0.166667     12.000000
 -0.250000  0.250000  0.166667     12.000000
 -0.166667  0.250000  0.166667     12.000000
  0.333333  0.333333  0.166667      6.000000
  0.416667  0.333333  0.166667     12.000000
  0.500000  0.333333  0.166667     12.000000
 -0.416667  0.333333  0.166667     12.000000
 -0.333333  0.333333  0.166667     12.000000
 -0.250000  0.333333  0.166667     12.000000
 -0.166667  0.333333  0.166667     12.000000
  0.416667  0.416667  0.166667      6.000000
  0.500000  0.416667  0.166667     12.000000
 -0.416667  0.416667  0.166667     12.000000
 -0.333333  0.416667  0.166667     12.000000
 -0.250000  0.416667  0.166667     12.000000
 -0.166667  0.416667  0.166667     12.000000
  0.500000  0.500000  0.166667      6.000000
 -0.416667  0.500000  0.166667     12.000000
 -0.333333  0.500000  0.166667     12.000000
 -0.250000  0.500000  0.166667     12.000000
 -0.166667  0.500000  0.166667      6.000000
 -0.416667 -0.416667  0.166667      6.000000
 -0.333333 -0.416667  0.166667     12.000000
 -0.250000 -0.416667  0.166667     12.000000
 -0.333333 -0.333333  0.166667      6.000000
 -0.250000 -0.333333  0.166667     12.000000
 -0.250000 -0.250000  0.166667      6.000000
  0.250000  0.250000  0.250000      2.000000
  0.333333  0.250000  0.250000      6.000000
  0.416667  0.250000  0.250000      6.000000
  0.500000  0.250000  0.250000      6.000000
 -0.416667  0.250000  0.250000      6.000000
 -0.333333  0.250000  0.250000      6.000000
 -0.250000  0.250000  0.250000      6.000000
  0.333333  0.333333  0.250000      6.000000
  0.416667  0.333333  0.250000     12.000000
  0.500000  0.333333  0.250000     12.000000
 -0.416667  0.333333  0.250000     12.000000
 -0.333333  0.333333  0.250000     12.000000
 -0.250000  0.333333  0.250000     12.000000
  0.416667  0.416667  0.250000      6.000000
  0.500000  0.416667  0.250000     12.000000
 -0.416667  0.416667  0.250000     12.000000
 -0.333333  0.416667  0.250000     12.000000
 -0.250000  0.416667  0.250000     12.000000
  0.500000  0.500000  0.250000      6.000000
 -0.416667  0.500000  0.250000     12.000000
 -0.333333  0.500000  0.250000     12.000000
 -0.250000  0.500000  0.250000      6.000000
 -0.416667 -0.416667  0.250000      6.000000
 -0.333333 -0.416667  0.250000     12.000000
 -0.333333 -0.333333  0.250000      6.000000
  0.333333  0.333333  0.333333      2.000000
  0.416667  0.333333  0.333333      6.000000
  0.500000  0.333333  0.333333      6.000000
 -0.416667  0.333333  0.333333      6.000000
 -0.333333  0.333333  0.333333      6.000000
  0.416667  0.416667  0.333333      6.000000
  0.500000  0.416667  0.333333     12.000000
 -0.416667  0.416667  0.333333     12.000000
 -0.333333  0.416667  0.333333     12.000000
  0.500000  0.500000  0.333333      6.000000
 -0.416667  0.500000  0.333333     12.000000
 -0.333333  0.500000  0.333333      6.000000
 -0.416667 -0.416667  0.333333      6.000000
  0.416667  0.416667  0.416667      2.000000
  0.500000  0.416667  0.416667      6.000000
 -0.416667  0.416667  0.416667      6.000000
  0.500000  0.500000  0.416667      6.000000
 -0.416667  0.500000  0.416667      6.000000
  0.500000  0.500000  0.500000      1.000000
 
 Following cartesian coordinates:
            Coordinates               Weight
  0.000000  0.000000  0.000000      1.000000
  0.023318 -0.000933 -0.000898      6.000000
  0.046637 -0.001867 -0.001796      6.000000
  0.069955 -0.002800 -0.002695      6.000000
  0.093274 -0.003734 -0.003593      6.000000
  0.116592 -0.004667 -0.004491      6.000000
  0.139911 -0.005601 -0.005389      3.000000
  0.023318  0.022404 -0.001796      6.000000
  0.046637  0.021470 -0.002695     12.000000
  0.069955  0.020537 -0.003593     12.000000
  0.093274  0.019603 -0.004491     12.000000
  0.116592  0.018670 -0.005389     12.000000
  0.139911  0.017736 -0.006288     12.000000
 -0.116592  0.028005  0.003593     12.000000
 -0.093274  0.027071  0.002695     12.000000
 -0.069955  0.026138  0.001796     12.000000
 -0.046637  0.025204  0.000898     12.000000
 -0.023318  0.024271  0.000000      6.000000
  0.046637  0.044807 -0.003593      6.000000
  0.069955  0.043874 -0.004491     12.000000
  0.093274  0.042940 -0.005389     12.000000
  0.116592  0.042007 -0.006288     12.000000
  0.139911  0.041073 -0.007186     12.000000
 -0.116592  0.051342  0.002695     12.000000
 -0.093274  0.050408  0.001796     12.000000
 -0.069955  0.049475  0.000898     12.000000
 -0.046637  0.048541  0.000000      6.000000
  0.069955  0.067211 -0.005389      6.000000
  0.093274  0.066277 -0.006288     12.000000
  0.116592  0.065344 -0.007186     12.000000
  0.139911  0.064410 -0.008084     12.000000
 -0.116592  0.074679  0.001796     12.000000
 -0.093274  0.073745  0.000898     12.000000
 -0.069955  0.072812  0.000000      6.000000
  0.093274  0.089615 -0.007186      6.000000
  0.116592  0.088681 -0.008084     12.000000
  0.139911  0.087748 -0.008982     12.000000
 -0.116592  0.098016  0.000898     12.000000
 -0.093274  0.097082  0.000000      6.000000
  0.116592  0.112018 -0.008982      6.000000
  0.139911  0.111085 -0.009881     12.000000
 -0.116592  0.121353  0.000000      6.000000
  0.139911  0.134422 -0.010779      3.000000
  0.023318  0.022404  0.021558      2.000000
  0.046637  0.021470  0.020660      6.000000
  0.069955  0.020537  0.019761      6.000000
  0.093274  0.019603  0.018863      6.000000
  0.116592  0.018670  0.017965      6.000000
  0.139911  0.017736  0.017067      6.000000
 -0.116592  0.028005  0.026947      6.000000
 -0.093274  0.027071  0.026049      6.000000
 -0.069955  0.026138  0.025151      6.000000
 -0.046637  0.025204  0.024253      6.000000
 -0.023318  0.024271  0.023354      6.000000
  0.046637  0.044807  0.019761      6.000000
  0.069955  0.043874  0.018863     12.000000
  0.093274  0.042940  0.017965     12.000000
  0.116592  0.042007  0.017067     12.000000
  0.139911  0.041073  0.016168     12.000000
 -0.116592  0.051342  0.026049     12.000000
 -0.093274  0.050408  0.025151     12.000000
 -0.069955  0.049475  0.024253     12.000000
 -0.046637  0.048541  0.023354     12.000000
 -0.023318  0.047608  0.022456     12.000000
  0.069955  0.067211  0.017965      6.000000
  0.093274  0.066277  0.017067     12.000000
  0.116592  0.065344  0.016168     12.000000
  0.139911  0.064410  0.015270     12.000000
 -0.116592  0.074679  0.025151     12.000000
 -0.093274  0.073745  0.024253     12.000000
 -0.069955  0.072812  0.023354     12.000000
 -0.046637  0.071878  0.022456     12.000000
 -0.023318  0.070945  0.021558     12.000000
  0.093274  0.089615  0.016168      6.000000
  0.116592  0.088681  0.015270     12.000000
  0.139911  0.087748  0.014372     12.000000
 -0.116592  0.098016  0.024253     12.000000
 -0.093274  0.097082  0.023354     12.000000
 -0.069955  0.096149  0.022456     12.000000
 -0.046637  0.095215  0.021558     12.000000
 -0.023318  0.094282  0.020660     12.000000
  0.116592  0.112018  0.014372      6.000000
  0.139911  0.111085  0.013474     12.000000
 -0.116592  0.121353  0.023354     12.000000
 -0.093274  0.120419  0.022456     12.000000
 -0.069955  0.119486  0.021558     12.000000
 -0.046637  0.118553  0.020660     12.000000
 -0.023318  0.117619  0.019761     12.000000
  0.139911  0.134422  0.012575      6.000000
 -0.116592  0.144690  0.022456     12.000000
 -0.093274  0.143757  0.021558     12.000000
 -0.069955  0.142823  0.020660     12.000000
 -0.046637  0.141890  0.019761     12.000000
 -0.023318  0.140956  0.018863      6.000000
 -0.116592 -0.112018  0.032337      6.000000
 -0.093274 -0.112952  0.031439     12.000000
 -0.069955 -0.113885  0.030540     12.000000
 -0.046637 -0.114819  0.029642     12.000000
 -0.093274 -0.089615  0.030540      6.000000
 -0.069955 -0.090548  0.029642     12.000000
 -0.046637 -0.091481  0.028744     12.000000
 -0.069955 -0.067211  0.028744      6.000000
 -0.046637 -0.068144  0.027846     12.000000
 -0.046637 -0.044807  0.026947      6.000000
  0.046637  0.044807  0.043116      2.000000
  0.069955  0.043874  0.042218      6.000000
  0.093274  0.042940  0.041319      6.000000
  0.116592  0.042007  0.040421      6.000000
  0.139911  0.041073  0.039523      6.000000
 -0.116592  0.051342  0.049404      6.000000
 -0.093274  0.050408  0.048505      6.000000
 -0.069955  0.049475  0.047607      6.000000
 -0.046637  0.048541  0.046709      6.000000
  0.069955  0.067211  0.041319      6.000000
  0.093274  0.066277  0.040421     12.000000
  0.116592  0.065344  0.039523     12.000000
  0.139911  0.064410  0.038625     12.000000
 -0.116592  0.074679  0.048505     12.000000
 -0.093274  0.073745  0.047607     12.000000
 -0.069955  0.072812  0.046709     12.000000
 -0.046637  0.071878  0.045811     12.000000
  0.093274  0.089615  0.039523      6.000000
  0.116592  0.088681  0.038625     12.000000
  0.139911  0.087748  0.037726     12.000000
 -0.116592  0.098016  0.047607     12.000000
 -0.093274  0.097082  0.046709     12.000000
 -0.069955  0.096149  0.045811     12.000000
 -0.046637  0.095215  0.044912     12.000000
  0.116592  0.112018  0.037726      6.000000
  0.139911  0.111085  0.036828     12.000000
 -0.116592  0.121353  0.046709     12.000000
 -0.093274  0.120419  0.045811     12.000000
 -0.069955  0.119486  0.044912     12.000000
 -0.046637  0.118553  0.044014     12.000000
  0.139911  0.134422  0.035930      6.000000
 -0.116592  0.144690  0.045811     12.000000
 -0.093274  0.143757  0.044912     12.000000
 -0.069955  0.142823  0.044014     12.000000
 -0.046637  0.141890  0.043116      6.000000
 -0.116592 -0.112018  0.055691      6.000000
 -0.093274 -0.112952  0.054793     12.000000
 -0.069955 -0.113885  0.053895     12.000000
 -0.093274 -0.089615  0.053895      6.000000
 -0.069955 -0.090548  0.052996     12.000000
 -0.069955 -0.067211  0.052098      6.000000
  0.069955  0.067211  0.064674      2.000000
  0.093274  0.066277  0.063775      6.000000
  0.116592  0.065344  0.062877      6.000000
  0.139911  0.064410  0.061979      6.000000
 -0.116592  0.074679  0.071860      6.000000
 -0.093274  0.073745  0.070961      6.000000
 -0.069955  0.072812  0.070063      6.000000
  0.093274  0.089615  0.062877      6.000000
  0.116592  0.088681  0.061979     12.000000
  0.139911  0.087748  0.061081     12.000000
 -0.116592  0.098016  0.070961     12.000000
 -0.093274  0.097082  0.070063     12.000000
 -0.069955  0.096149  0.069165     12.000000
  0.116592  0.112018  0.061081      6.000000
  0.139911  0.111085  0.060183     12.000000
 -0.116592  0.121353  0.070063     12.000000
 -0.093274  0.120419  0.069165     12.000000
 -0.069955  0.119486  0.068267     12.000000
  0.139911  0.134422  0.059284      6.000000
 -0.116592  0.144690  0.069165     12.000000
 -0.093274  0.143757  0.068267     12.000000
 -0.069955  0.142823  0.067368      6.000000
 -0.116592 -0.112018  0.079046      6.000000
 -0.093274 -0.112952  0.078147     12.000000
 -0.093274 -0.089615  0.077249      6.000000
  0.093274  0.089615  0.086232      2.000000
  0.116592  0.088681  0.085333      6.000000
  0.139911  0.087748  0.084435      6.000000
 -0.116592  0.098016  0.094316      6.000000
 -0.093274  0.097082  0.093418      6.000000
  0.116592  0.112018  0.084435      6.000000
  0.139911  0.111085  0.083537     12.000000
 -0.116592  0.121353  0.093418     12.000000
 -0.093274  0.120419  0.092519     12.000000
  0.139911  0.134422  0.082639      6.000000
 -0.116592  0.144690  0.092519     12.000000
 -0.093274  0.143757  0.091621      6.000000
 -0.116592 -0.112018  0.102400      6.000000
  0.116592  0.112018  0.107790      2.000000
  0.139911  0.111085  0.106891      6.000000
 -0.116592  0.121353  0.116772      6.000000
  0.139911  0.134422  0.105993      6.000000
 -0.116592  0.144690  0.115874      6.000000
  0.139911  0.134422  0.129347      1.000000
 
 TETIRR: Found    864 inequivalent tetrahedra from    10368


--------------------------------------------------------------------------------------------------------




 Dimension of arrays:
   k-points           NKPTS =    189   k-points in BZ     NKDIM =    189   number of bands    NBANDS=     24
   number of dos      NEDOS =    301   number of ions     NIONS =      8
   non local maximal  LDIM  =      4   non local SUM 2l+1 LMDIM =      8
   total plane-waves  NPLWV =  13824
   max r-space proj   IRMAX =      1   max aug-charges    IRDMAX=   3782
   dimension x,y,z NGX =    24 NGY =   24 NGZ =   24
   dimension x,y,z NGXF=    48 NGYF=   48 NGZF=   48
   support grid    NGXF=    48 NGYF=   48 NGZF=   48
   ions per type =               8
   NGX,Y,Z   is equivalent  to a cutoff of  11.16, 11.16, 11.16 a.u.
   NGXF,Y,Z  is equivalent  to a cutoff of  22.33, 22.33, 22.33 a.u.

 SYSTEM =  unknown system                          
 POSCAR =  C8                                      

 Startparameter for this run:
   NWRITE =      2    write-flag & timer
   PREC   = accura    normal or accurate (medium, high low for compatibility)
   ISTART =      0    job   : 0-new  1-cont  2-samecut
   ICHARG =      2    charge: 1-file 2-atom 10-const
   ISPIN  =      1    spin polarized calculation?
   LNONCOLLINEAR =      F non collinear calculations
   LSORBIT =      F    spin-orbit coupling
   INIWAV =      1    electr: 0-lowe 1-rand  2-diag
   LASPH  =      F    aspherical Exc in radial PAW
   METAGGA=      F    non-selfconsistent MetaGGA calc.

 Electronic Relaxation 1
   ENCUT  =  400.0 eV  29.40 Ry    5.42 a.u.   5.83  5.83  5.83*2*pi/ulx,y,z
   ENINI  =  400.0     initial cutoff
   ENAUG  =  644.9 eV  augmentation charge cutoff
   NELM   =     60;   NELMIN=  2; NELMDL= -5     # of ELM steps 
   EDIFF  = 0.1E-05   stopping-criterion for ELM
   LREAL  =      F    real-space projection
   NLSPLINE    = F    spline interpolate recip. space projectors
   LCOMPAT=      F    compatible to vasp.4.4
   GGA_COMPAT  = T    GGA compatible to vasp.4.4-vasp.4.6
   LMAXPAW     = -100 max onsite density
   LMAXMIX     =    2 max onsite mixed and CHGCAR
   VOSKOWN=      0    Vosko Wilk Nusair interpolation
   ROPT   =    0.00000
 Ionic relaxation
   EDIFFG = 0.1E-04   stopping-criterion for IOM
   NSW    =      0    number of steps for IOM
   NBLOCK =      1;   KBLOCK =      1    inner block; outer block 
   IBRION =     -1    ionic relax: 0-MD 1-quasi-New 2-CG
   NFREE  =      0    steps in history (QN), initial steepest desc. (CG)
   ISIF   =      2    stress and relaxation
   IWAVPR =     10    prediction:  0-non 1-charg 2-wave 3-comb
   ISYM   =      2    0-nonsym 1-usesym 2-fastsym
   LCORR  =      T    Harris-Foulkes like correction to forces

   POTIM  = 0.0200    time-step for ionic-motion
   TEIN   =    0.0    initial temperature
   TEBEG  =    0.0;   TEEND  =   0.0 temperature during run
   SMASS  =  -3.00    Nose mass-parameter (am)
   estimated Nose-frequenzy (Omega)   =  0.10E-29 period in steps =****** mass=  -0.292E-27a.u.
   SCALEE = 1.0000    scale energy and forces
   NPACO  =    256;   APACO  = 16.0  distance and # of slots for P.C.
   PSTRESS=    0.0 pullay stress

  Mass of Ions in am
   POMASS =  12.01
  Ionic Valenz
   ZVAL   =   4.00
  Atomic Wigner-Seitz radii
   RWIGS  =  -1.00
  virtual crystal weights 
   VCA    =   1.00
   NELECT =      32.0000    total number of electrons
   NUPDOWN=      -1.0000    fix difference up-down

 DOS related values:
   EMIN   =  10.00;   EMAX   =-10.00  energy-range for DOS
   EFERMI =   0.00
   ISMEAR =    -5;   SIGMA  =   0.06  broadening in eV -4-tet -1-fermi 0-gaus

 Electronic relaxation 2 (details)
   IALGO  =     38    algorithm
   LDIAG  =      T    sub-space diagonalisation (order eigenvalues)
   LSUBROT=      F    optimize rotation matrix (better conditioning)
   TURBO    =      0    0=normal 1=particle mesh
   IRESTART =      0    0=no restart 2=restart with 2 vectors
   NREBOOT  =      0    no. of reboots
   NMIN     =      0    reboot dimension
   EREF     =   0.00    reference energy to select bands
   IMIX   =      4    mixing-type and parameters
     AMIX     =   0.40;   BMIX     =  1.00
     AMIX_MAG =   1.60;   BMIX_MAG =  1.00
     AMIN     =   0.10
     WC   =   100.;   INIMIX=   1;  MIXPRE=   1;  MAXMIX= -45

 Intra band minimization:
   WEIMIN = 0.0000     energy-eigenvalue tresh-hold
   EBREAK =  0.10E-07  absolut break condition
   DEPER  =   0.30     relativ break condition  

   TIME   =   0.40     timestep for ELM

  volume/ion in A,a.u.               =       5.69        38.41
  Fermi-wavevector in a.u.,A,eV,Ry     =   1.455496  2.750489 28.823531  2.118470
  Thomas-Fermi vector in A             =   2.572524
 
 Write flags
   LWAVE        =      F    write WAVECAR
   LDOWNSAMPLE  =      F    k-point downsampling of WAVECAR
   LCHARG       =      F    write CHGCAR
   LVTOT        =      F    write LOCPOT, total local potential
   LVHAR        =      F    write LOCPOT, Hartree potential only
   LELF         =      F    write electronic localiz. function (ELF)
   LORBIT       =      0    0 simple, 1 ext, 2 COOP (PROOUT), +10 PAW based schemes


 Dipole corrections
   LMONO  =      F    monopole corrections only (constant potential shift)
   LDIPOL =      F    correct potential (dipole corrections)
   IDIPOL =      0    1-x, 2-y, 3-z, 4-all directions 
   EPSILON=  1.0000000 bulk dielectric constant

 Exchange correlation treatment:
   GGA     =    --    GGA type
   LEXCH   =     8    internal setting for exchange type
   VOSKOWN=      0    Vosko Wilk Nusair interpolation
   LHFCALC =     F    Hartree Fock is set to
   LHFONE  =     F    Hartree Fock one center treatment
   AEXX    =    0.0000 exact exchange contribution

 Linear response parameters
   LEPSILON=     F    determine dielectric tensor
   LRPA    =     F    only Hartree local field effects (RPA)
   LNABLA  =     F    use nabla operator in PAW spheres
   LVEL    =     F    velocity operator in full k-point grid
   LINTERFAST=   F  fast interpolation
   KINTER  =     0    interpolate to denser k-point grid
   CSHIFT  =0.1000    complex shift for real part using Kramers Kronig
   OMEGAMAX=  -1.0    maximum frequency
   DEG_THRESHOLD= 0.2000000E-02 threshold for treating states as degnerate
   RTIME   =   -0.100 relaxation time in fs
  (WPLASMAI=    0.000 imaginary part of plasma frequency in eV, 0.658/RTIME)
   DFIELD  = 0.0000000 0.0000000 0.0000000 field for delta impulse in time
 
 Orbital magnetization related:
   ORBITALMAG=     F  switch on orbital magnetization
   LCHIMAG   =     F  perturbation theory with respect to B field
   DQ        =  0.001000  dq finite difference perturbation B field
   LLRAUG    =     F  two centre corrections for induced B field



--------------------------------------------------------------------------------------------------------


 Static calculation
 charge density and potential will be updated during run
 non-spin polarized calculation
 Variant of blocked Davidson
 Davidson routine will perform the subspace rotation
 perform sub-space diagonalisation
    after iterative eigenvector-optimisation
 modified Broyden-mixing scheme, WC =      100.0
 initial mixing is a Kerker type mixing with AMIX =  0.4000 and BMIX =      1.0000
 Hartree-type preconditioning will be used
 using additional bands            8
 reciprocal scheme for non local part
 calculate Harris-corrections to forces 
   (improved forces if not selfconsistent)
 use gradient corrections 
 use of overlap-Matrix (Vanderbilt PP)
 Fermi weights with tetrahedron method with Bloechl corrections


--------------------------------------------------------------------------------------------------------


  energy-cutoff  :      400.00
  volume of cell :       45.53
      direct lattice vectors                 reciprocal lattice vectors
     3.573710000  0.000000000  0.000000000     0.279821250 -0.011201783 -0.010778922
     0.142948000  3.570850000  0.000000000     0.000000000  0.280045367 -0.010778921
     0.142948000  0.137340000  3.568208000     0.000000000  0.000000000  0.280252721

  length of vectors
     3.573710000  3.573710096  3.573710220     0.280252738  0.280252730  0.280252721


 
 k-points in units of 2pi/SCALE and weight: kpt_density=1000                        
   0.00000000  0.00000000  0.00000000       0.001
   0.02331844 -0.00093348 -0.00089824       0.003
   0.04663688 -0.00186696 -0.00179649       0.003
   0.06995531 -0.00280045 -0.00269473       0.003
   0.09327375 -0.00373393 -0.00359297       0.003
   0.11659219 -0.00466741 -0.00449122       0.003
   0.13991063 -0.00560089 -0.00538946       0.002
   0.02331844  0.02240363 -0.00179649       0.003
   0.04663688  0.02147015 -0.00269473       0.007
   0.06995531  0.02053667 -0.00359297       0.007
   0.09327375  0.01960319 -0.00449122       0.007
   0.11659219  0.01866970 -0.00538946       0.007
   0.13991063  0.01773622 -0.00628770       0.007
  -0.11659219  0.02800452  0.00359297       0.007
  -0.09327375  0.02707104  0.00269473       0.007
  -0.06995531  0.02613756  0.00179649       0.007
  -0.04663688  0.02520408  0.00089824       0.007
  -0.02331844  0.02427060  0.00000000       0.003
   0.04663688  0.04480726 -0.00359297       0.003
   0.06995531  0.04387378 -0.00449122       0.007
   0.09327375  0.04294030 -0.00538946       0.007
   0.11659219  0.04200682 -0.00628770       0.007
   0.13991063  0.04107334 -0.00718595       0.007
  -0.11659219  0.05134164  0.00269473       0.007
  -0.09327375  0.05040816  0.00179649       0.007
  -0.06995531  0.04947467  0.00089824       0.007
  -0.04663688  0.04854119  0.00000000       0.003
   0.06995531  0.06721090 -0.00538946       0.003
   0.09327375  0.06627741 -0.00628770       0.007
   0.11659219  0.06534393 -0.00718595       0.007
   0.13991063  0.06441045 -0.00808419       0.007
  -0.11659219  0.07467875  0.00179649       0.007
  -0.09327375  0.07374527  0.00089824       0.007
  -0.06995531  0.07281179  0.00000000       0.003
   0.09327375  0.08961453 -0.00718595       0.003
   0.11659219  0.08868105 -0.00808419       0.007
   0.13991063  0.08774756 -0.00898243       0.007
  -0.11659219  0.09801587  0.00089824       0.007
  -0.09327375  0.09708238  0.00000000       0.003
   0.11659219  0.11201816 -0.00898243       0.003
   0.13991063  0.11108468 -0.00988068       0.007
  -0.11659219  0.12135298  0.00000000       0.003
   0.13991063  0.13442179 -0.01077892       0.002
   0.02331844  0.02240363  0.02155791       0.001
   0.04663688  0.02147015  0.02065966       0.003
   0.06995531  0.02053667  0.01976142       0.003
   0.09327375  0.01960319  0.01886318       0.003
   0.11659219  0.01866970  0.01796493       0.003
   0.13991063  0.01773622  0.01706669       0.003
  -0.11659219  0.02800452  0.02694737       0.003
  -0.09327375  0.02707104  0.02604912       0.003
  -0.06995531  0.02613756  0.02515088       0.003
  -0.04663688  0.02520408  0.02425264       0.003
  -0.02331844  0.02427060  0.02335439       0.003
   0.04663688  0.04480726  0.01976142       0.003
   0.06995531  0.04387378  0.01886318       0.007
   0.09327375  0.04294030  0.01796493       0.007
   0.11659219  0.04200682  0.01706669       0.007
   0.13991063  0.04107334  0.01616845       0.007
  -0.11659219  0.05134164  0.02604912       0.007
  -0.09327375  0.05040816  0.02515088       0.007
  -0.06995531  0.04947467  0.02425264       0.007
  -0.04663688  0.04854119  0.02335439       0.007
  -0.02331844  0.04760771  0.02245615       0.007
   0.06995531  0.06721090  0.01796493       0.003
   0.09327375  0.06627741  0.01706669       0.007
   0.11659219  0.06534393  0.01616845       0.007
   0.13991063  0.06441045  0.01527020       0.007
  -0.11659219  0.07467875  0.02515088       0.007
  -0.09327375  0.07374527  0.02425264       0.007
  -0.06995531  0.07281179  0.02335439       0.007
  -0.04663688  0.07187831  0.02245615       0.007
  -0.02331844  0.07094482  0.02155791       0.007
   0.09327375  0.08961453  0.01616845       0.003
   0.11659219  0.08868105  0.01527020       0.007
   0.13991063  0.08774756  0.01437196       0.007
  -0.11659219  0.09801587  0.02425264       0.007
  -0.09327375  0.09708238  0.02335439       0.007
  -0.06995531  0.09614890  0.02245615       0.007
  -0.04663688  0.09521542  0.02155791       0.007
  -0.02331844  0.09428194  0.02065966       0.007
   0.11659219  0.11201816  0.01437196       0.003
   0.13991063  0.11108468  0.01347372       0.007
  -0.11659219  0.12135298  0.02335439       0.007
  -0.09327375  0.12041950  0.02245615       0.007
  -0.06995531  0.11948602  0.02155791       0.007
  -0.04663688  0.11855253  0.02065966       0.007
  -0.02331844  0.11761905  0.01976142       0.007
   0.13991063  0.13442179  0.01257547       0.003
  -0.11659219  0.14469009  0.02245615       0.007
  -0.09327375  0.14375661  0.02155791       0.007
  -0.06995531  0.14282313  0.02065966       0.007
  -0.04663688  0.14188965  0.01976142       0.007
  -0.02331844  0.14095617  0.01886318       0.003
  -0.11659219 -0.11201816  0.03233683       0.003
  -0.09327375 -0.11295164  0.03143858       0.007
  -0.06995531 -0.11388512  0.03054034       0.007
  -0.04663688 -0.11481861  0.02964210       0.007
  -0.09327375 -0.08961453  0.03054034       0.003
  -0.06995531 -0.09054801  0.02964210       0.007
  -0.04663688 -0.09148149  0.02874385       0.007
  -0.06995531 -0.06721090  0.02874385       0.003
  -0.04663688 -0.06814438  0.02784561       0.007
  -0.04663688 -0.04480726  0.02694737       0.003
   0.04663688  0.04480726  0.04311581       0.001
   0.06995531  0.04387378  0.04221757       0.003
   0.09327375  0.04294030  0.04131933       0.003
   0.11659219  0.04200682  0.04042108       0.003
   0.13991063  0.04107334  0.03952284       0.003
  -0.11659219  0.05134164  0.04940352       0.003
  -0.09327375  0.05040816  0.04850527       0.003
  -0.06995531  0.04947467  0.04760703       0.003
  -0.04663688  0.04854119  0.04670879       0.003
   0.06995531  0.06721090  0.04131933       0.003
   0.09327375  0.06627741  0.04042108       0.007
   0.11659219  0.06534393  0.03952284       0.007
   0.13991063  0.06441045  0.03862460       0.007
  -0.11659219  0.07467875  0.04850527       0.007
  -0.09327375  0.07374527  0.04760703       0.007
  -0.06995531  0.07281179  0.04670879       0.007
  -0.04663688  0.07187831  0.04581054       0.007
   0.09327375  0.08961453  0.03952284       0.003
   0.11659219  0.08868105  0.03862460       0.007
   0.13991063  0.08774756  0.03772635       0.007
  -0.11659219  0.09801587  0.04760703       0.007
  -0.09327375  0.09708238  0.04670879       0.007
  -0.06995531  0.09614890  0.04581054       0.007
  -0.04663688  0.09521542  0.04491230       0.007
   0.11659219  0.11201816  0.03772635       0.003
   0.13991063  0.11108468  0.03682811       0.007
  -0.11659219  0.12135298  0.04670879       0.007
  -0.09327375  0.12041950  0.04581054       0.007
  -0.06995531  0.11948602  0.04491230       0.007
  -0.04663688  0.11855253  0.04401406       0.007
   0.13991063  0.13442179  0.03592987       0.003
  -0.11659219  0.14469009  0.04581054       0.007
  -0.09327375  0.14375661  0.04491230       0.007
  -0.06995531  0.14282313  0.04401406       0.007
  -0.04663688  0.14188965  0.04311581       0.003
  -0.11659219 -0.11201816  0.05569122       0.003
  -0.09327375 -0.11295164  0.05479298       0.007
  -0.06995531 -0.11388512  0.05389473       0.007
  -0.09327375 -0.08961453  0.05389473       0.003
  -0.06995531 -0.09054801  0.05299649       0.007
  -0.06995531 -0.06721090  0.05209825       0.003
   0.06995531  0.06721090  0.06467372       0.001
   0.09327375  0.06627741  0.06377548       0.003
   0.11659219  0.06534393  0.06287723       0.003
   0.13991063  0.06441045  0.06197899       0.003
  -0.11659219  0.07467875  0.07185967       0.003
  -0.09327375  0.07374527  0.07096142       0.003
  -0.06995531  0.07281179  0.07006318       0.003
   0.09327375  0.08961453  0.06287723       0.003
   0.11659219  0.08868105  0.06197899       0.007
   0.13991063  0.08774756  0.06108075       0.007
  -0.11659219  0.09801587  0.07096142       0.007
  -0.09327375  0.09708238  0.07006318       0.007
  -0.06995531  0.09614890  0.06916494       0.007
   0.11659219  0.11201816  0.06108075       0.003
   0.13991063  0.11108468  0.06018250       0.007
  -0.11659219  0.12135298  0.07006318       0.007
  -0.09327375  0.12041950  0.06916494       0.007
  -0.06995531  0.11948602  0.06826669       0.007
   0.13991063  0.13442179  0.05928426       0.003
  -0.11659219  0.14469009  0.06916494       0.007
  -0.09327375  0.14375661  0.06826669       0.007
  -0.06995531  0.14282313  0.06736845       0.003
  -0.11659219 -0.11201816  0.07904561       0.003
  -0.09327375 -0.11295164  0.07814737       0.007
  -0.09327375 -0.08961453  0.07724913       0.003
   0.09327375  0.08961453  0.08623163       0.001
   0.11659219  0.08868105  0.08533338       0.003
   0.13991063  0.08774756  0.08443514       0.003
  -0.11659219  0.09801587  0.09431582       0.003
  -0.09327375  0.09708238  0.09341757       0.003
   0.11659219  0.11201816  0.08443514       0.003
   0.13991063  0.11108468  0.08353690       0.007
  -0.11659219  0.12135298  0.09341757       0.007
  -0.09327375  0.12041950  0.09251933       0.007
   0.13991063  0.13442179  0.08263865       0.003
  -0.11659219  0.14469009  0.09251933       0.007
  -0.09327375  0.14375661  0.09162109       0.003
  -0.11659219 -0.11201816  0.10240001       0.003
   0.11659219  0.11201816  0.10778953       0.001
   0.13991063  0.11108468  0.10689129       0.003
  -0.11659219  0.12135298  0.11677197       0.003
   0.13991063  0.13442179  0.10599305       0.003
  -0.11659219  0.14469009  0.11587372       0.003
   0.13991063  0.13442179  0.12934744       0.001
 
 k-points in reciprocal lattice and weights: kpt_density=1000                        
   0.00000000  0.00000000  0.00000000       0.001
   0.08333333  0.00000000 -0.00000000       0.003
   0.16666667  0.00000000 -0.00000000       0.003
   0.25000000 -0.00000000 -0.00000000       0.003
   0.33333333 -0.00000000 -0.00000000       0.003
   0.41666667  0.00000000 -0.00000000       0.003
   0.50000000 -0.00000000 -0.00000000       0.002
   0.08333333  0.08333333 -0.00000000       0.003
   0.16666667  0.08333333 -0.00000000       0.007
   0.25000000  0.08333333 -0.00000000       0.007
   0.33333333  0.08333333 -0.00000000       0.007
   0.41666667  0.08333333 -0.00000000       0.007
   0.50000000  0.08333333 -0.00000000       0.007
  -0.41666667  0.08333333  0.00000000       0.007
  -0.33333333  0.08333333  0.00000000       0.007
  -0.25000000  0.08333333  0.00000000       0.007
  -0.16666667  0.08333333  0.00000000       0.007
  -0.08333333  0.08333333  0.00000000       0.003
   0.16666667  0.16666667 -0.00000000       0.003
   0.25000000  0.16666667 -0.00000000       0.007
   0.33333333  0.16666667 -0.00000000       0.007
   0.41666667  0.16666667 -0.00000000       0.007
   0.50000000  0.16666667 -0.00000000       0.007
  -0.41666667  0.16666667  0.00000000       0.007
  -0.33333333  0.16666667  0.00000000       0.007
  -0.25000000  0.16666667  0.00000000       0.007
  -0.16666667  0.16666667  0.00000000       0.003
   0.25000000  0.25000000 -0.00000000       0.003
   0.33333333  0.25000000 -0.00000000       0.007
   0.41666667  0.25000000 -0.00000000       0.007
   0.50000000  0.25000000 -0.00000000       0.007
  -0.41666667  0.25000000  0.00000000       0.007
  -0.33333333  0.25000000  0.00000000       0.007
  -0.25000000  0.25000000  0.00000000       0.003
   0.33333333  0.33333333 -0.00000000       0.003
   0.41666667  0.33333333 -0.00000000       0.007
   0.50000000  0.33333333 -0.00000000       0.007
  -0.41666667  0.33333333 -0.00000000       0.007
  -0.33333333  0.33333333  0.00000000       0.003
   0.41666667  0.41666667 -0.00000000       0.003
   0.50000000  0.41666667 -0.00000000       0.007
  -0.41666667  0.41666667  0.00000000       0.003
   0.50000000  0.50000000 -0.00000000       0.002
   0.08333333  0.08333333  0.08333333       0.001
   0.16666667  0.08333333  0.08333333       0.003
   0.25000000  0.08333333  0.08333333       0.003
   0.33333333  0.08333333  0.08333333       0.003
   0.41666667  0.08333333  0.08333333       0.003
   0.50000000  0.08333333  0.08333333       0.003
  -0.41666667  0.08333333  0.08333333       0.003
  -0.33333333  0.08333333  0.08333333       0.003
  -0.25000000  0.08333333  0.08333333       0.003
  -0.16666667  0.08333333  0.08333333       0.003
  -0.08333333  0.08333333  0.08333333       0.003
   0.16666667  0.16666667  0.08333333       0.003
   0.25000000  0.16666667  0.08333333       0.007
   0.33333333  0.16666667  0.08333333       0.007
   0.41666667  0.16666667  0.08333333       0.007
   0.50000000  0.16666667  0.08333333       0.007
  -0.41666667  0.16666667  0.08333333       0.007
  -0.33333333  0.16666667  0.08333333       0.007
  -0.25000000  0.16666667  0.08333333       0.007
  -0.16666667  0.16666667  0.08333333       0.007
  -0.08333333  0.16666667  0.08333333       0.007
   0.25000000  0.25000000  0.08333333       0.003
   0.33333333  0.25000000  0.08333333       0.007
   0.41666667  0.25000000  0.08333333       0.007
   0.50000000  0.25000000  0.08333333       0.007
  -0.41666667  0.25000000  0.08333333       0.007
  -0.33333333  0.25000000  0.08333333       0.007
  -0.25000000  0.25000000  0.08333333       0.007
  -0.16666667  0.25000000  0.08333333       0.007
  -0.08333333  0.25000000  0.08333333       0.007
   0.33333333  0.33333333  0.08333333       0.003
   0.41666667  0.33333333  0.08333333       0.007
   0.50000000  0.33333333  0.08333333       0.007
  -0.41666667  0.33333333  0.08333333       0.007
  -0.33333333  0.33333333  0.08333333       0.007
  -0.25000000  0.33333333  0.08333333       0.007
  -0.16666667  0.33333333  0.08333333       0.007
  -0.08333333  0.33333333  0.08333333       0.007
   0.41666667  0.41666667  0.08333333       0.003
   0.50000000  0.41666667  0.08333333       0.007
  -0.41666667  0.41666667  0.08333333       0.007
  -0.33333333  0.41666667  0.08333333       0.007
  -0.25000000  0.41666667  0.08333333       0.007
  -0.16666667  0.41666667  0.08333333       0.007
  -0.08333333  0.41666667  0.08333333       0.007
   0.50000000  0.50000000  0.08333333       0.003
  -0.41666667  0.50000000  0.08333333       0.007
  -0.33333333  0.50000000  0.08333333       0.007
  -0.25000000  0.50000000  0.08333333       0.007
  -0.16666667  0.50000000  0.08333333       0.007
  -0.08333333  0.50000000  0.08333333       0.003
  -0.41666667 -0.41666667  0.08333333       0.003
  -0.33333333 -0.41666667  0.08333333       0.007
  -0.25000000 -0.41666667  0.08333333       0.007
  -0.16666667 -0.41666667  0.08333333       0.007
  -0.33333333 -0.33333333  0.08333333       0.003
  -0.25000000 -0.33333333  0.08333333       0.007
  -0.16666667 -0.33333333  0.08333333       0.007
  -0.25000000 -0.25000000  0.08333333       0.003
  -0.16666667 -0.25000000  0.08333333       0.007
  -0.16666667 -0.16666667  0.08333333       0.003
   0.16666667  0.16666667  0.16666667       0.001
   0.25000000  0.16666667  0.16666667       0.003
   0.33333333  0.16666667  0.16666667       0.003
   0.41666667  0.16666667  0.16666667       0.003
   0.50000000  0.16666667  0.16666667       0.003
  -0.41666667  0.16666667  0.16666667       0.003
  -0.33333333  0.16666667  0.16666667       0.003
  -0.25000000  0.16666667  0.16666667       0.003
  -0.16666667  0.16666667  0.16666667       0.003
   0.25000000  0.25000000  0.16666667       0.003
   0.33333333  0.25000000  0.16666667       0.007
   0.41666667  0.25000000  0.16666667       0.007
   0.50000000  0.25000000  0.16666667       0.007
  -0.41666667  0.25000000  0.16666667       0.007
  -0.33333333  0.25000000  0.16666667       0.007
  -0.25000000  0.25000000  0.16666667       0.007
  -0.16666667  0.25000000  0.16666667       0.007
   0.33333333  0.33333333  0.16666667       0.003
   0.41666667  0.33333333  0.16666667       0.007
   0.50000000  0.33333333  0.16666667       0.007
  -0.41666667  0.33333333  0.16666667       0.007
  -0.33333333  0.33333333  0.16666667       0.007
  -0.25000000  0.33333333  0.16666667       0.007
  -0.16666667  0.33333333  0.16666667       0.007
   0.41666667  0.41666667  0.16666667       0.003
   0.50000000  0.41666667  0.16666667       0.007
  -0.41666667  0.41666667  0.16666667       0.007
  -0.33333333  0.41666667  0.16666667       0.007
  -0.25000000  0.41666667  0.16666667       0.007
  -0.16666667  0.41666667  0.16666667       0.007
   0.50000000  0.50000000  0.16666667       0.003
  -0.41666667  0.50000000  0.16666667       0.007
  -0.33333333  0.50000000  0.16666667       0.007
  -0.25000000  0.50000000  0.16666667       0.007
  -0.16666667  0.50000000  0.16666667       0.003
  -0.41666667 -0.41666667  0.16666667       0.003
  -0.33333333 -0.41666667  0.16666667       0.007
  -0.25000000 -0.41666667  0.16666667       0.007
  -0.33333333 -0.33333333  0.16666667       0.003
  -0.25000000 -0.33333333  0.16666667       0.007
  -0.25000000 -0.25000000  0.16666667       0.003
   0.25000000  0.25000000  0.25000000       0.001
   0.33333333  0.25000000  0.25000000       0.003
   0.41666667  0.25000000  0.25000000       0.003
   0.50000000  0.25000000  0.25000000       0.003
  -0.41666667  0.25000000  0.25000000       0.003
  -0.33333333  0.25000000  0.25000000       0.003
  -0.25000000  0.25000000  0.25000000       0.003
   0.33333333  0.33333333  0.25000000       0.003
   0.41666667  0.33333333  0.25000000       0.007
   0.50000000  0.33333333  0.25000000       0.007
  -0.41666667  0.33333333  0.25000000       0.007
  -0.33333333  0.33333333  0.25000000       0.007
  -0.25000000  0.33333333  0.25000000       0.007
   0.41666667  0.41666667  0.25000000       0.003
   0.50000000  0.41666667  0.25000000       0.007
  -0.41666667  0.41666667  0.25000000       0.007
  -0.33333333  0.41666667  0.25000000       0.007
  -0.25000000  0.41666667  0.25000000       0.007
   0.50000000  0.50000000  0.25000000       0.003
  -0.41666667  0.50000000  0.25000000       0.007
  -0.33333333  0.50000000  0.25000000       0.007
  -0.25000000  0.50000000  0.25000000       0.003
  -0.41666667 -0.41666667  0.25000000       0.003
  -0.33333333 -0.41666667  0.25000000       0.007
  -0.33333333 -0.33333333  0.25000000       0.003
   0.33333333  0.33333333  0.33333333       0.001
   0.41666667  0.33333333  0.33333333       0.003
   0.50000000  0.33333333  0.33333333       0.003
  -0.41666667  0.33333333  0.33333333       0.003
  -0.33333333  0.33333333  0.33333333       0.003
   0.41666667  0.41666667  0.33333333       0.003
   0.50000000  0.41666667  0.33333333       0.007
  -0.41666667  0.41666667  0.33333333       0.007
  -0.33333333  0.41666667  0.33333333       0.007
   0.50000000  0.50000000  0.33333333       0.003
  -0.41666667  0.50000000  0.33333333       0.007
  -0.33333333  0.50000000  0.33333333       0.003
  -0.41666667 -0.41666667  0.33333333       0.003
   0.41666667  0.41666667  0.41666667       0.001
   0.50000000  0.41666667  0.41666667       0.003
  -0.41666667  0.41666667  0.41666667       0.003
   0.50000000  0.50000000  0.41666667       0.003
  -0.41666667  0.50000000  0.41666667       0.003
   0.50000000  0.50000000  0.50000000       0.001
 
 position of ions in fractional coordinates (direct lattice) 
   0.25000000  0.75000000  0.25000000
   0.00000000  0.00000000  0.50000000
   0.25000000  0.25000000  0.75000000
   0.00000000  0.50000000  0.00000000
   0.75000000  0.75000000  0.75000000
   0.50000000  0.00000000  0.00000000
   0.75000000  0.25000000  0.25000000
   0.50000000  0.50000000  0.50000000
 
 position of ions in cartesian coordinates  (Angst):
   1.03637550  2.71247250  0.89205200
   0.07147400  0.06867000  1.78410400
   1.03637550  0.99571750  2.67615600
   0.07147400  1.78542500  0.00000000
   2.89470450  2.78114250  2.67615600
   1.78685500  0.00000000  0.00000000
   2.75175650  0.92704750  0.89205200
   1.92980300  1.85409500  1.78410400
 


--------------------------------------------------------------------------------------------------------


 k-point  1 :   0.0000 0.0000 0.0000  plane waves:     817
 k-point  2 :   0.0833 0.0000-0.0000  plane waves:     816
 k-point  3 :   0.1667 0.0000-0.0000  plane waves:     820
 k-point  4 :   0.2500-0.0000-0.0000  plane waves:     831
 k-point  5 :   0.3333-0.0000-0.0000  plane waves:     832
 k-point  6 :   0.4167 0.0000-0.0000  plane waves:     828
 k-point  7 :   0.5000-0.0000-0.0000  plane waves:     834
 k-point  8 :   0.0833 0.0833-0.0000  plane waves:     815
 k-point  9 :   0.1667 0.0833-0.0000  plane waves:     815
 k-point 10 :   0.2500 0.0833-0.0000  plane waves:     822
 k-point 11 :   0.3333 0.0833-0.0000  plane waves:     823
 k-point 12 :   0.4167 0.0833-0.0000  plane waves:     826
 k-point 13 :   0.5000 0.0833-0.0000  plane waves:     829
 k-point 14 :  -0.4167 0.0833 0.0000  plane waves:     832
 k-point 15 :  -0.3333 0.0833 0.0000  plane waves:     833
 k-point 16 :  -0.2500 0.0833 0.0000  plane waves:     832
 k-point 17 :  -0.1667 0.0833 0.0000  plane waves:     822
 k-point 18 :  -0.0833 0.0833 0.0000  plane waves:     824
 k-point 19 :   0.1667 0.1667-0.0000  plane waves:     818
 k-point 20 :   0.2500 0.1667-0.0000  plane waves:     819
 k-point 21 :   0.3333 0.1667-0.0000  plane waves:     822
 k-point 22 :   0.4167 0.1667-0.0000  plane waves:     827
 k-point 23 :   0.5000 0.1667-0.0000  plane waves:     827
 k-point 24 :  -0.4167 0.1667 0.0000  plane waves:     827
 k-point 25 :  -0.3333 0.1667 0.0000  plane waves:     834
 k-point 26 :  -0.2500 0.1667 0.0000  plane waves:     824
 k-point 27 :  -0.1667 0.1667 0.0000  plane waves:     822
 k-point 28 :   0.2500 0.2500-0.0000  plane waves:     825
 k-point 29 :   0.3333 0.2500-0.0000  plane waves:     828
 k-point 30 :   0.4167 0.2500-0.0000  plane waves:     826
 k-point 31 :   0.5000 0.2500-0.0000  plane waves:     829
 k-point 32 :  -0.4167 0.2500 0.0000  plane waves:     830
 k-point 33 :  -0.3333 0.2500 0.0000  plane waves:     829
 k-point 34 :  -0.2500 0.2500 0.0000  plane waves:     826
 k-point 35 :   0.3333 0.3333-0.0000  plane waves:     826
 k-point 36 :   0.4167 0.3333-0.0000  plane waves:     826
 k-point 37 :   0.5000 0.3333-0.0000  plane waves:     829
 k-point 38 :  -0.4167 0.3333-0.0000  plane waves:     831
 k-point 39 :  -0.3333 0.3333 0.0000  plane waves:     838
 k-point 40 :   0.4167 0.4167-0.0000  plane waves:     823
 k-point 41 :   0.5000 0.4167-0.0000  plane waves:     827
 k-point 42 :  -0.4167 0.4167 0.0000  plane waves:     828
 k-point 43 :   0.5000 0.5000-0.0000  plane waves:     826
 k-point 44 :   0.0833 0.0833 0.0833  plane waves:     802
 k-point 45 :   0.1667 0.0833 0.0833  plane waves:     815
 k-point 46 :   0.2500 0.0833 0.0833  plane waves:     818
 k-point 47 :   0.3333 0.0833 0.0833  plane waves:     826
 k-point 48 :   0.4167 0.0833 0.0833  plane waves:     822
 k-point 49 :   0.5000 0.0833 0.0833  plane waves:     829
 k-point 50 :  -0.4167 0.0833 0.0833  plane waves:     833
 k-point 51 :  -0.3333 0.0833 0.0833  plane waves:     836
 k-point 52 :  -0.2500 0.0833 0.0833  plane waves:     831
 k-point 53 :  -0.1667 0.0833 0.0833  plane waves:     819
 k-point 54 :  -0.0833 0.0833 0.0833  plane waves:     821
 k-point 55 :   0.1667 0.1667 0.0833  plane waves:     807
 k-point 56 :   0.2500 0.1667 0.0833  plane waves:     816
 k-point 57 :   0.3333 0.1667 0.0833  plane waves:     817
 k-point 58 :   0.4167 0.1667 0.0833  plane waves:     823
 k-point 59 :   0.5000 0.1667 0.0833  plane waves:     823
 k-point 60 :  -0.4167 0.1667 0.0833  plane waves:     827
 k-point 61 :  -0.3333 0.1667 0.0833  plane waves:     831
 k-point 62 :  -0.2500 0.1667 0.0833  plane waves:     829
 k-point 63 :  -0.1667 0.1667 0.0833  plane waves:     826
 k-point 64 :  -0.0833 0.1667 0.0833  plane waves:     824
 k-point 65 :   0.2500 0.2500 0.0833  plane waves:     817
 k-point 66 :   0.3333 0.2500 0.0833  plane waves:     821
 k-point 67 :   0.4167 0.2500 0.0833  plane waves:     828
 k-point 68 :   0.5000 0.2500 0.0833  plane waves:     827
 k-point 69 :  -0.4167 0.2500 0.0833  plane waves:     832
 k-point 70 :  -0.3333 0.2500 0.0833  plane waves:     828
 k-point 71 :  -0.2500 0.2500 0.0833  plane waves:     830
 k-point 72 :  -0.1667 0.2500 0.0833  plane waves:     830
 k-point 73 :  -0.0833 0.2500 0.0833  plane waves:     831
 k-point 74 :   0.3333 0.3333 0.0833  plane waves:     815
 k-point 75 :   0.4167 0.3333 0.0833  plane waves:     825
 k-point 76 :   0.5000 0.3333 0.0833  plane waves:     831
 k-point 77 :  -0.4167 0.3333 0.0833  plane waves:     832
 k-point 78 :  -0.3333 0.3333 0.0833  plane waves:     828
 k-point 79 :  -0.2500 0.3333 0.0833  plane waves:     831
 k-point 80 :  -0.1667 0.3333 0.0833  plane waves:     830
 k-point 81 :  -0.0833 0.3333 0.0833  plane waves:     830
 k-point 82 :   0.4167 0.4167 0.0833  plane waves:     821
 k-point 83 :   0.5000 0.4167 0.0833  plane waves:     828
 k-point 84 :  -0.4167 0.4167 0.0833  plane waves:     832
 k-point 85 :  -0.3333 0.4167 0.0833  plane waves:     830
 k-point 86 :  -0.2500 0.4167 0.0833  plane waves:     827
 k-point 87 :  -0.1667 0.4167 0.0833  plane waves:     825
 k-point 88 :  -0.0833 0.4167 0.0833  plane waves:     824
 k-point 89 :   0.5000 0.5000 0.0833  plane waves:     829
 k-point 90 :  -0.4167 0.5000 0.0833  plane waves:     828
 k-point 91 :  -0.3333 0.5000 0.0833  plane waves:     834
 k-point 92 :  -0.2500 0.5000 0.0833  plane waves:     829
 k-point 93 :  -0.1667 0.5000 0.0833  plane waves:     824
 k-point 94 :  -0.0833 0.5000 0.0833  plane waves:     828
 k-point 95 :  -0.4167-0.4167 0.0833  plane waves:     824
 k-point 96 :  -0.3333-0.4167 0.0833  plane waves:     826
 k-point 97 :  -0.2500-0.4167 0.0833  plane waves:     828
 k-point 98 :  -0.1667-0.4167 0.0833  plane waves:     828
 k-point 99 :  -0.3333-0.3333 0.0833  plane waves:     822
 k-point ** :  -0.2500-0.3333 0.0833  plane waves:     824
 k-point ** :  -0.1667-0.3333 0.0833  plane waves:     828
 k-point ** :  -0.2500-0.2500 0.0833  plane waves:     820
 k-point ** :  -0.1667-0.2500 0.0833  plane waves:     825
 k-point ** :  -0.1667-0.1667 0.0833  plane waves:     820
 k-point ** :   0.1667 0.1667 0.1667  plane waves:     802
 k-point ** :   0.2500 0.1667 0.1667  plane waves:     807
 k-point ** :   0.3333 0.1667 0.1667  plane waves:     818
 k-point ** :   0.4167 0.1667 0.1667  plane waves:     820
 k-point ** :   0.5000 0.1667 0.1667  plane waves:     829
 k-point ** :  -0.4167 0.1667 0.1667  plane waves:     832
 k-point ** :  -0.3333 0.1667 0.1667  plane waves:     826
 k-point ** :  -0.2500 0.1667 0.1667  plane waves:     837
 k-point ** :  -0.1667 0.1667 0.1667  plane waves:     830
 k-point ** :   0.2500 0.2500 0.1667  plane waves:     816
 k-point ** :   0.3333 0.2500 0.1667  plane waves:     817
 k-point ** :   0.4167 0.2500 0.1667  plane waves:     819
 k-point ** :   0.5000 0.2500 0.1667  plane waves:     825
 k-point ** :  -0.4167 0.2500 0.1667  plane waves:     829
 k-point ** :  -0.3333 0.2500 0.1667  plane waves:     829
 k-point ** :  -0.2500 0.2500 0.1667  plane waves:     823
 k-point ** :  -0.1667 0.2500 0.1667  plane waves:     830
 k-point ** :   0.3333 0.3333 0.1667  plane waves:     821
 k-point ** :   0.4167 0.3333 0.1667  plane waves:     823
 k-point ** :   0.5000 0.3333 0.1667  plane waves:     824
 k-point ** :  -0.4167 0.3333 0.1667  plane waves:     830
 k-point ** :  -0.3333 0.3333 0.1667  plane waves:     830
 k-point ** :  -0.2500 0.3333 0.1667  plane waves:     828
 k-point ** :  -0.1667 0.3333 0.1667  plane waves:     825
 k-point ** :   0.4167 0.4167 0.1667  plane waves:     823
 k-point ** :   0.5000 0.4167 0.1667  plane waves:     825
 k-point ** :  -0.4167 0.4167 0.1667  plane waves:     836
 k-point ** :  -0.3333 0.4167 0.1667  plane waves:     834
 k-point ** :  -0.2500 0.4167 0.1667  plane waves:     826
 k-point ** :  -0.1667 0.4167 0.1667  plane waves:     823
 k-point ** :   0.5000 0.5000 0.1667  plane waves:     830
 k-point ** :  -0.4167 0.5000 0.1667  plane waves:     831
 k-point ** :  -0.3333 0.5000 0.1667  plane waves:     832
 k-point ** :  -0.2500 0.5000 0.1667  plane waves:     825
 k-point ** :  -0.1667 0.5000 0.1667  plane waves:     814
 k-point ** :  -0.4167-0.4167 0.1667  plane waves:     831
 k-point ** :  -0.3333-0.4167 0.1667  plane waves:     827
 k-point ** :  -0.2500-0.4167 0.1667  plane waves:     827
 k-point ** :  -0.3333-0.3333 0.1667  plane waves:     827
 k-point ** :  -0.2500-0.3333 0.1667  plane waves:     823
 k-point ** :  -0.2500-0.2500 0.1667  plane waves:     826
 k-point ** :   0.2500 0.2500 0.2500  plane waves:     817
 k-point ** :   0.3333 0.2500 0.2500  plane waves:     822
 k-point ** :   0.4167 0.2500 0.2500  plane waves:     828
 k-point ** :   0.5000 0.2500 0.2500  plane waves:     834
 k-point ** :  -0.4167 0.2500 0.2500  plane waves:     831
 k-point ** :  -0.3333 0.2500 0.2500  plane waves:     830
 k-point ** :  -0.2500 0.2500 0.2500  plane waves:     819
 k-point ** :   0.3333 0.3333 0.2500  plane waves:     820
 k-point ** :   0.4167 0.3333 0.2500  plane waves:     835
 k-point ** :   0.5000 0.3333 0.2500  plane waves:     831
 k-point ** :  -0.4167 0.3333 0.2500  plane waves:     830
 k-point ** :  -0.3333 0.3333 0.2500  plane waves:     825
 k-point ** :  -0.2500 0.3333 0.2500  plane waves:     827
 k-point ** :   0.4167 0.4167 0.2500  plane waves:     832
 k-point ** :   0.5000 0.4167 0.2500  plane waves:     828
 k-point ** :  -0.4167 0.4167 0.2500  plane waves:     831
 k-point ** :  -0.3333 0.4167 0.2500  plane waves:     828
 k-point ** :  -0.2500 0.4167 0.2500  plane waves:     829
 k-point ** :   0.5000 0.5000 0.2500  plane waves:     831
 k-point ** :  -0.4167 0.5000 0.2500  plane waves:     836
 k-point ** :  -0.3333 0.5000 0.2500  plane waves:     834
 k-point ** :  -0.2500 0.5000 0.2500  plane waves:     824
 k-point ** :  -0.4167-0.4167 0.2500  plane waves:     835
 k-point ** :  -0.3333-0.4167 0.2500  plane waves:     830
 k-point ** :  -0.3333-0.3333 0.2500  plane waves:     831
 k-point ** :   0.3333 0.3333 0.3333  plane waves:     814
 k-point ** :   0.4167 0.3333 0.3333  plane waves:     833
 k-point ** :   0.5000 0.3333 0.3333  plane waves:     829
 k-point ** :  -0.4167 0.3333 0.3333  plane waves:     825
 k-point ** :  -0.3333 0.3333 0.3333  plane waves:     831
 k-point ** :   0.4167 0.4167 0.3333  plane waves:     831
 k-point ** :   0.5000 0.4167 0.3333  plane waves:     831
 k-point ** :  -0.4167 0.4167 0.3333  plane waves:     829
 k-point ** :  -0.3333 0.4167 0.3333  plane waves:     832
 k-point ** :   0.5000 0.5000 0.3333  plane waves:     835
 k-point ** :  -0.4167 0.5000 0.3333  plane waves:     836
 k-point ** :  -0.3333 0.5000 0.3333  plane waves:     834
 k-point ** :  -0.4167-0.4167 0.3333  plane waves:     835
 k-point ** :   0.4167 0.4167 0.4167  plane waves:     814
 k-point ** :   0.5000 0.4167 0.4167  plane waves:     832
 k-point ** :  -0.4167 0.4167 0.4167  plane waves:     830
 k-point ** :   0.5000 0.5000 0.4167  plane waves:     837
 k-point ** :  -0.4167 0.5000 0.4167  plane waves:     834
 k-point ** :   0.5000 0.5000 0.5000  plane waves:     828

 maximum and minimum number of plane-waves per node :       224      188

 maximum number of plane-waves:       838
 maximum index in each direction: 
   IXMAX=    6   IYMAX=    6   IZMAX=    5
   IXMIN=   -6   IYMIN=   -6   IZMIN=   -6


 parallel 3D FFT for wavefunctions:
    minimum data exchange during FFTs selected (reduces bandwidth)
 parallel 3D FFT for charge:
    minimum data exchange during FFTs selected (reduces bandwidth)


 total amount of memory used by VASP MPI-rank0    37560. kBytes
=======================================================================

   base      :      30000. kBytes
   nonl-proj :       2591. kBytes
   fftplans  :        346. kBytes
   grid      :        481. kBytes
   one-center:          6. kBytes
   wavefun   :       4136. kBytes
 
     INWAV:  cpu time    0.0004: real time    0.0005
 Broyden mixing: mesh for mixing (old mesh)
   NGX = 11   NGY = 11   NGZ = 11
  (NGX  = 48   NGY  = 48   NGZ  = 48)
  gives a total of   1331 points

 initial charge density was supplied:
 charge density of overlapping atoms calculated
 number of electron      32.0000000 magnetization 
 keeping initial charge density in first step


--------------------------------------------------------------------------------------------------------


 Maximum index for augmentation-charges          281 (set IRDMAX)


--------------------------------------------------------------------------------------------------------


 First call to EWALD:  gamma=   0.496
 Maximum number of real-space cells 3x 3x 3
 Maximum number of reciprocal cells 3x 3x 3

    FEWALD:  cpu time    0.0054: real time    0.0054


--------------------------------------- Iteration      1(   1)  ---------------------------------------


    POTLOK:  cpu time    0.0263: real time    0.0309
    SETDIJ:  cpu time    0.0063: real time    0.0063
     EDDAV:  cpu time    9.2877: real time    9.2993
 BZINTS: Fermi energy: 18.602393; 32.000000 electrons
         Band energy: 121.323928;  BLOECHL correction: -0.171147
       DOS:  cpu time    0.1690: real time    0.1690
    --------------------------------------------
      LOOP:  cpu time    9.4894: real time    9.5056

 eigenvalue-minimisations  :  9080
 total energy-change (2. order) : 0.5762413E+02  (-0.1438998E+04)
 number of electron      32.0000000 magnetization 
 augmentation part       32.0000000 magnetization 

 Free energy of the ion-electron system (eV)
  ---------------------------------------------------
  alpha Z        PSCENC =       114.52249241
  Ewald energy   TEWEN  =     -1389.01311715
  -Hartree energ DENC   =       -71.34126203
  -exchange      EXHF   =         0.00000000
  -V(xc)+E(xc)   XCENC  =       114.31813635
  PAW double counting   =       302.65154477     -311.85538214
  entropy T*S    EENTRO =         0.00000000
  eigenvalues    EBANDS =       121.32392758
  atomic energy  EATOM  =      1177.01779097
  Solvation  Ediel_sol  =         0.00000000
  ---------------------------------------------------
  free energy    TOTEN  =        57.62413077 eV

  energy without entropy =       57.62413077  energy(sigma->0) =       57.62413077


--------------------------------------------------------------------------------------------------------




--------------------------------------- Iteration      1(   2)  ---------------------------------------


     EDDAV:  cpu time   11.6789: real time   11.6803
 BZINTS: Fermi energy:  8.996302; 32.000000 electrons
         Band energy:  -7.062801;  BLOECHL correction:  0.000000
       DOS:  cpu time    0.0471: real time    0.0471
    --------------------------------------------
      LOOP:  cpu time   11.7260: real time   11.7274

 eigenvalue-minimisations  : 12648
 total energy-change (2. order) :-0.1283867E+03  (-0.1215732E+03)
 number of electron      32.0000000 magnetization 
 augmentation part       32.0000000 magnetization 

 Free energy of the ion-electron system (eV)
  ---------------------------------------------------
  alpha Z        PSCENC =       114.52249241
  Ewald energy   TEWEN  =     -1389.01311715
  -Hartree energ DENC   =       -71.34126203
  -exchange      EXHF   =         0.00000000
  -V(xc)+E(xc)   XCENC  =       114.31813635
  PAW double counting   =       302.65154477     -311.85538214
  entropy T*S    EENTRO =         0.00000000
  eigenvalues    EBANDS =        -7.06280107
  atomic energy  EATOM  =      1177.01779097
  Solvation  Ediel_sol  =         0.00000000
  ---------------------------------------------------
  free energy    TOTEN  =       -70.76259789 eV

  energy without entropy =      -70.76259789  energy(sigma->0) =      -70.76259789


--------------------------------------------------------------------------------------------------------




--------------------------------------- Iteration      1(   3)  ---------------------------------------


     EDDAV:  cpu time   11.2111: real time   11.2150
 BZINTS: Fermi energy:  8.426190; 32.000000 electrons
         Band energy: -11.213783;  BLOECHL correction:  0.000000
       DOS:  cpu time    0.0421: real time    0.0421
    --------------------------------------------
      LOOP:  cpu time   11.2532: real time   11.2570

 eigenvalue-minimisations  : 11896
 total energy-change (2. order) :-0.4150982E+01  (-0.4131078E+01)
 number of electron      32.0000000 magnetization 
 augmentation part       32.0000000 magnetization 

 Free energy of the ion-electron system (eV)
  ---------------------------------------------------
  alpha Z        PSCENC =       114.52249241
  Ewald energy   TEWEN  =     -1389.01311715
  -Hartree energ DENC   =       -71.34126203
  -exchange      EXHF   =         0.00000000
  -V(xc)+E(xc)   XCENC  =       114.31813635
  PAW double counting   =       302.65154477     -311.85538214
  entropy T*S    EENTRO =         0.00000000
  eigenvalues    EBANDS =       -11.21378280
  atomic energy  EATOM  =      1177.01779097
  Solvation  Ediel_sol  =         0.00000000
  ---------------------------------------------------
  free energy    TOTEN  =       -74.91357962 eV

  energy without entropy =      -74.91357962  energy(sigma->0) =      -74.91357962


--------------------------------------------------------------------------------------------------------




--------------------------------------- Iteration      1(   4)  ---------------------------------------


     EDDAV:  cpu time   10.8061: real time   10.8069
 BZINTS: Fermi energy:  8.351661; 32.000000 electrons
         Band energy: -11.253819;  BLOECHL correction:  0.000000
       DOS:  cpu time    0.0377: real time    0.0377
    --------------------------------------------
      LOOP:  cpu time   10.8438: real time   10.8446

 eigenvalue-minimisations  : 11264
 total energy-change (2. order) :-0.4003640E-01  (-0.4000847E-01)
 number of electron      32.0000000 magnetization 
 augmentation part       32.0000000 magnetization 

 Free energy of the ion-electron system (eV)
  ---------------------------------------------------
  alpha Z        PSCENC =       114.52249241
  Ewald energy   TEWEN  =     -1389.01311715
  -Hartree energ DENC   =       -71.34126203
  -exchange      EXHF   =         0.00000000
  -V(xc)+E(xc)   XCENC  =       114.31813635
  PAW double counting   =       302.65154477     -311.85538214
  entropy T*S    EENTRO =         0.00000000
  eigenvalues    EBANDS =       -11.25381920
  atomic energy  EATOM  =      1177.01779097
  Solvation  Ediel_sol  =         0.00000000
  ---------------------------------------------------
  free energy    TOTEN  =       -74.95361602 eV

  energy without entropy =      -74.95361602  energy(sigma->0) =      -74.95361602


--------------------------------------------------------------------------------------------------------




--------------------------------------- Iteration      1(   5)  ---------------------------------------


     EDDAV:  cpu time   12.3787: real time   12.3801
 BZINTS: Fermi energy:  8.432741; 32.000000 electrons
         Band energy: -11.254645;  BLOECHL correction:  0.000000
       DOS:  cpu time    0.0420: real time    0.0420
    CHARGE:  cpu time    0.2799: real time    0.2799
    MIXING:  cpu time    0.0017: real time    0.0017
    --------------------------------------------
      LOOP:  cpu time   12.7023: real time   12.7038

 eigenvalue-minimisations  : 11920
 total energy-change (2. order) :-0.8258396E-03  (-0.8254184E-03)
 number of electron      32.0000015 magnetization 
 augmentation part        0.7873201 magnetization 

 Broyden mixing:
  rms(total) = 0.95335E+00    rms(broyden)= 0.95316E+00
  rms(prec ) = 0.22565E+01
  weight for this iteration     100.00

 Free energy of the ion-electron system (eV)
  ---------------------------------------------------
  alpha Z        PSCENC =       114.52249241
  Ewald energy   TEWEN  =     -1389.01311715
  -Hartree energ DENC   =       -71.34126203
  -exchange      EXHF   =         0.00000000
  -V(xc)+E(xc)   XCENC  =       114.31813635
  PAW double counting   =       302.65154477     -311.85538214
  entropy T*S    EENTRO =         0.00000000
  eigenvalues    EBANDS =       -11.25464504
  atomic energy  EATOM  =      1177.01779097
  Solvation  Ediel_sol  =         0.00000000
  ---------------------------------------------------
  free energy    TOTEN  =       -74.95444186 eV

  energy without entropy =      -74.95444186  energy(sigma->0) =      -74.95444186


--------------------------------------------------------------------------------------------------------




--------------------------------------- Iteration      1(   6)  ---------------------------------------


    POTLOK:  cpu time    0.0209: real time    0.0212
    SETDIJ:  cpu time    0.0057: real time    0.0057
     EDDAV:  cpu time   10.1904: real time   10.1913
 BZINTS: Fermi energy:  9.046005; 32.000000 electrons
         Band energy:   5.081670;  BLOECHL correction:  0.000000
       DOS:  cpu time    0.0377: real time    0.0377
    CHARGE:  cpu time    0.2606: real time    0.2606
    MIXING:  cpu time    0.0018: real time    0.0018
    --------------------------------------------
      LOOP:  cpu time   10.5170: real time   10.5182

 eigenvalue-minimisations  : 10272
 total energy-change (2. order) : 0.1926326E+01  (-0.1288271E+00)
 number of electron      32.0000014 magnetization 
 augmentation part        0.7693046 magnetization 

 Broyden mixing:
  rms(total) = 0.52217E+00    rms(broyden)= 0.52215E+00
  rms(prec ) = 0.12182E+01
  weight for this iteration     100.00

 eigenvalues of (default mixing * dielectric matrix)
  average eigenvalue GAMMA=   2.1643
  2.1643

 Free energy of the ion-electron system (eV)
  ---------------------------------------------------
  alpha Z        PSCENC =       114.52249241
  Ewald energy   TEWEN  =     -1389.01311715
  -Hartree energ DENC   =       -86.63153213
  -exchange      EXHF   =         0.00000000
  -V(xc)+E(xc)   XCENC  =       115.74140412
  PAW double counting   =       393.90653954     -403.65336310
  entropy T*S    EENTRO =         0.00000000
  eigenvalues    EBANDS =         5.08166954
  atomic energy  EATOM  =      1177.01779097
  Solvation  Ediel_sol  =         0.00000000
  ---------------------------------------------------
  free energy    TOTEN  =       -73.02811580 eV

  energy without entropy =      -73.02811580  energy(sigma->0) =      -73.02811580


--------------------------------------------------------------------------------------------------------




--------------------------------------- Iteration      1(   7)  ---------------------------------------


    POTLOK:  cpu time    0.0231: real time    0.0237
    SETDIJ:  cpu time    0.0060: real time    0.0060
     EDDAV:  cpu time   10.5408: real time   10.5417
 BZINTS: Fermi energy:  9.844583; 32.000000 electrons
         Band energy:  23.880553;  BLOECHL correction:  0.000000
       DOS:  cpu time    0.0422: real time    0.0422
    CHARGE:  cpu time    0.2708: real time    0.2708
    MIXING:  cpu time    0.0020: real time    0.0020
    --------------------------------------------
      LOOP:  cpu time   10.8849: real time   10.8864

 eigenvalue-minimisations  : 10848
 total energy-change (2. order) : 0.6476440E+00  (-0.1469611E+00)
 number of electron      32.0000014 magnetization 
 augmentation part        0.7499535 magnetization 

 Broyden mixing:
  rms(total) = 0.70634E-01    rms(broyden)= 0.70294E-01
  rms(prec ) = 0.12376E+00
  weight for this iteration     100.00

 eigenvalues of (default mixing * dielectric matrix)
  average eigenvalue GAMMA=   2.2739
  2.0244  2.5234

 Free energy of the ion-electron system (eV)
  ---------------------------------------------------
  alpha Z        PSCENC =       114.52249241
  Ewald energy   TEWEN  =     -1389.01311715
  -Hartree energ DENC   =      -106.10186671
  -exchange      EXHF   =         0.00000000
  -V(xc)+E(xc)   XCENC  =       117.57545330
  PAW double counting   =       517.80290279     -528.06468060
  entropy T*S    EENTRO =         0.00000000
  eigenvalues    EBANDS =        23.88055314
  atomic energy  EATOM  =      1177.01779097
  Solvation  Ediel_sol  =         0.00000000
  ---------------------------------------------------
  free energy    TOTEN  =       -72.38047185 eV

  energy without entropy =      -72.38047185  energy(sigma->0) =      -72.38047185


--------------------------------------------------------------------------------------------------------




--------------------------------------- Iteration      1(   8)  ---------------------------------------


    POTLOK:  cpu time    0.0228: real time    0.0232
    SETDIJ:  cpu time    0.0060: real time    0.0060
     EDDAV:  cpu time   10.8568: real time   10.8577
 BZINTS: Fermi energy:  9.852371; 32.000000 electrons
         Band energy:  24.134670;  BLOECHL correction:  0.000000
       DOS:  cpu time    0.0425: real time    0.0425
    CHARGE:  cpu time    0.2625: real time    0.2625
    MIXING:  cpu time    0.0018: real time    0.0018
    --------------------------------------------
      LOOP:  cpu time   11.1923: real time   11.1936

 eigenvalue-minimisations  : 11304
 total energy-change (2. order) :-0.7867759E-02  (-0.3478297E-02)
 number of electron      32.0000014 magnetization 
 augmentation part        0.7504230 magnetization 

 Broyden mixing:
  rms(total) = 0.76497E-02    rms(broyden)= 0.75398E-02
  rms(prec ) = 0.13042E-01
  weight for this iteration     100.00

 eigenvalues of (default mixing * dielectric matrix)
  average eigenvalue GAMMA=   2.0569
  1.4059  2.6520  2.1129

 Free energy of the ion-electron system (eV)
  ---------------------------------------------------
  alpha Z        PSCENC =       114.52249241
  Ewald energy   TEWEN  =     -1389.01311715
  -Hartree energ DENC   =      -106.54057265
  -exchange      EXHF   =         0.00000000
  -V(xc)+E(xc)   XCENC  =       117.62202809
  PAW double counting   =       527.31686579     -537.44849688
[...]

 k-point   177 :       0.5000    0.4167    0.3333
  band No.  band energies     occupation 
      1      -7.5377      2.00000
      2      -6.8364      2.00000
      3      -5.7548      2.00000
      4      -5.6302      2.00000
      5      -3.1954      2.00000
      6      -3.0677      2.00000
      7      -2.2717      2.00000
      8      -2.0273      2.00000
      9       5.4878      2.00000
     10       5.5863      2.00000
     11       6.2808      2.00000
     12       6.3121      2.00000
     13       6.3424      2.00000
     14       6.8374      2.00000
     15       6.8889      2.00000
     16       7.4018      2.00000
     17      17.0256      0.00000
     18      17.2280      0.00000
     19      17.5724      0.00000
     20      18.2913      0.00000
     21      18.6169      0.00000
     22      18.8204      0.00000
     23      18.8866      0.00000
     24      18.9373      0.00000

 k-point   178 :      -0.4167    0.4167    0.3333
  band No.  band energies     occupation 
      1      -7.5143      2.00000
      2      -6.9556      2.00000
      3      -6.2344      2.00000
      4      -5.3667      2.00000
      5      -3.3054      2.00000
      6      -2.6984      2.00000
      7      -2.4545      2.00000
      8      -1.2284      2.00000
      9       5.2064      2.00000
     10       5.7056      2.00000
     11       6.1570      2.00000
     12       6.1872      2.00000
     13       6.2949      2.00000
     14       6.6151      2.00000
     15       6.8863      2.00000
     16       7.1322      2.00000
     17      16.8445      0.00000
     18      16.9325      0.00000
     19      17.1716      0.00000
     20      18.1083      0.00000
     21      18.6090      0.00000
     22      18.7549      0.00000
     23      18.9104      0.00000
     24      19.1381      0.00000

 k-point   179 :      -0.3333    0.4167    0.3333
  band No.  band energies     occupation 
      1      -8.0962      2.00000
      2      -6.6892      2.00000
      3      -6.3976      2.00000
      4      -5.4478      2.00000
      5      -2.8712      2.00000
      6      -2.8603      2.00000
      7      -1.6577      2.00000
      8      -0.3121      2.00000
      9       4.6566      2.00000
     10       5.3628      2.00000
     11       5.6342      2.00000
     12       5.9447      2.00000
     13       5.9473      2.00000
     14       6.4373      2.00000
     15       6.8018      2.00000
     16       7.0718      2.00000
     17      16.6746      0.00000
     18      16.7681      0.00000
     19      16.9280      0.00000
     20      17.8868      0.00000
     21      18.5635      0.00000
     22      18.7055      0.00000
     23      18.7085      0.00000
     24      19.2306      0.00000

 k-point   180 :       0.5000    0.5000    0.3333
  band No.  band energies     occupation 
      1      -7.0783      2.00000
      2      -6.3576      2.00000
      3      -6.2428      2.00000
      4      -6.2428      2.00000
      5      -2.8184      2.00000
      6      -2.6857      2.00000
      7      -2.6857      2.00000
      8      -2.5659      2.00000
      9       5.8579      2.00000
     10       5.9118      2.00000
     11       5.9118      2.00000
     12       6.5726      2.00000
     13       6.6926      2.00000
     14       6.7534      2.00000
     15       6.7534      2.00000
     16       7.3393      2.00000
     17      17.0590      0.00000
     18      17.0590      0.00000
     19      17.5575      0.00000
     20      18.4734      0.00000
     21      18.5988      0.00000
     22      18.5989      0.00000
     23      18.7173      0.00000
     24      18.8620      0.00000

 k-point   181 :      -0.4167    0.5000    0.3333
  band No.  band energies     occupation 
      1      -6.9392      2.00000
      2      -6.8765      2.00000
      3      -6.6382      2.00000
      4      -5.6474      2.00000
      5      -3.1303      2.00000
      6      -3.1154      2.00000
      7      -1.9370      2.00000
      8      -1.8705      2.00000
      9       5.3907      2.00000
     10       6.1273      2.00000
     11       6.1667      2.00000
     12       6.1779      2.00000
     13       6.4615      2.00000
     14       6.7220      2.00000
     15       6.8295      2.00000
     16       6.9762      2.00000
     17      16.9542      0.00000
     18      17.1465      0.00000
     19      17.2997      0.00000
     20      18.2101      0.00000
     21      18.3679      0.00000
     22      18.4680      0.00000
     23      18.7699      0.00000
     24      18.8997      0.00000

 k-point   182 :      -0.3333    0.5000    0.3333
  band No.  band energies     occupation 
      1      -7.4411      2.00000
      2      -7.4411      2.00000
      3      -6.3150      2.00000
      4      -5.2363      2.00000
      5      -3.1759      2.00000
      6      -3.0659      2.00000
      7      -1.0435      2.00000
      8      -1.0435      2.00000
      9       4.6793      2.00000
     10       5.4612      2.00000
     11       6.0852      2.00000
     12       6.3318      2.00000
     13       6.3318      2.00000
     14       6.4962      2.00000
     15       6.5354      2.00000
     16       6.5354      2.00000
     17      16.9134      0.00000
     18      16.9134      0.00000
     19      17.3451      0.00000
     20      17.8830      0.00000
     21      18.3757      0.00000
     22      18.7716      0.00000
     23      18.7716      0.00000
     24      19.3309      0.00000

 k-point   183 :      -0.4167   -0.4167    0.3333
  band No.  band energies     occupation 
      1      -7.5678      2.00000
      2      -6.4337      2.00000
      3      -6.1654      2.00000
      4      -6.1654      2.00000
      5      -3.1905      2.00000
      6      -2.5030      2.00000
      7      -2.5030      2.00000
      8      -1.1469      2.00000
      9       5.5344      2.00000
     10       5.5344      2.00000
     11       5.8172      2.00000
     12       6.3767      2.00000
     13       6.3767      2.00000
     14       6.5631      2.00000
     15       6.8152      2.00000
     16       7.0282      2.00000
     17      16.9615      0.00000
     18      16.9615      0.00000
     19      17.1892      0.00000
     20      18.0235      0.00000
     21      18.4185      0.00000
     22      18.4185      0.00000
     23      18.6153      0.00000
     24      18.6159      0.00000

 k-point   184 :       0.4167    0.4167    0.4167
  band No.  band energies     occupation 
      1      -7.6620      2.00000
      2      -5.7484      2.00000
      3      -5.7484      2.00000
      4      -5.7484      2.00000
      5      -3.3158      2.00000
      6      -3.3158      2.00000
      7      -3.3158      2.00000
      8      -2.3916      2.00000
      9       6.1830      2.00000
     10       6.1830      2.00000
     11       6.1830      2.00000
     12       6.4233      2.00000
     13       6.4233      2.00000
     14       6.4233      2.00000
     15       7.5568      2.00000
     16       7.5568      2.00000
     17      17.2734      0.00000
     18      17.2734      0.00000
     19      17.2734      0.00000
     20      18.4480      0.00000
     21      18.4480      0.00000
     22      18.6618      0.00000
     23      18.6618      0.00000
     24      18.6618      0.00000

 k-point   185 :       0.5000    0.4167    0.4167
  band No.  band energies     occupation 
      1      -7.2002      2.00000
      2      -6.3645      2.00000
      3      -5.6022      2.00000
      4      -5.6022      2.00000
      5      -3.5465      2.00000
      6      -3.5465      2.00000
      7      -2.9426      2.00000
      8      -2.8031      2.00000
      9       6.2587      2.00000
     10       6.2587      2.00000
     11       6.4963      2.00000
     12       6.4963      2.00000
     13       6.6199      2.00000
     14       6.8011      2.00000
     15       7.3405      2.00000
     16       7.3698      2.00000
     17      16.9590      0.00000
     18      17.2038      0.00000
     19      17.2038      0.00000
     20      18.3537      0.00000
     21      18.5497      0.00000
     22      18.7109      0.00000
     23      18.7432      0.00000
     24      18.7433      0.00000

 k-point   186 :      -0.4167    0.4167    0.4167
  band No.  band energies     occupation 
      1      -7.0010      2.00000
      2      -6.7577      2.00000
      3      -5.8071      2.00000
      4      -5.8071      2.00000
      5      -3.2417      2.00000
      6      -3.2085      2.00000
      7      -3.2085      2.00000
      8      -2.0487      2.00000
      9       6.0746      2.00000
     10       6.0746      2.00000
     11       6.4350      2.00000
     12       6.4350      2.00000
     13       6.7568      2.00000
     14       6.8266      2.00000
     15       6.9383      2.00000
     16       7.0851      2.00000
     17      16.8869      0.00000
     18      17.0392      0.00000
     19      17.0392      0.00000
     20      18.2168      0.00000
     21      18.5741      0.00000
     22      18.6604      0.00000
     23      18.6612      0.00000
     24      18.6835      0.00000

 k-point   187 :       0.5000    0.5000    0.4167
  band No.  band energies     occupation 
      1      -6.8782      2.00000
      2      -5.9273      2.00000
      3      -5.8859      2.00000
      4      -5.8859      2.00000
      5      -3.3702      2.00000
      6      -3.3702      2.00000
      7      -3.3671      2.00000
      8      -3.3278      2.00000
      9       6.4956      2.00000
     10       6.4956      2.00000
     11       6.5668      2.00000
     12       6.6923      2.00000
     13       6.7974      2.00000
     14       6.7974      2.00000
     15       7.2180      2.00000
     16       7.4200      2.00000
     17      16.9517      0.00000
     18      16.9517      0.00000
     19      17.1005      0.00000
     20      18.5038      0.00000
     21      18.5948      0.00000
     22      18.6358      0.00000
     23      18.6527      0.00000
     24      18.6534      0.00000

 k-point   188 :      -0.4167    0.5000    0.4167
  band No.  band energies     occupation 
      1      -6.6719      2.00000
      2      -6.4103      2.00000
      3      -6.4103      2.00000
      4      -5.5892      2.00000
      5      -3.5362      2.00000
      6      -3.4430      2.00000
      7      -2.7315      2.00000
      8      -2.7315      2.00000
      9       6.0980      2.00000
     10       6.6127      2.00000
     11       6.6127      2.00000
     12       6.6447      2.00000
     13       6.7228      2.00000
     14       6.7228      2.00000
     15       6.8665      2.00000
     16       7.2060      2.00000
     17      16.9880      0.00000
     18      16.9880      0.00000
     19      17.0250      0.00000
     20      18.3982      0.00000
     21      18.4284      0.00000
     22      18.6277      0.00000
     23      18.6320      0.00000
     24      18.8174      0.00000

 k-point   189 :       0.5000    0.5000    0.5000
  band No.  band energies     occupation 
      1      -6.7912      2.00000
      2      -5.7071      2.00000
      3      -5.7071      2.00000
      4      -5.7071      2.00000
      5      -3.6589      2.00000
      6      -3.6589      2.00000
      7      -3.6589      2.00000
      8      -3.5705      2.00000
      9       6.6923      2.00000
     10       6.6923      2.00000
     11       6.6923      2.00000
     12       6.8276      2.00000
     13       6.8276      2.00000
     14       6.8276      2.00000
     15       7.4501      2.00000
     16       7.4501      2.00000
     17      16.9039      0.00000
     18      16.9039      0.00000
     19      16.9039      0.00000
     20      18.5133      0.00000
     21      18.5134      0.00000
     22      18.6303      0.00000
     23      18.6303      0.00000
     24      18.6308      0.00000


--------------------------------------------------------------------------------------------------------


 soft charge-density along one line, spin component           1
         0         1         2         3         4         5         6         7         8         9
 total charge-density along one line
 
 pseudopotential strength for first ion, spin component:           1
  9.442  -0.005   0.000   0.000   0.000  -0.000  -0.000  -0.000
 -0.005  -0.002   0.000   0.000   0.000  -0.000  -0.000  -0.000
  0.000   0.000  -3.662  -0.000  -0.000  -0.009   0.000   0.000
  0.000   0.000  -0.000  -3.662  -0.000   0.000  -0.009   0.000
  0.000   0.000  -0.000  -0.000  -3.662   0.000   0.000  -0.009
 -0.000  -0.000  -0.009   0.000   0.000  -0.757  -0.000  -0.000
 -0.000  -0.000   0.000  -0.009   0.000  -0.000  -0.757  -0.000
 -0.000  -0.000   0.000   0.000  -0.009  -0.000  -0.000  -0.757
 total augmentation occupancy for first ion, spin component:           1
  1.425  -1.033   0.012   0.011   0.012   0.007   0.006   0.007
 -1.033   1.033  -0.033  -0.032  -0.034  -0.010  -0.010  -0.011
  0.012  -0.033   1.099  -0.025  -0.027   0.185  -0.004  -0.004
  0.011  -0.032  -0.025   1.101  -0.026  -0.004   0.185  -0.004
  0.012  -0.034  -0.027  -0.026   1.097  -0.004  -0.004   0.184
  0.007  -0.010   0.185  -0.004  -0.004   0.037  -0.001  -0.001
  0.006  -0.010  -0.004   0.185  -0.004  -0.001   0.037  -0.001
  0.007  -0.011  -0.004  -0.004   0.184  -0.001  -0.001   0.036


------------------------ aborting loop because EDIFF is reached ----------------------------------------


    CHARGE:  cpu time    0.2557: real time    0.2557
    FORLOC:  cpu time    0.0020: real time    0.0020
    FORNL :  cpu time    0.4472: real time    0.4472
    STRESS:  cpu time    1.0221: real time    1.0224
    FORHAR:  cpu time    0.0057: real time    0.0057
    MIXING:  cpu time    0.0023: real time    0.0023
    OFIELD:  cpu time    0.0001: real time    0.0001

  FORCE on cell =-STRESS in cart. coord.  units (eV):
  Direction    XX          YY          ZZ          XY          YZ          ZX
  --------------------------------------------------------------------------------------
  Alpha Z   114.52249   114.52249   114.52249
  Ewald    -464.66399  -462.94136  -461.41013   -21.51549   -19.89108   -20.70329
  Hartree    35.05441    35.53094    35.95452    -5.95176    -5.50241    -5.72709
  E(xc)    -119.65215  -119.65004  -119.64815    -0.02645    -0.02445    -0.02545
  Local     -45.46025   -47.51540   -49.34222    25.66866    23.73069    24.69968
  n-local   -28.08059   -28.44923   -28.22890     0.88745     1.27964     0.50658
  augment    -2.83911    -2.83924    -2.83935     0.00159     0.00147     0.00153
  Kinetic   504.68460   510.09555   517.51811    -5.13806    -8.37895    -1.83078
  Fock        0.00000     0.00000     0.00000     0.00000     0.00000     0.00000
  -------------------------------------------------------------------------------------
  Total      -0.87312    -0.36606     0.08466    -6.33322    -5.85506    -6.09414
  in kB     -30.72155   -12.88009     2.97899  -222.84037  -206.01606  -214.42828
  external pressure =      -13.54 kB  Pullay stress =        0.00 kB


 VOLUME and BASIS-vectors are now :
 -----------------------------------------------------------------------------
  energy-cutoff  :      400.00
  volume of cell :       45.53
      direct lattice vectors                 reciprocal lattice vectors
     3.573710000  0.000000000  0.000000000     0.279821250 -0.011201783 -0.010778922
     0.142948000  3.570850000  0.000000000     0.000000000  0.280045367 -0.010778921
     0.142948000  0.137340000  3.568208000     0.000000000  0.000000000  0.280252721

  length of vectors
     3.573710000  3.573710096  3.573710220     0.280252738  0.280252730  0.280252721


 FORCES acting on ions
    electron-ion (+dipol)            ewald-force                    non-local-force                 convergence-correction
 -----------------------------------------------------------------------------------------------
   0.728E+01 0.699E+01 0.673E+01   -.738E+01 -.709E+01 -.682E+01   0.975E-01 0.936E-01 0.901E-01   0.155E-04 0.149E-04 0.143E-04
   -.728E+01 -.699E+01 -.673E+01   0.738E+01 0.709E+01 0.682E+01   -.975E-01 -.936E-01 -.901E-01   -.155E-04 -.149E-04 -.143E-04
   0.728E+01 0.699E+01 0.673E+01   -.738E+01 -.709E+01 -.682E+01   0.975E-01 0.936E-01 0.901E-01   0.155E-04 0.149E-04 0.143E-04
   -.728E+01 -.699E+01 -.673E+01   0.738E+01 0.709E+01 0.682E+01   -.975E-01 -.936E-01 -.901E-01   -.155E-04 -.149E-04 -.143E-04
   0.728E+01 0.699E+01 0.673E+01   -.738E+01 -.709E+01 -.682E+01   0.975E-01 0.936E-01 0.901E-01   0.155E-04 0.149E-04 0.143E-04
   -.728E+01 -.699E+01 -.673E+01   0.738E+01 0.709E+01 0.682E+01   -.975E-01 -.936E-01 -.901E-01   -.155E-04 -.149E-04 -.143E-04
   0.728E+01 0.699E+01 0.673E+01   -.738E+01 -.709E+01 -.682E+01   0.975E-01 0.936E-01 0.901E-01   0.155E-04 0.149E-04 0.143E-04
   -.728E+01 -.699E+01 -.673E+01   0.738E+01 0.709E+01 0.682E+01   -.975E-01 -.936E-01 -.901E-01   -.155E-04 -.149E-04 -.143E-04
 -----------------------------------------------------------------------------------------------
   0.175E-12 0.862E-13 0.145E-12   0.133E-13 -.178E-14 -.888E-15   0.278E-16 -.694E-16 -.278E-16   -.204E-13 -.125E-13 -.417E-13
 
 
 POSITION                                       TOTAL-FORCE (eV/Angst)
 -----------------------------------------------------------------------------------
      1.03638      2.71247      0.89205        -0.000985     -0.000946     -0.000911
      0.07147      0.06867      1.78410         0.000985      0.000946      0.000911
      1.03638      0.99572      2.67616        -0.000985     -0.000946     -0.000911
      0.07147      1.78543      0.00000         0.000985      0.000946      0.000911
      2.89470      2.78114      2.67616        -0.000985     -0.000946     -0.000911
      1.78686      0.00000      0.00000         0.000985      0.000946      0.000911
      2.75176      0.92705      0.89205        -0.000985     -0.000946     -0.000911
      1.92980      1.85410      1.78410         0.000985      0.000946      0.000911
 -----------------------------------------------------------------------------------
    total drift:                                0.000000      0.000000      0.000000


--------------------------------------------------------------------------------------------------------



  FREE ENERGIE OF THE ION-ELECTRON SYSTEM (eV)
  ---------------------------------------------------
  free  energy   TOTEN  =       -72.38863417 eV

  energy  without entropy=      -72.38863417  energy(sigma->0) =      -72.38863417
 


--------------------------------------------------------------------------------------------------------


    POTLOK:  cpu time    0.0277: real time    0.0277


--------------------------------------------------------------------------------------------------------


     LOOP+:  cpu time  131.2998: real time  131.3404
    4ORBIT:  cpu time    0.0000: real time    0.0000
 BZINTS: Fermi energy:  9.848883; 32.000000 electrons
         Band energy:  24.125318;  BLOECHL correction:  0.000000

 total amount of memory used by VASP MPI-rank0    37560. kBytes
=======================================================================

   base      :      30000. kBytes
   nonl-proj :       2591. kBytes
   fftplans  :        346. kBytes
   grid      :        481. kBytes
   one-center:          6. kBytes
   wavefun   :       4136. kBytes
 
  
  
 General timing and accounting informations for this job:
 ========================================================
  
                  Total CPU time used (sec):      134.838
                            User time (sec):      130.693
                          System time (sec):        4.145
                         Elapsed time (sec):      134.979
  
                   Maximum memory used (kb):      193692.
                   Average memory used (kb):           0.
  
                          Minor page faults:        36878
                          Major page faults:           36
                 Voluntary context switches:          786
