<?xml version="1.0" encoding="ISO-8859-1"?>
<modeling>
 <generator>
  <i name="program" type="string">vasp </i>
  <i name="version" type="string">5.4.4.18Apr17-6-g9f103f2a35  </i>
  <i name="subversion" type="string">(build Mar 12 2022 03:36:41) complex            parallel </i>
  <i name="platform" type="string">IFC19.0.3.199_CrayMPICH7.7.19 </i>
  <i name="date" type="string">2022 11 30 </i>
  <i name="time" type="string">12:54:45 </i>
 </generator>
 <incar>
  <i type="int" name="ISTART">     0</i>
  <i type="string" name="PREC">accurate</i>
  <i name="EDIFF">      0.00000100</i>
  <i name="POTIM">      0.02000000</i>
  <i type="int" name="ISMEAR">    -5</i>
  <i name="SIGMA">      0.06000000</i>
  <i type="logical" name="LWAVE"> F  </i>
  <i type="logical" name="LCHARG"> F  </i>
  <v type="int" name="KPOINT_BSE">    -1     0     0     0</v>
 </incar>
 <structure name="primitive_cell" >
  <crystal>
   <varray name="basis" >
    <v>      -0.14294800      -1.85409500      -1.78410400 </v>
    <v>      -1.85832900      -1.78542500      -0.00000000 </v>
    <v>      -1.85832900      -0.06867000      -1.78410400 </v>
   </varray>
   <i name="volume">     11.38363824 </i>
   <varray name="rec_basis" >
    <v>       0.27982125      -0.29124715      -0.28025272 </v>
    <v>      -0.27982125      -0.26884358       0.30181056 </v>
    <v>      -0.27982125       0.29124715      -0.28025272 </v>
   </varray>
  </crystal>
  <varray name="positions" >
   <v>       0.25000000       0.25000000       0.25000000 </v>
   <v>      -0.50000000      -0.50000000      -0.50000000 </v>
  </varray>
 </structure>
 <varray name="primitive_index" >
  <v type="int" >        1 </v>
  <v type="int" >        2 </v>
 </varray>
 <kpoints>
  <generation param="Gamma">
   <v type="int" name="divisions">      12       12       12 </v>
   <v name="usershift">      0.00000000       0.00000000       0.00000000 </v>
   <v name="genvec1">      0.08333333      -0.00000000       0.00000000 </v>
   <v name="genvec2">      0.00000000       0.08333333      -0.00000000 </v>
   <v name="genvec3">      0.00000000       0.00000000       0.08333333 </v>
   <v name="shift">      0.00000000       0.00000000       0.00000000 </v>
  </generation>
  <varray name="kpointlist" >
   <v>       0.00000000       0.00000000       0.00000000 </v>
   <v>       0.08333333       0.00000000      -0.00000000 </v>
   <v>       0.16666667       0.00000000      -0.00000000 </v>
   <v>       0.25000000      -0.00000000      -0.00000000 </v>
   <v>       0.33333333      -0.00000000      -0.00000000 </v>
   <v>       0.41666667       0.00000000      -0.00000000 </v>
   <v>       0.50000000      -0.00000000      -0.00000000 </v>
   <v>       0.08333333       0.08333333      -0.00000000 </v>
   <v>       0.16666667       0.08333333      -0.00000000 </v>
   <v>       0.25000000       0.08333333      -0.00000000 </v>
   <v>       0.33333333       0.08333333      -0.00000000 </v>
   <v>       0.41666667       0.08333333      -0.00000000 </v>
   <v>       0.50000000       0.08333333      -0.00000000 </v>
   <v>      -0.41666667       0.08333333       0.00000000 </v>
   <v>      -0.33333333       0.08333333       0.00000000 </v>
   <v>      -0.25000000       0.08333333       0.00000000 </v>
   <v>      -0.16666667       0.08333333       0.00000000 </v>
   <v>      -0.08333333       0.08333333       0.00000000 </v>
   <v>       0.16666667       0.16666667      -0.00000000 </v>
   <v>       0.25000000       0.16666667      -0.00000000 </v>
   <v>       0.33333333       0.16666667      -0.00000000 </v>
   <v>       0.41666667       0.16666667      -0.00000000 </v>
   <v>       0.50000000       0.16666667      -0.00000000 </v>
   <v>      -0.41666667       0.16666667       0.00000000 </v>
   <v>      -0.33333333       0.16666667       0.00000000 </v>
   <v>      -0.25000000       0.16666667       0.00000000 </v>
   <v>      -0.16666667       0.16666667       0.00000000 </v>
   <v>       0.25000000       0.25000000      -0.00000000 </v>
   <v>       0.33333333       0.25000000      -0.00000000 </v>
   <v>       0.41666667       0.25000000      -0.00000000 </v>
   <v>       0.50000000       0.25000000      -0.00000000 </v>
   <v>      -0.41666667       0.25000000       0.00000000 </v>
   <v>      -0.33333333       0.25000000       0.00000000 </v>
   <v>      -0.25000000       0.25000000       0.00000000 </v>
   <v>       0.33333333       0.33333333      -0.00000000 </v>
   <v>       0.41666667       0.33333333      -0.00000000 </v>
   <v>       0.50000000       0.33333333      -0.00000000 </v>
   <v>      -0.41666667       0.33333333      -0.00000000 </v>
   <v>      -0.33333333       0.33333333       0.00000000 </v>
   <v>       0.41666667       0.41666667      -0.00000000 </v>
   <v>       0.50000000       0.41666667      -0.00000000 </v>
   <v>      -0.41666667       0.41666667       0.00000000 </v>
   <v>       0.50000000       0.50000000      -0.00000000 </v>
   <v>       0.08333333       0.08333333       0.08333333 </v>
   <v>       0.16666667       0.08333333       0.08333333 </v>
   <v>       0.25000000       0.08333333       0.08333333 </v>
   <v>       0.33333333       0.08333333       0.08333333 </v>
   <v>       0.41666667       0.08333333       0.08333333 </v>
   <v>       0.50000000       0.08333333       0.08333333 </v>
   <v>      -0.41666667       0.08333333       0.08333333 </v>
   <v>      -0.33333333       0.08333333       0.08333333 </v>
   <v>      -0.25000000       0.08333333       0.08333333 </v>
   <v>      -0.16666667       0.08333333       0.08333333 </v>
   <v>      -0.08333333       0.08333333       0.08333333 </v>
   <v>       0.16666667       0.16666667       0.08333333 </v>
   <v>       0.25000000       0.16666667       0.08333333 </v>
   <v>       0.33333333       0.16666667       0.08333333 </v>
   <v>       0.41666667       0.16666667       0.08333333 </v>
   <v>       0.50000000       0.16666667       0.08333333 </v>
   <v>      -0.41666667       0.16666667       0.08333333 </v>
   <v>      -0.33333333       0.16666667       0.08333333 </v>
   <v>      -0.25000000       0.16666667       0.08333333 </v>
   <v>      -0.16666667       0.16666667       0.08333333 </v>
   <v>      -0.08333333       0.16666667       0.08333333 </v>
   <v>       0.25000000       0.25000000       0.08333333 </v>
   <v>       0.33333333       0.25000000       0.08333333 </v>
   <v>       0.41666667       0.25000000       0.08333333 </v>
   <v>       0.50000000       0.25000000       0.08333333 </v>
   <v>      -0.41666667       0.25000000       0.08333333 </v>
   <v>      -0.33333333       0.25000000       0.08333333 </v>
   <v>      -0.25000000       0.25000000       0.08333333 </v>
   <v>      -0.16666667       0.25000000       0.08333333 </v>
   <v>      -0.08333333       0.25000000       0.08333333 </v>
   <v>       0.33333333       0.33333333       0.08333333 </v>
   <v>       0.41666667       0.33333333       0.08333333 </v>
   <v>       0.50000000       0.33333333       0.08333333 </v>
   <v>      -0.41666667       0.33333333       0.08333333 </v>
   <v>      -0.33333333       0.33333333       0.08333333 </v>
   <v>      -0.25000000       0.33333333       0.08333333 </v>
   <v>      -0.16666667       0.33333333       0.08333333 </v>
   <v>      -0.08333333       0.33333333       0.08333333 </v>
   <v>       0.41666667       0.41666667       0.08333333 </v>
   <v>       0.50000000       0.41666667       0.08333333 </v>
   <v>      -0.41666667       0.41666667       0.08333333 </v>
   <v>      -0.33333333       0.41666667       0.08333333 </v>
   <v>      -0.25000000       0.41666667       0.08333333 </v>
   <v>      -0.16666667       0.41666667       0.08333333 </v>
   <v>      -0.08333333       0.41666667       0.08333333 </v>
   <v>       0.50000000       0.50000000       0.08333333 </v>
   <v>      -0.41666667       0.50000000       0.08333333 </v>
   <v>      -0.33333333       0.50000000       0.08333333 </v>
   <v>      -0.25000000       0.50000000       0.08333333 </v>
   <v>      -0.16666667       0.50000000       0.08333333 </v>
   <v>      -0.08333333       0.50000000       0.08333333 </v>
   <v>      -0.41666667      -0.41666667       0.08333333 </v>
   <v>      -0.33333333      -0.41666667       0.08333333 </v>
   <v>      -0.25000000      -0.41666667       0.08333333 </v>
   <v>      -0.16666667      -0.41666667       0.08333333 </v>
   <v>      -0.33333333      -0.33333333       0.08333333 </v>
   <v>      -0.25000000      -0.33333333       0.08333333 </v>
   <v>      -0.16666667      -0.33333333       0.08333333 </v>
   <v>      -0.25000000      -0.25000000       0.08333333 </v>
   <v>      -0.16666667      -0.25000000       0.08333333 </v>
   <v>      -0.16666667      -0.16666667       0.08333333 </v>
   <v>       0.16666667       0.16666667       0.16666667 </v>
   <v>       0.25000000       0.16666667       0.16666667 </v>
   <v>       0.33333333       0.16666667       0.16666667 </v>
   <v>       0.41666667       0.16666667       0.16666667 </v>
   <v>       0.50000000       0.16666667       0.16666667 </v>
   <v>      -0.41666667       0.16666667       0.16666667 </v>
   <v>      -0.33333333       0.16666667       0.16666667 </v>
   <v>      -0.25000000       0.16666667       0.16666667 </v>
   <v>      -0.16666667       0.16666667       0.16666667 </v>
   <v>       0.25000000       0.25000000       0.16666667 </v>
   <v>       0.33333333       0.25000000       0.16666667 </v>
   <v>       0.41666667       0.25000000       0.16666667 </v>
   <v>       0.50000000       0.25000000       0.16666667 </v>
   <v>      -0.41666667       0.25000000       0.16666667 </v>
   <v>      -0.33333333       0.25000000       0.16666667 </v>
   <v>      -0.25000000       0.25000000       0.16666667 </v>
   <v>      -0.16666667       0.25000000       0.16666667 </v>
   <v>       0.33333333       0.33333333       0.16666667 </v>
   <v>       0.41666667       0.33333333       0.16666667 </v>
   <v>       0.50000000       0.33333333       0.16666667 </v>
   <v>      -0.41666667       0.33333333       0.16666667 </v>
   <v>      -0.33333333       0.33333333       0.16666667 </v>
   <v>      -0.25000000       0.33333333       0.16666667 </v>
   <v>      -0.16666667       0.33333333       0.16666667 </v>
   <v>       0.41666667       0.41666667       0.16666667 </v>
   <v>       0.50000000       0.41666667       0.16666667 </v>
   <v>      -0.41666667       0.41666667       0.16666667 </v>
   <v>      -0.33333333       0.41666667       0.16666667 </v>
   <v>      -0.25000000       0.41666667       0.16666667 </v>
   <v>      -0.16666667       0.41666667       0.16666667 </v>
   <v>       0.50000000       0.50000000       0.16666667 </v>
   <v>      -0.41666667       0.50000000       0.16666667 </v>
   <v>      -0.33333333       0.50000000       0.16666667 </v>
   <v>      -0.25000000       0.50000000       0.16666667 </v>
   <v>      -0.16666667       0.50000000       0.16666667 </v>
   <v>      -0.41666667      -0.41666667       0.16666667 </v>
   <v>      -0.33333333      -0.41666667       0.16666667 </v>
   <v>      -0.25000000      -0.41666667       0.16666667 </v>
   <v>      -0.33333333      -0.33333333       0.16666667 </v>
   <v>      -0.25000000      -0.33333333       0.16666667 </v>
   <v>      -0.25000000      -0.25000000       0.16666667 </v>
   <v>       0.25000000       0.25000000       0.25000000 </v>
   <v>       0.33333333       0.25000000       0.25000000 </v>
   <v>       0.41666667       0.25000000       0.25000000 </v>
   <v>       0.50000000       0.25000000       0.25000000 </v>
   <v>      -0.41666667       0.25000000       0.25000000 </v>
   <v>      -0.33333333       0.25000000       0.25000000 </v>
   <v>      -0.25000000       0.25000000       0.25000000 </v>
   <v>       0.33333333       0.33333333       0.25000000 </v>
   <v>       0.41666667       0.33333333       0.25000000 </v>
   <v>       0.50000000       0.33333333       0.25000000 </v>
   <v>      -0.41666667       0.33333333       0.25000000 </v>
   <v>      -0.33333333       0.33333333       0.25000000 </v>
   <v>      -0.25000000       0.33333333       0.25000000 </v>
   <v>       0.41666667       0.41666667       0.25000000 </v>
   <v>       0.50000000       0.41666667       0.25000000 </v>
   <v>      -0.41666667       0.41666667       0.25000000 </v>
   <v>      -0.33333333       0.41666667       0.25000000 </v>
   <v>      -0.25000000       0.41666667       0.25000000 </v>
   <v>       0.50000000       0.50000000       0.25000000 </v>
   <v>      -0.41666667       0.50000000       0.25000000 </v>
   <v>      -0.33333333       0.50000000       0.25000000 </v>
   <v>      -0.25000000       0.50000000       0.25000000 </v>
   <v>      -0.41666667      -0.41666667       0.25000000 </v>
   <v>      -0.33333333      -0.41666667       0.25000000 </v>
   <v>      -0.33333333      -0.33333333       0.25000000 </v>
   <v>       0.33333333       0.33333333       0.33333333 </v>
   <v>       0.41666667       0.33333333       0.33333333 </v>
   <v>       0.50000000       0.33333333       0.33333333 </v>
   <v>      -0.41666667       0.33333333       0.33333333 </v>
   <v>      -0.33333333       0.33333333       0.33333333 </v>
   <v>       0.41666667       0.41666667       0.33333333 </v>
   <v>       0.50000000       0.41666667       0.33333333 </v>
   <v>      -0.41666667       0.41666667       0.33333333 </v>
   <v>      -0.33333333       0.41666667       0.33333333 </v>
   <v>       0.50000000       0.50000000       0.33333333 </v>
   <v>      -0.41666667       0.50000000       0.33333333 </v>
   <v>      -0.33333333       0.50000000       0.33333333 </v>
   <v>      -0.41666667      -0.41666667       0.33333333 </v>
   <v>       0.41666667       0.41666667       0.41666667 </v>
   <v>       0.50000000       0.41666667       0.41666667 </v>
   <v>      -0.41666667       0.41666667       0.41666667 </v>
   <v>       0.50000000       0.50000000       0.41666667 </v>
   <v>      -0.41666667       0.50000000       0.41666667 </v>
   <v>       0.50000000       0.50000000       0.50000000 </v>
  </varray>
  <varray name="weights" >
   <v>       0.00057870 </v>
   <v>       0.00347222 </v>
   <v>       0.00347222 </v>
   <v>       0.00347222 </v>
   <v>       0.00347222 </v>
   <v>       0.00347222 </v>
   <v>       0.00173611 </v>
   <v>       0.00347222 </v>
   <v>       0.00694444 </v>
   <v>       0.00694444 </v>
   <v>       0.00694444 </v>
   <v>       0.00694444 </v>
   <v>       0.00694444 </v>
   <v>       0.00694444 </v>
   <v>       0.00694444 </v>
   <v>       0.00694444 </v>
   <v>       0.00694444 </v>
   <v>       0.00347222 </v>
   <v>       0.00347222 </v>
   <v>       0.00694444 </v>
   <v>       0.00694444 </v>
   <v>       0.00694444 </v>
   <v>       0.00694444 </v>
   <v>       0.00694444 </v>
   <v>       0.00694444 </v>
   <v>       0.00694444 </v>
   <v>       0.00347222 </v>
   <v>       0.00347222 </v>
   <v>       0.00694444 </v>
   <v>       0.00694444 </v>
   <v>       0.00694444 </v>
   <v>       0.00694444 </v>
   <v>       0.00694444 </v>
   <v>       0.00347222 </v>
   <v>       0.00347222 </v>
   <v>       0.00694444 </v>
   <v>       0.00694444 </v>
   <v>       0.00694444 </v>
   <v>       0.00347222 </v>
   <v>       0.00347222 </v>
   <v>       0.00694444 </v>
   <v>       0.00347222 </v>
   <v>       0.00173611 </v>
   <v>       0.00115741 </v>
   <v>       0.00347222 </v>
   <v>       0.00347222 </v>
   <v>       0.00347222 </v>
   <v>       0.00347222 </v>
   <v>       0.00347222 </v>
   <v>       0.00347222 </v>
   <v>       0.00347222 </v>
   <v>       0.00347222 </v>
   <v>       0.00347222 </v>
   <v>       0.00347222 </v>
   <v>       0.00347222 </v>
   <v>       0.00694444 </v>
   <v>       0.00694444 </v>
   <v>       0.00694444 </v>
   <v>       0.00694444 </v>
   <v>       0.00694444 </v>
   <v>       0.00694444 </v>
   <v>       0.00694444 </v>
   <v>       0.00694444 </v>
   <v>       0.00694444 </v>
   <v>       0.00347222 </v>
   <v>       0.00694444 </v>
   <v>       0.00694444 </v>
   <v>       0.00694444 </v>
   <v>       0.00694444 </v>
   <v>       0.00694444 </v>
   <v>       0.00694444 </v>
   <v>       0.00694444 </v>
   <v>       0.00694444 </v>
   <v>       0.00347222 </v>
   <v>       0.00694444 </v>
   <v>       0.00694444 </v>
   <v>       0.00694444 </v>
   <v>       0.00694444 </v>
   <v>       0.00694444 </v>
   <v>       0.00694444 </v>
   <v>       0.00694444 </v>
   <v>       0.00347222 </v>
   <v>       0.00694444 </v>
   <v>       0.00694444 </v>
   <v>       0.00694444 </v>
   <v>       0.00694444 </v>
   <v>       0.00694444 </v>
   <v>       0.00694444 </v>
   <v>       0.00347222 </v>
   <v>       0.00694444 </v>
   <v>       0.00694444 </v>
   <v>       0.00694444 </v>
   <v>       0.00694444 </v>
   <v>       0.00347222 </v>
   <v>       0.00347222 </v>
   <v>       0.00694444 </v>
   <v>       0.00694444 </v>
   <v>       0.00694444 </v>
   <v>       0.00347222 </v>
   <v>       0.00694444 </v>
   <v>       0.00694444 </v>
   <v>       0.00347222 </v>
   <v>       0.00694444 </v>
   <v>       0.00347222 </v>
   <v>       0.00115741 </v>
   <v>       0.00347222 </v>
   <v>       0.00347222 </v>
   <v>       0.00347222 </v>
   <v>       0.00347222 </v>
   <v>       0.00347222 </v>
   <v>       0.00347222 </v>
   <v>       0.00347222 </v>
   <v>       0.00347222 </v>
   <v>       0.00347222 </v>
   <v>       0.00694444 </v>
   <v>       0.00694444 </v>
   <v>       0.00694444 </v>
   <v>       0.00694444 </v>
   <v>       0.00694444 </v>
   <v>       0.00694444 </v>
   <v>       0.00694444 </v>
   <v>       0.00347222 </v>
   <v>       0.00694444 </v>
   <v>       0.00694444 </v>
   <v>       0.00694444 </v>
   <v>       0.00694444 </v>
   <v>       0.00694444 </v>
   <v>       0.00694444 </v>
   <v>       0.00347222 </v>
   <v>       0.00694444 </v>
   <v>       0.00694444 </v>
   <v>       0.00694444 </v>
   <v>       0.00694444 </v>
   <v>       0.00694444 </v>
   <v>       0.00347222 </v>
   <v>       0.00694444 </v>
   <v>       0.00694444 </v>
   <v>       0.00694444 </v>
   <v>       0.00347222 </v>
   <v>       0.00347222 </v>
   <v>       0.00694444 </v>
   <v>       0.00694444 </v>
   <v>       0.00347222 </v>
   <v>       0.00694444 </v>
   <v>       0.00347222 </v>
   <v>       0.00115741 </v>
   <v>       0.00347222 </v>
   <v>       0.00347222 </v>
   <v>       0.00347222 </v>
   <v>       0.00347222 </v>
   <v>       0.00347222 </v>
   <v>       0.00347222 </v>
   <v>       0.00347222 </v>
   <v>       0.00694444 </v>
   <v>       0.00694444 </v>
   <v>       0.00694444 </v>
   <v>       0.00694444 </v>
   <v>       0.00694444 </v>
   <v>       0.00347222 </v>
   <v>       0.00694444 </v>
   <v>       0.00694444 </v>
   <v>       0.00694444 </v>
   <v>       0.00694444 </v>
   <v>       0.00347222 </v>
   <v>       0.00694444 </v>
   <v>       0.00694444 </v>
   <v>       0.00347222 </v>
   <v>       0.00347222 </v>
   <v>       0.00694444 </v>
   <v>       0.00347222 </v>
   <v>       0.00115741 </v>
   <v>       0.00347222 </v>
   <v>       0.00347222 </v>
   <v>       0.00347222 </v>
   <v>       0.00347222 </v>
   <v>       0.00347222 </v>
   <v>       0.00694444 </v>
   <v>       0.00694444 </v>
   <v>       0.00694444 </v>
   <v>       0.00347222 </v>
   <v>       0.00694444 </v>
   <v>       0.00347222 </v>
   <v>       0.00347222 </v>
   <v>       0.00115741 </v>
   <v>       0.00347222 </v>
   <v>       0.00347222 </v>
   <v>       0.00347222 </v>
   <v>       0.00347222 </v>
   <v>       0.00057870 </v>
  </varray>
  <varray name="tetrahedronlist"  type="int" >
   <v type="int" >       12        1        2        8       44 </v>
   <v type="int" >       12        2        8        9       45 </v>
   <v type="int" >       12        2        3        9       45 </v>
   <v type="int" >       12        2        8       44       45 </v>
   <v type="int" >       12        3        9       10       46 </v>
   <v type="int" >       12        3        4       10       46 </v>
   <v type="int" >       12        3        9       45       46 </v>
   <v type="int" >       12        4       10       11       47 </v>
   <v type="int" >       12        4        5       11       47 </v>
   <v type="int" >       12        4       10       46       47 </v>
   <v type="int" >       12        5       11       12       48 </v>
   <v type="int" >       12        5        6       12       48 </v>
   <v type="int" >       12        5       11       47       48 </v>
   <v type="int" >       12        6       12       13       49 </v>
   <v type="int" >       12        6        7       13       49 </v>
   <v type="int" >       12        6       12       48       49 </v>
   <v type="int" >       12        7       13       14       50 </v>
   <v type="int" >       12        6        7       14       50 </v>
   <v type="int" >       12        7       13       49       50 </v>
   <v type="int" >       12        6       14       15       51 </v>
   <v type="int" >       12        5        6       15       51 </v>
   <v type="int" >       12        6       14       50       51 </v>
   <v type="int" >       12        5       15       16       52 </v>
   <v type="int" >       12        4        5       16       52 </v>
   <v type="int" >       12        5       15       51       52 </v>
   <v type="int" >       12        4       16       17       53 </v>
   <v type="int" >       12        3        4       17       53 </v>
   <v type="int" >       12        4       16       52       53 </v>
   <v type="int" >       12        3       17       18       54 </v>
   <v type="int" >       12        2        3       18       54 </v>
   <v type="int" >       12        3       17       53       54 </v>
   <v type="int" >       12        2        2        8       18 </v>
   <v type="int" >       12        1        2        2        8 </v>
   <v type="int" >       12        2        8       18       54 </v>
   <v type="int" >       12        8        9       19       55 </v>
   <v type="int" >       12        8        9       45       55 </v>
   <v type="int" >       12        8       44       45       55 </v>
   <v type="int" >       12        9       19       20       56 </v>
   <v type="int" >       12        9       10       20       56 </v>
   <v type="int" >       12        9       10       46       56 </v>
   <v type="int" >       12        9       19       55       56 </v>
   <v type="int" >       12        9       45       55       56 </v>
   <v type="int" >       12        9       45       46       56 </v>
   <v type="int" >       12       10       20       21       57 </v>
   <v type="int" >       12       10       11       21       57 </v>
   <v type="int" >       12       10       11       47       57 </v>
   <v type="int" >       12       10       20       56       57 </v>
   <v type="int" >       12       10       46       56       57 </v>
   <v type="int" >       12       10       46       47       57 </v>
   <v type="int" >       12       11       21       22       58 </v>
   <v type="int" >       12       11       12       22       58 </v>
   <v type="int" >       12       11       12       48       58 </v>
   <v type="int" >       12       11       21       57       58 </v>
   <v type="int" >       12       11       47       57       58 </v>
   <v type="int" >       12       11       47       48       58 </v>
   <v type="int" >       12       12       22       23       59 </v>
   <v type="int" >       12       12       13       23       59 </v>
   <v type="int" >       12       12       13       49       59 </v>
   <v type="int" >       12       12       22       58       59 </v>
   <v type="int" >       12       12       48       58       59 </v>
   <v type="int" >       12       12       48       49       59 </v>
   <v type="int" >       12       13       23       24       60 </v>
   <v type="int" >       12       13       14       24       60 </v>
   <v type="int" >       12       13       14       50       60 </v>
   <v type="int" >       12       13       23       59       60 </v>
   <v type="int" >       12       13       49       59       60 </v>
   <v type="int" >       12       13       49       50       60 </v>
   <v type="int" >       12       14       24       25       61 </v>
   <v type="int" >       12       14       15       25       61 </v>
   <v type="int" >       12       14       15       51       61 </v>
   <v type="int" >       12       14       24       60       61 </v>
   <v type="int" >       12       14       50       60       61 </v>
   <v type="int" >       12       14       50       51       61 </v>
   <v type="int" >       12       15       25       26       62 </v>
   <v type="int" >       12       15       16       26       62 </v>
   <v type="int" >       12       15       16       52       62 </v>
   <v type="int" >       12       15       25       61       62 </v>
   <v type="int" >       12       15       51       61       62 </v>
   <v type="int" >       12       15       51       52       62 </v>
   <v type="int" >       12       16       26       27       63 </v>
   <v type="int" >       12       16       17       27       63 </v>
   <v type="int" >       12       16       17       53       63 </v>
   <v type="int" >       12       16       26       62       63 </v>
   <v type="int" >       12       16       52       62       63 </v>
   <v type="int" >       12       16       52       53       63 </v>
   <v type="int" >       12       17       17       27       64 </v>
   <v type="int" >       12       17       17       18       64 </v>
   <v type="int" >       12       17       18       54       64 </v>
   <v type="int" >       12       17       27       63       64 </v>
   <v type="int" >       12       17       53       63       64 </v>
   <v type="int" >       12       17       53       54       64 </v>
   <v type="int" >       12        3        9       17       18 </v>
   <v type="int" >       12        2        3        9       18 </v>
   <v type="int" >       12        2        8        9       18 </v>
   <v type="int" >       12        9       17       18       64 </v>
   <v type="int" >       12        9       18       54       64 </v>
   <v type="int" >       12        8        9       18       54 </v>
   <v type="int" >       12       19       20       28       65 </v>
   <v type="int" >       12       19       20       56       65 </v>
   <v type="int" >       12       19       55       56       65 </v>
   <v type="int" >       12       20       28       29       66 </v>
   <v type="int" >       12       20       21       29       66 </v>
   <v type="int" >       12       20       21       57       66 </v>
   <v type="int" >       12       20       28       65       66 </v>
   <v type="int" >       12       20       56       65       66 </v>
   <v type="int" >       12       20       56       57       66 </v>
   <v type="int" >       12       21       29       30       67 </v>
   <v type="int" >       12       21       22       30       67 </v>
   <v type="int" >       12       21       22       58       67 </v>
   <v type="int" >       12       21       29       66       67 </v>
   <v type="int" >       12       21       57       66       67 </v>
   <v type="int" >       12       21       57       58       67 </v>
   <v type="int" >       12       22       30       31       68 </v>
   <v type="int" >       12       22       23       31       68 </v>
   <v type="int" >       12       22       23       59       68 </v>
   <v type="int" >       12       22       30       67       68 </v>
   <v type="int" >       12       22       58       67       68 </v>
   <v type="int" >       12       22       58       59       68 </v>
   <v type="int" >       12       23       31       32       69 </v>
   <v type="int" >       12       23       24       32       69 </v>
   <v type="int" >       12       23       24       60       69 </v>
   <v type="int" >       12       23       31       68       69 </v>
   <v type="int" >       12       23       59       68       69 </v>
   <v type="int" >       12       23       59       60       69 </v>
   <v type="int" >       12       24       32       33       70 </v>
   <v type="int" >       12       24       25       33       70 </v>
   <v type="int" >       12       24       25       61       70 </v>
   <v type="int" >       12       24       32       69       70 </v>
   <v type="int" >       12       24       60       69       70 </v>
   <v type="int" >       12       24       60       61       70 </v>
   <v type="int" >       12       25       33       34       71 </v>
   <v type="int" >       12       25       26       34       71 </v>
   <v type="int" >       12       25       26       62       71 </v>
   <v type="int" >       12       25       33       70       71 </v>
   <v type="int" >       12       25       61       70       71 </v>
   <v type="int" >       12       25       61       62       71 </v>
   <v type="int" >       12       26       26       34       72 </v>
   <v type="int" >       12       26       26       27       72 </v>
   <v type="int" >       12       26       27       63       72 </v>
   <v type="int" >       12       26       34       71       72 </v>
   <v type="int" >       12       26       62       71       72 </v>
   <v type="int" >       12       26       62       63       72 </v>
   <v type="int" >       12       16       26       27       73 </v>
   <v type="int" >       12       16       17       27       73 </v>
   <v type="int" >       12       17       27       64       73 </v>
   <v type="int" >       12       26       27       72       73 </v>
   <v type="int" >       12       27       63       72       73 </v>
   <v type="int" >       12       27       63       64       73 </v>
   <v type="int" >       12        4       10       16       17 </v>
   <v type="int" >       12        3        4       10       17 </v>
   <v type="int" >       12        3        9       10       17 </v>
   <v type="int" >       12       10       16       17       73 </v>
   <v type="int" >       12       10       17       64       73 </v>
   <v type="int" >       12        9       10       17       64 </v>
   <v type="int" >       12       28       29       35       74 </v>
   <v type="int" >       12       28       29       66       74 </v>
   <v type="int" >       12       28       65       66       74 </v>
   <v type="int" >       12       29       35       36       75 </v>
   <v type="int" >       12       29       30       36       75 </v>
   <v type="int" >       12       29       30       67       75 </v>
   <v type="int" >       12       29       35       74       75 </v>
   <v type="int" >       12       29       66       74       75 </v>
   <v type="int" >       12       29       66       67       75 </v>
   <v type="int" >       12       30       36       37       76 </v>
   <v type="int" >       12       30       31       37       76 </v>
   <v type="int" >       12       30       31       68       76 </v>
   <v type="int" >       12       30       36       75       76 </v>
   <v type="int" >       12       30       67       75       76 </v>
   <v type="int" >       12       30       67       68       76 </v>
   <v type="int" >       12       31       37       38       77 </v>
   <v type="int" >       12       31       32       38       77 </v>
   <v type="int" >       12       31       32       69       77 </v>
   <v type="int" >       12       31       37       76       77 </v>
   <v type="int" >       12       31       68       76       77 </v>
   <v type="int" >       12       31       68       69       77 </v>
   <v type="int" >       12       32       38       39       78 </v>
   <v type="int" >       12       32       33       39       78 </v>
   <v type="int" >       12       32       33       70       78 </v>
   <v type="int" >       12       32       38       77       78 </v>
   <v type="int" >       12       32       69       77       78 </v>
   <v type="int" >       12       32       69       70       78 </v>
   <v type="int" >       12       33       33       39       79 </v>
   <v type="int" >       12       33       33       34       79 </v>
   <v type="int" >       12       33       34       71       79 </v>
   <v type="int" >       12       33       39       78       79 </v>
   <v type="int" >       12       33       70       78       79 </v>
   <v type="int" >       12       33       70       71       79 </v>
   <v type="int" >       12       25       33       34       80 </v>
   <v type="int" >       12       25       26       34       80 </v>
   <v type="int" >       12       26       34       72       80 </v>
   <v type="int" >       12       33       34       79       80 </v>
   <v type="int" >       12       34       71       79       80 </v>
   <v type="int" >       12       34       71       72       80 </v>
   <v type="int" >       12       15       25       26       81 </v>
   <v type="int" >       12       15       16       26       81 </v>
   <v type="int" >       12       16       26       73       81 </v>
   <v type="int" >       12       25       26       80       81 </v>
   <v type="int" >       12       26       72       80       81 </v>
   <v type="int" >       12       26       72       73       81 </v>
   <v type="int" >       12        5       11       15       16 </v>
   <v type="int" >       12        4        5       11       16 </v>
   <v type="int" >       12        4       10       11       16 </v>
   <v type="int" >       12       11       15       16       81 </v>
   <v type="int" >       12       11       16       73       81 </v>
   <v type="int" >       12       10       11       16       73 </v>
   <v type="int" >       12       35       36       40       82 </v>
   <v type="int" >       12       35       36       75       82 </v>
   <v type="int" >       12       35       74       75       82 </v>
   <v type="int" >       12       36       40       41       83 </v>
   <v type="int" >       12       36       37       41       83 </v>
   <v type="int" >       12       36       37       76       83 </v>
   <v type="int" >       12       36       40       82       83 </v>
   <v type="int" >       12       36       75       82       83 </v>
   <v type="int" >       12       36       75       76       83 </v>
   <v type="int" >       12       37       41       42       84 </v>
   <v type="int" >       12       37       38       42       84 </v>
   <v type="int" >       12       37       38       77       84 </v>
   <v type="int" >       12       37       41       83       84 </v>
   <v type="int" >       12       37       76       83       84 </v>
   <v type="int" >       12       37       76       77       84 </v>
   <v type="int" >       12       38       38       42       85 </v>
   <v type="int" >       12       38       38       39       85 </v>
   <v type="int" >       12       38       39       78       85 </v>
   <v type="int" >       12       38       42       84       85 </v>
   <v type="int" >       12       38       77       84       85 </v>
   <v type="int" >       12       38       77       78       85 </v>
   <v type="int" >       12       32       38       39       86 </v>
   <v type="int" >       12       32       33       39       86 </v>
   <v type="int" >       12       33       39       79       86 </v>
   <v type="int" >       12       38       39       85       86 </v>
   <v type="int" >       12       39       78       85       86 </v>
   <v type="int" >       12       39       78       79       86 </v>
   <v type="int" >       12       24       32       33       87 </v>
   <v type="int" >       12       24       25       33       87 </v>
   <v type="int" >       12       25       33       80       87 </v>
   <v type="int" >       12       32       33       86       87 </v>
   <v type="int" >       12       33       79       86       87 </v>
   <v type="int" >       12       33       79       80       87 </v>
   <v type="int" >       12       14       24       25       88 </v>
   <v type="int" >       12       14       15       25       88 </v>
   <v type="int" >       12       15       25       81       88 </v>
   <v type="int" >       12       24       25       87       88 </v>
   <v type="int" >       12       25       80       87       88 </v>
   <v type="int" >       12       25       80       81       88 </v>
   <v type="int" >       12        6       12       14       15 </v>
   <v type="int" >       12        5        6       12       15 </v>
   <v type="int" >       12        5       11       12       15 </v>
   <v type="int" >       12       12       14       15       88 </v>
   <v type="int" >       12       12       15       81       88 </v>
   <v type="int" >       12       11       12       15       81 </v>
   <v type="int" >       12       40       41       43       89 </v>
   <v type="int" >       12       40       41       83       89 </v>
   <v type="int" >       12       40       82       83       89 </v>
   <v type="int" >       12       41       41       43       90 </v>
   <v type="int" >       12       41       41       42       90 </v>
   <v type="int" >       12       41       42       84       90 </v>
   <v type="int" >       12       41       43       89       90 </v>
   <v type="int" >       12       41       83       89       90 </v>
   <v type="int" >       12       41       83       84       90 </v>
   <v type="int" >       12       37       41       42       91 </v>
   <v type="int" >       12       37       38       42       91 </v>
   <v type="int" >       12       38       42       85       91 </v>
   <v type="int" >       12       41       42       90       91 </v>
   <v type="int" >       12       42       84       90       91 </v>
   <v type="int" >       12       42       84       85       91 </v>
   <v type="int" >       12       31       37       38       92 </v>
   <v type="int" >       12       31       32       38       92 </v>
   <v type="int" >       12       32       38       86       92 </v>
   <v type="int" >       12       37       38       91       92 </v>
   <v type="int" >       12       38       85       91       92 </v>
   <v type="int" >       12       38       85       86       92 </v>
   <v type="int" >       12       23       31       32       93 </v>
   <v type="int" >       12       23       24       32       93 </v>
   <v type="int" >       12       24       32       87       93 </v>
   <v type="int" >       12       31       32       92       93 </v>
   <v type="int" >       12       32       86       92       93 </v>
   <v type="int" >       12       32       86       87       93 </v>
   <v type="int" >       12       13       23       24       94 </v>
   <v type="int" >       12       13       14       24       94 </v>
   <v type="int" >       12       14       24       88       94 </v>
   <v type="int" >       12       23       24       93       94 </v>
   <v type="int" >       12       24       87       93       94 </v>
   <v type="int" >       12       24       87       88       94 </v>
   <v type="int" >       12        7       13       13       14 </v>
   <v type="int" >       12        6        7       13       14 </v>
   <v type="int" >       12        6       12       13       14 </v>
   <v type="int" >       12       13       13       14       94 </v>
   <v type="int" >       12       13       14       88       94 </v>
   <v type="int" >       12       12       13       14       88 </v>
   <v type="int" >       12       40       41       43       95 </v>
   <v type="int" >       12       41       43       90       95 </v>
   <v type="int" >       12       43       89       90       95 </v>
   <v type="int" >       12       36       40       41       96 </v>
   <v type="int" >       12       36       37       41       96 </v>
   <v type="int" >       12       37       41       91       96 </v>
   <v type="int" >       12       40       41       95       96 </v>
   <v type="int" >       12       41       90       95       96 </v>
   <v type="int" >       12       41       90       91       96 </v>
   <v type="int" >       12       30       36       37       97 </v>
   <v type="int" >       12       30       31       37       97 </v>
   <v type="int" >       12       31       37       92       97 </v>
   <v type="int" >       12       36       37       96       97 </v>
   <v type="int" >       12       37       91       96       97 </v>
   <v type="int" >       12       37       91       92       97 </v>
   <v type="int" >       12       22       30       31       98 </v>
   <v type="int" >       12       22       23       31       98 </v>
   <v type="int" >       12       23       31       93       98 </v>
   <v type="int" >       12       30       31       97       98 </v>
   <v type="int" >       12       31       92       97       98 </v>
   <v type="int" >       12       31       92       93       98 </v>
   <v type="int" >       12       12       22       23       88 </v>
   <v type="int" >       12       12       13       23       88 </v>
   <v type="int" >       12       13       23       88       94 </v>
   <v type="int" >       12       22       23       88       98 </v>
   <v type="int" >       12       23       88       93       98 </v>
   <v type="int" >       12       23       88       93       94 </v>
   <v type="int" >       12       35       36       40       99 </v>
   <v type="int" >       12       36       40       96       99 </v>
   <v type="int" >       12       40       95       96       99 </v>
   <v type="int" >       12       29       35       36      100 </v>
   <v type="int" >       12       29       30       36      100 </v>
   <v type="int" >       12       30       36       97      100 </v>
   <v type="int" >       12       35       36       99      100 </v>
   <v type="int" >       12       36       96       99      100 </v>
   <v type="int" >       12       36       96       97      100 </v>
   <v type="int" >       12       21       29       30      101 </v>
   <v type="int" >       12       21       22       30      101 </v>
   <v type="int" >       12       22       30       98      101 </v>
   <v type="int" >       12       29       30      100      101 </v>
   <v type="int" >       12       30       97      100      101 </v>
   <v type="int" >       12       30       97       98      101 </v>
   <v type="int" >       12       11       21       22       81 </v>
   <v type="int" >       12       11       12       22       81 </v>
   <v type="int" >       12       12       22       81       88 </v>
   <v type="int" >       12       21       22       81      101 </v>
   <v type="int" >       12       22       81       98      101 </v>
   <v type="int" >       12       22       81       88       98 </v>
   <v type="int" >       12       28       29       35      102 </v>
   <v type="int" >       12       29       35      100      102 </v>
   <v type="int" >       12       35       99      100      102 </v>
   <v type="int" >       12       20       28       29      103 </v>
   <v type="int" >       12       20       21       29      103 </v>
   <v type="int" >       12       21       29      101      103 </v>
   <v type="int" >       12       28       29      102      103 </v>
   <v type="int" >       12       29      100      102      103 </v>
   <v type="int" >       12       29      100      101      103 </v>
   <v type="int" >       12       10       20       21       73 </v>
   <v type="int" >       12       10       11       21       73 </v>
   <v type="int" >       12       11       21       73       81 </v>
   <v type="int" >       12       20       21       73      103 </v>
   <v type="int" >       12       21       73      101      103 </v>
   <v type="int" >       12       21       73       81      101 </v>
   <v type="int" >       12       19       20       28      104 </v>
   <v type="int" >       12       20       28      103      104 </v>
   <v type="int" >       12       28      102      103      104 </v>
   <v type="int" >       12        9       19       20       64 </v>
   <v type="int" >       12        9       10       20       64 </v>
   <v type="int" >       12       10       20       64       73 </v>
   <v type="int" >       12       19       20       64      104 </v>
   <v type="int" >       12       20       64      103      104 </v>
   <v type="int" >       12       20       64       73      103 </v>
   <v type="int" >       12        8        9       19       54 </v>
   <v type="int" >       12        9       19       54       64 </v>
   <v type="int" >       12       19       54       64      104 </v>
   <v type="int" >       12       44       45       55      105 </v>
   <v type="int" >       12       45       55       56      106 </v>
   <v type="int" >       12       45       46       56      106 </v>
   <v type="int" >       12       45       55      105      106 </v>
   <v type="int" >       12       46       56       57      107 </v>
   <v type="int" >       12       46       47       57      107 </v>
   <v type="int" >       12       46       56      106      107 </v>
   <v type="int" >       12       47       57       58      108 </v>
   <v type="int" >       12       47       48       58      108 </v>
   <v type="int" >       12       47       57      107      108 </v>
   <v type="int" >       12       48       58       59      109 </v>
   <v type="int" >       12       48       49       59      109 </v>
   <v type="int" >       12       48       58      108      109 </v>
   <v type="int" >       12       49       59       60      110 </v>
   <v type="int" >       12       49       50       60      110 </v>
   <v type="int" >       12       49       59      109      110 </v>
   <v type="int" >       12       50       60       61      111 </v>
   <v type="int" >       12       50       51       61      111 </v>
   <v type="int" >       12       50       60      110      111 </v>
   <v type="int" >       12       51       61       62      112 </v>
   <v type="int" >       12       51       52       62      112 </v>
   <v type="int" >       12       51       61      111      112 </v>
   <v type="int" >       12       52       62       63      113 </v>
   <v type="int" >       12       52       53       63      113 </v>
   <v type="int" >       12       52       62      112      113 </v>
   <v type="int" >       12       53       63       64      104 </v>
   <v type="int" >       12       53       54       64      104 </v>
   <v type="int" >       12       53       63      104      113 </v>
   <v type="int" >       12       55       56       65      114 </v>
   <v type="int" >       12       55       56      106      114 </v>
   <v type="int" >       12       55      105      106      114 </v>
   <v type="int" >       12       56       65       66      115 </v>
   <v type="int" >       12       56       57       66      115 </v>
   <v type="int" >       12       56       57      107      115 </v>
   <v type="int" >       12       56       65      114      115 </v>
   <v type="int" >       12       56      106      114      115 </v>
   <v type="int" >       12       56      106      107      115 </v>
   <v type="int" >       12       57       66       67      116 </v>
   <v type="int" >       12       57       58       67      116 </v>
   <v type="int" >       12       57       58      108      116 </v>
   <v type="int" >       12       57       66      115      116 </v>
   <v type="int" >       12       57      107      115      116 </v>
   <v type="int" >       12       57      107      108      116 </v>
   <v type="int" >       12       58       67       68      117 </v>
   <v type="int" >       12       58       59       68      117 </v>
   <v type="int" >       12       58       59      109      117 </v>
   <v type="int" >       12       58       67      116      117 </v>
   <v type="int" >       12       58      108      116      117 </v>
   <v type="int" >       12       58      108      109      117 </v>
   <v type="int" >       12       59       68       69      118 </v>
   <v type="int" >       12       59       60       69      118 </v>
   <v type="int" >       12       59       60      110      118 </v>
   <v type="int" >       12       59       68      117      118 </v>
   <v type="int" >       12       59      109      117      118 </v>
   <v type="int" >       12       59      109      110      118 </v>
   <v type="int" >       12       60       69       70      119 </v>
   <v type="int" >       12       60       61       70      119 </v>
   <v type="int" >       12       60       61      111      119 </v>
   <v type="int" >       12       60       69      118      119 </v>
   <v type="int" >       12       60      110      118      119 </v>
   <v type="int" >       12       60      110      111      119 </v>
   <v type="int" >       12       61       70       71      120 </v>
   <v type="int" >       12       61       62       71      120 </v>
   <v type="int" >       12       61       62      112      120 </v>
   <v type="int" >       12       61       70      119      120 </v>
   <v type="int" >       12       61      111      119      120 </v>
   <v type="int" >       12       61      111      112      120 </v>
   <v type="int" >       12       62       71       72      121 </v>
   <v type="int" >       12       62       63       72      121 </v>
   <v type="int" >       12       62       63      113      121 </v>
   <v type="int" >       12       62       71      120      121 </v>
   <v type="int" >       12       62      112      120      121 </v>
   <v type="int" >       12       62      112      113      121 </v>
   <v type="int" >       12       63       72       73      103 </v>
   <v type="int" >       12       63       64       73      103 </v>
   <v type="int" >       12       63       64      103      104 </v>
   <v type="int" >       12       63       72      103      121 </v>
   <v type="int" >       12       63      103      113      121 </v>
   <v type="int" >       12       63      103      104      113 </v>
   <v type="int" >       12       65       66       74      122 </v>
   <v type="int" >       12       65       66      115      122 </v>
   <v type="int" >       12       65      114      115      122 </v>
   <v type="int" >       12       66       74       75      123 </v>
   <v type="int" >       12       66       67       75      123 </v>
   <v type="int" >       12       66       67      116      123 </v>
   <v type="int" >       12       66       74      122      123 </v>
   <v type="int" >       12       66      115      122      123 </v>
   <v type="int" >       12       66      115      116      123 </v>
   <v type="int" >       12       67       75       76      124 </v>
   <v type="int" >       12       67       68       76      124 </v>
   <v type="int" >       12       67       68      117      124 </v>
   <v type="int" >       12       67       75      123      124 </v>
   <v type="int" >       12       67      116      123      124 </v>
   <v type="int" >       12       67      116      117      124 </v>
   <v type="int" >       12       68       76       77      125 </v>
   <v type="int" >       12       68       69       77      125 </v>
   <v type="int" >       12       68       69      118      125 </v>
   <v type="int" >       12       68       76      124      125 </v>
   <v type="int" >       12       68      117      124      125 </v>
   <v type="int" >       12       68      117      118      125 </v>
   <v type="int" >       12       69       77       78      126 </v>
   <v type="int" >       12       69       70       78      126 </v>
   <v type="int" >       12       69       70      119      126 </v>
   <v type="int" >       12       69       77      125      126 </v>
   <v type="int" >       12       69      118      125      126 </v>
   <v type="int" >       12       69      118      119      126 </v>
   <v type="int" >       12       70       78       79      127 </v>
   <v type="int" >       12       70       71       79      127 </v>
   <v type="int" >       12       70       71      120      127 </v>
   <v type="int" >       12       70       78      126      127 </v>
   <v type="int" >       12       70      119      126      127 </v>
   <v type="int" >       12       70      119      120      127 </v>
   <v type="int" >       12       71       79       80      128 </v>
   <v type="int" >       12       71       72       80      128 </v>
   <v type="int" >       12       71       72      121      128 </v>
   <v type="int" >       12       71       79      127      128 </v>
   <v type="int" >       12       71      120      127      128 </v>
   <v type="int" >       12       71      120      121      128 </v>
   <v type="int" >       12       72       80       81      101 </v>
   <v type="int" >       12       72       73       81      101 </v>
   <v type="int" >       12       72       73      101      103 </v>
   <v type="int" >       12       72       80      101      128 </v>
   <v type="int" >       12       72      101      121      128 </v>
   <v type="int" >       12       72      101      103      121 </v>
   <v type="int" >       12       74       75       82      129 </v>
   <v type="int" >       12       74       75      123      129 </v>
   <v type="int" >       12       74      122      123      129 </v>
   <v type="int" >       12       75       82       83      130 </v>
   <v type="int" >       12       75       76       83      130 </v>
   <v type="int" >       12       75       76      124      130 </v>
   <v type="int" >       12       75       82      129      130 </v>
   <v type="int" >       12       75      123      129      130 </v>
   <v type="int" >       12       75      123      124      130 </v>
   <v type="int" >       12       76       83       84      131 </v>
   <v type="int" >       12       76       77       84      131 </v>
   <v type="int" >       12       76       77      125      131 </v>
   <v type="int" >       12       76       83      130      131 </v>
   <v type="int" >       12       76      124      130      131 </v>
   <v type="int" >       12       76      124      125      131 </v>
   <v type="int" >       12       77       84       85      132 </v>
   <v type="int" >       12       77       78       85      132 </v>
   <v type="int" >       12       77       78      126      132 </v>
   <v type="int" >       12       77       84      131      132 </v>
   <v type="int" >       12       77      125      131      132 </v>
   <v type="int" >       12       77      125      126      132 </v>
   <v type="int" >       12       78       85       86      133 </v>
   <v type="int" >       12       78       79       86      133 </v>
   <v type="int" >       12       78       79      127      133 </v>
   <v type="int" >       12       78       85      132      133 </v>
   <v type="int" >       12       78      126      132      133 </v>
   <v type="int" >       12       78      126      127      133 </v>
   <v type="int" >       12       79       86       87      134 </v>
   <v type="int" >       12       79       80       87      134 </v>
   <v type="int" >       12       79       80      128      134 </v>
   <v type="int" >       12       79       86      133      134 </v>
   <v type="int" >       12       79      127      133      134 </v>
   <v type="int" >       12       79      127      128      134 </v>
   <v type="int" >       12       80       87       88       98 </v>
   <v type="int" >       12       80       81       88       98 </v>
   <v type="int" >       12       80       81       98      101 </v>
   <v type="int" >       12       80       87       98      134 </v>
   <v type="int" >       12       80       98      128      134 </v>
   <v type="int" >       12       80       98      101      128 </v>
   <v type="int" >       12       82       83       89      135 </v>
   <v type="int" >       12       82       83      130      135 </v>
   <v type="int" >       12       82      129      130      135 </v>
   <v type="int" >       12       83       89       90      136 </v>
   <v type="int" >       12       83       84       90      136 </v>
   <v type="int" >       12       83       84      131      136 </v>
   <v type="int" >       12       83       89      135      136 </v>
   <v type="int" >       12       83      130      135      136 </v>
   <v type="int" >       12       83      130      131      136 </v>
   <v type="int" >       12       84       90       91      137 </v>
   <v type="int" >       12       84       85       91      137 </v>
   <v type="int" >       12       84       85      132      137 </v>
   <v type="int" >       12       84       90      136      137 </v>
   <v type="int" >       12       84      131      136      137 </v>
   <v type="int" >       12       84      131      132      137 </v>
   <v type="int" >       12       85       91       92      138 </v>
   <v type="int" >       12       85       86       92      138 </v>
   <v type="int" >       12       85       86      133      138 </v>
   <v type="int" >       12       85       91      137      138 </v>
   <v type="int" >       12       85      132      137      138 </v>
   <v type="int" >       12       85      132      133      138 </v>
   <v type="int" >       12       86       92       93      139 </v>
   <v type="int" >       12       86       87       93      139 </v>
   <v type="int" >       12       86       87      134      139 </v>
   <v type="int" >       12       86       92      138      139 </v>
   <v type="int" >       12       86      133      138      139 </v>
   <v type="int" >       12       86      133      134      139 </v>
   <v type="int" >       12       87       93       93       94 </v>
   <v type="int" >       12       87       88       93       94 </v>
   <v type="int" >       12       87       88       93       98 </v>
   <v type="int" >       12       87       93       93      139 </v>
   <v type="int" >       12       87       93      134      139 </v>
   <v type="int" >       12       87       93       98      134 </v>
   <v type="int" >       12       89       90       95      140 </v>
   <v type="int" >       12       89       90      136      140 </v>
   <v type="int" >       12       89      135      136      140 </v>
   <v type="int" >       12       90       95       96      141 </v>
   <v type="int" >       12       90       91       96      141 </v>
   <v type="int" >       12       90       91      137      141 </v>
   <v type="int" >       12       90       95      140      141 </v>
   <v type="int" >       12       90      136      140      141 </v>
   <v type="int" >       12       90      136      137      141 </v>
   <v type="int" >       12       91       96       97      142 </v>
   <v type="int" >       12       91       92       97      142 </v>
   <v type="int" >       12       91       92      138      142 </v>
   <v type="int" >       12       91       96      141      142 </v>
   <v type="int" >       12       91      137      141      142 </v>
   <v type="int" >       12       91      137      138      142 </v>
   <v type="int" >       12       92       97       98      134 </v>
   <v type="int" >       12       92       93       98      134 </v>
   <v type="int" >       12       92       93      134      139 </v>
   <v type="int" >       12       92       97      134      142 </v>
   <v type="int" >       12       92      134      138      142 </v>
   <v type="int" >       12       92      134      138      139 </v>
   <v type="int" >       12       95       96       99      143 </v>
   <v type="int" >       12       95       96      141      143 </v>
   <v type="int" >       12       95      140      141      143 </v>
   <v type="int" >       12       96       99      100      144 </v>
   <v type="int" >       12       96       97      100      144 </v>
   <v type="int" >       12       96       97      142      144 </v>
   <v type="int" >       12       96       99      143      144 </v>
   <v type="int" >       12       96      141      143      144 </v>
   <v type="int" >       12       96      141      142      144 </v>
   <v type="int" >       12       97      100      101      128 </v>
   <v type="int" >       12       97       98      101      128 </v>
   <v type="int" >       12       97       98      128      134 </v>
   <v type="int" >       12       97      100      128      144 </v>
   <v type="int" >       12       97      128      142      144 </v>
   <v type="int" >       12       97      128      134      142 </v>
   <v type="int" >       12       99      100      102      145 </v>
   <v type="int" >       12       99      100      144      145 </v>
   <v type="int" >       12       99      143      144      145 </v>
   <v type="int" >       12      100      102      103      121 </v>
   <v type="int" >       12      100      101      103      121 </v>
   <v type="int" >       12      100      101      121      128 </v>
   <v type="int" >       12      100      102      121      145 </v>
   <v type="int" >       12      100      121      144      145 </v>
   <v type="int" >       12      100      121      128      144 </v>
   <v type="int" >       12      102      103      104      113 </v>
   <v type="int" >       12      102      103      113      121 </v>
   <v type="int" >       12      102      113      121      145 </v>
   <v type="int" >       12      105      106      114      146 </v>
   <v type="int" >       12      106      114      115      147 </v>
   <v type="int" >       12      106      107      115      147 </v>
   <v type="int" >       12      106      114      146      147 </v>
   <v type="int" >       12      107      115      116      148 </v>
   <v type="int" >       12      107      108      116      148 </v>
   <v type="int" >       12      107      115      147      148 </v>
   <v type="int" >       12      108      116      117      149 </v>
   <v type="int" >       12      108      109      117      149 </v>
   <v type="int" >       12      108      116      148      149 </v>
   <v type="int" >       12      109      117      118      150 </v>
   <v type="int" >       12      109      110      118      150 </v>
   <v type="int" >       12      109      117      149      150 </v>
   <v type="int" >       12      110      118      119      151 </v>
   <v type="int" >       12      110      111      119      151 </v>
   <v type="int" >       12      110      118      150      151 </v>
   <v type="int" >       12      111      119      120      152 </v>
   <v type="int" >       12      111      112      120      152 </v>
   <v type="int" >       12      111      119      151      152 </v>
   <v type="int" >       12      112      120      121      145 </v>
   <v type="int" >       12      112      113      121      145 </v>
   <v type="int" >       12      112      120      145      152 </v>
   <v type="int" >       12      114      115      122      153 </v>
   <v type="int" >       12      114      115      147      153 </v>
   <v type="int" >       12      114      146      147      153 </v>
   <v type="int" >       12      115      122      123      154 </v>
   <v type="int" >       12      115      116      123      154 </v>
   <v type="int" >       12      115      116      148      154 </v>
   <v type="int" >       12      115      122      153      154 </v>
   <v type="int" >       12      115      147      153      154 </v>
   <v type="int" >       12      115      147      148      154 </v>
   <v type="int" >       12      116      123      124      155 </v>
   <v type="int" >       12      116      117      124      155 </v>
   <v type="int" >       12      116      117      149      155 </v>
   <v type="int" >       12      116      123      154      155 </v>
   <v type="int" >       12      116      148      154      155 </v>
   <v type="int" >       12      116      148      149      155 </v>
   <v type="int" >       12      117      124      125      156 </v>
   <v type="int" >       12      117      118      125      156 </v>
   <v type="int" >       12      117      118      150      156 </v>
   <v type="int" >       12      117      124      155      156 </v>
   <v type="int" >       12      117      149      155      156 </v>
   <v type="int" >       12      117      149      150      156 </v>
   <v type="int" >       12      118      125      126      157 </v>
   <v type="int" >       12      118      119      126      157 </v>
   <v type="int" >       12      118      119      151      157 </v>
   <v type="int" >       12      118      125      156      157 </v>
   <v type="int" >       12      118      150      156      157 </v>
   <v type="int" >       12      118      150      151      157 </v>
   <v type="int" >       12      119      126      127      158 </v>
   <v type="int" >       12      119      120      127      158 </v>
   <v type="int" >       12      119      120      152      158 </v>
   <v type="int" >       12      119      126      157      158 </v>
   <v type="int" >       12      119      151      157      158 </v>
   <v type="int" >       12      119      151      152      158 </v>
   <v type="int" >       12      120      127      128      144 </v>
   <v type="int" >       12      120      121      128      144 </v>
   <v type="int" >       12      120      121      144      145 </v>
   <v type="int" >       12      120      127      144      158 </v>
   <v type="int" >       12      120      144      152      158 </v>
   <v type="int" >       12      120      144      145      152 </v>
   <v type="int" >       12      122      123      129      159 </v>
   <v type="int" >       12      122      123      154      159 </v>
   <v type="int" >       12      122      153      154      159 </v>
   <v type="int" >       12      123      129      130      160 </v>
   <v type="int" >       12      123      124      130      160 </v>
   <v type="int" >       12      123      124      155      160 </v>
   <v type="int" >       12      123      129      159      160 </v>
   <v type="int" >       12      123      154      159      160 </v>
   <v type="int" >       12      123      154      155      160 </v>
   <v type="int" >       12      124      130      131      161 </v>
   <v type="int" >       12      124      125      131      161 </v>
   <v type="int" >       12      124      125      156      161 </v>
   <v type="int" >       12      124      130      160      161 </v>
   <v type="int" >       12      124      155      160      161 </v>
   <v type="int" >       12      124      155      156      161 </v>
   <v type="int" >       12      125      131      132      162 </v>
   <v type="int" >       12      125      126      132      162 </v>
   <v type="int" >       12      125      126      157      162 </v>
   <v type="int" >       12      125      131      161      162 </v>
   <v type="int" >       12      125      156      161      162 </v>
   <v type="int" >       12      125      156      157      162 </v>
   <v type="int" >       12      126      132      133      163 </v>
   <v type="int" >       12      126      127      133      163 </v>
   <v type="int" >       12      126      127      158      163 </v>
   <v type="int" >       12      126      132      162      163 </v>
   <v type="int" >       12      126      157      162      163 </v>
   <v type="int" >       12      126      157      158      163 </v>
   <v type="int" >       12      127      133      134      142 </v>
   <v type="int" >       12      127      128      134      142 </v>
   <v type="int" >       12      127      128      142      144 </v>
   <v type="int" >       12      127      133      142      163 </v>
   <v type="int" >       12      127      142      158      163 </v>
   <v type="int" >       12      127      142      144      158 </v>
   <v type="int" >       12      129      130      135      164 </v>
   <v type="int" >       12      129      130      160      164 </v>
   <v type="int" >       12      129      159      160      164 </v>
   <v type="int" >       12      130      135      136      165 </v>
   <v type="int" >       12      130      131      136      165 </v>
   <v type="int" >       12      130      131      161      165 </v>
   <v type="int" >       12      130      135      164      165 </v>
   <v type="int" >       12      130      160      164      165 </v>
   <v type="int" >       12      130      160      161      165 </v>
   <v type="int" >       12      131      136      137      166 </v>
   <v type="int" >       12      131      132      137      166 </v>
   <v type="int" >       12      131      132      162      166 </v>
   <v type="int" >       12      131      136      165      166 </v>
   <v type="int" >       12      131      161      165      166 </v>
   <v type="int" >       12      131      161      162      166 </v>
   <v type="int" >       12      132      137      138      167 </v>
   <v type="int" >       12      132      133      138      167 </v>
   <v type="int" >       12      132      133      163      167 </v>
   <v type="int" >       12      132      137      166      167 </v>
   <v type="int" >       12      132      162      166      167 </v>
   <v type="int" >       12      132      162      163      167 </v>
   <v type="int" >       12      133      138      138      139 </v>
   <v type="int" >       12      133      134      138      139 </v>
   <v type="int" >       12      133      134      138      142 </v>
   <v type="int" >       12      133      138      138      167 </v>
   <v type="int" >       12      133      138      163      167 </v>
   <v type="int" >       12      133      138      142      163 </v>
   <v type="int" >       12      135      136      140      168 </v>
   <v type="int" >       12      135      136      165      168 </v>
   <v type="int" >       12      135      164      165      168 </v>
   <v type="int" >       12      136      140      141      169 </v>
   <v type="int" >       12      136      137      141      169 </v>
   <v type="int" >       12      136      137      166      169 </v>
   <v type="int" >       12      136      140      168      169 </v>
   <v type="int" >       12      136      165      168      169 </v>
   <v type="int" >       12      136      165      166      169 </v>
   <v type="int" >       12      137      141      142      163 </v>
   <v type="int" >       12      137      138      142      163 </v>
   <v type="int" >       12      137      138      163      167 </v>
   <v type="int" >       12      137      141      163      169 </v>
   <v type="int" >       12      137      163      166      169 </v>
   <v type="int" >       12      137      163      166      167 </v>
   <v type="int" >       12      140      141      143      170 </v>
   <v type="int" >       12      140      141      169      170 </v>
   <v type="int" >       12      140      168      169      170 </v>
   <v type="int" >       12      141      143      144      158 </v>
   <v type="int" >       12      141      142      144      158 </v>
   <v type="int" >       12      141      142      158      163 </v>
   <v type="int" >       12      141      143      158      170 </v>
   <v type="int" >       12      141      158      169      170 </v>
   <v type="int" >       12      141      158      163      169 </v>
   <v type="int" >       12      143      144      145      152 </v>
   <v type="int" >       12      143      144      152      158 </v>
   <v type="int" >       12      143      152      158      170 </v>
   <v type="int" >       12      146      147      153      171 </v>
   <v type="int" >       12      147      153      154      172 </v>
   <v type="int" >       12      147      148      154      172 </v>
   <v type="int" >       12      147      153      171      172 </v>
   <v type="int" >       12      148      154      155      173 </v>
   <v type="int" >       12      148      149      155      173 </v>
   <v type="int" >       12      148      154      172      173 </v>
   <v type="int" >       12      149      155      156      174 </v>
   <v type="int" >       12      149      150      156      174 </v>
   <v type="int" >       12      149      155      173      174 </v>
   <v type="int" >       12      150      156      157      175 </v>
   <v type="int" >       12      150      151      157      175 </v>
   <v type="int" >       12      150      156      174      175 </v>
   <v type="int" >       12      151      157      158      170 </v>
   <v type="int" >       12      151      152      158      170 </v>
   <v type="int" >       12      151      157      170      175 </v>
   <v type="int" >       12      153      154      159      176 </v>
   <v type="int" >       12      153      154      172      176 </v>
   <v type="int" >       12      153      171      172      176 </v>
   <v type="int" >       12      154      159      160      177 </v>
   <v type="int" >       12      154      155      160      177 </v>
   <v type="int" >       12      154      155      173      177 </v>
   <v type="int" >       12      154      159      176      177 </v>
   <v type="int" >       12      154      172      176      177 </v>
   <v type="int" >       12      154      172      173      177 </v>
   <v type="int" >       12      155      160      161      178 </v>
   <v type="int" >       12      155      156      161      178 </v>
   <v type="int" >       12      155      156      174      178 </v>
   <v type="int" >       12      155      160      177      178 </v>
   <v type="int" >       12      155      173      177      178 </v>
   <v type="int" >       12      155      173      174      178 </v>
   <v type="int" >       12      156      161      162      179 </v>
   <v type="int" >       12      156      157      162      179 </v>
   <v type="int" >       12      156      157      175      179 </v>
   <v type="int" >       12      156      161      178      179 </v>
   <v type="int" >       12      156      174      178      179 </v>
   <v type="int" >       12      156      174      175      179 </v>
   <v type="int" >       12      157      162      163      169 </v>
   <v type="int" >       12      157      158      163      169 </v>
   <v type="int" >       12      157      158      169      170 </v>
   <v type="int" >       12      157      162      169      179 </v>
   <v type="int" >       12      157      169      175      179 </v>
   <v type="int" >       12      157      169      170      175 </v>
   <v type="int" >       12      159      160      164      180 </v>
   <v type="int" >       12      159      160      177      180 </v>
   <v type="int" >       12      159      176      177      180 </v>
   <v type="int" >       12      160      164      165      181 </v>
   <v type="int" >       12      160      161      165      181 </v>
   <v type="int" >       12      160      161      178      181 </v>
   <v type="int" >       12      160      164      180      181 </v>
   <v type="int" >       12      160      177      180      181 </v>
   <v type="int" >       12      160      177      178      181 </v>
   <v type="int" >       12      161      165      166      182 </v>
   <v type="int" >       12      161      162      166      182 </v>
   <v type="int" >       12      161      162      179      182 </v>
   <v type="int" >       12      161      165      181      182 </v>
   <v type="int" >       12      161      178      181      182 </v>
   <v type="int" >       12      161      178      179      182 </v>
   <v type="int" >       12      162      166      166      167 </v>
   <v type="int" >       12      162      163      166      167 </v>
   <v type="int" >       12      162      163      166      169 </v>
   <v type="int" >       12      162      166      166      182 </v>
   <v type="int" >       12      162      166      179      182 </v>
   <v type="int" >       12      162      166      169      179 </v>
   <v type="int" >       12      164      165      168      183 </v>
   <v type="int" >       12      164      165      181      183 </v>
   <v type="int" >       12      164      180      181      183 </v>
   <v type="int" >       12      165      168      169      179 </v>
   <v type="int" >       12      165      166      169      179 </v>
   <v type="int" >       12      165      166      179      182 </v>
   <v type="int" >       12      165      168      179      183 </v>
   <v type="int" >       12      165      179      181      183 </v>
   <v type="int" >       12      165      179      181      182 </v>
   <v type="int" >       12      168      169      170      175 </v>
   <v type="int" >       12      168      169      175      179 </v>
   <v type="int" >       12      168      175      179      183 </v>
   <v type="int" >       12      171      172      176      184 </v>
   <v type="int" >       12      172      176      177      185 </v>
   <v type="int" >       12      172      173      177      185 </v>
   <v type="int" >       12      172      176      184      185 </v>
   <v type="int" >       12      173      177      178      186 </v>
   <v type="int" >       12      173      174      178      186 </v>
   <v type="int" >       12      173      177      185      186 </v>
   <v type="int" >       12      174      178      179      183 </v>
   <v type="int" >       12      174      175      179      183 </v>
   <v type="int" >       12      174      178      183      186 </v>
   <v type="int" >       12      176      177      180      187 </v>
   <v type="int" >       12      176      177      185      187 </v>
   <v type="int" >       12      176      184      185      187 </v>
   <v type="int" >       12      177      180      181      188 </v>
   <v type="int" >       12      177      178      181      188 </v>
   <v type="int" >       12      177      178      186      188 </v>
   <v type="int" >       12      177      180      187      188 </v>
   <v type="int" >       12      177      185      187      188 </v>
   <v type="int" >       12      177      185      186      188 </v>
   <v type="int" >       12      178      181      181      182 </v>
   <v type="int" >       12      178      179      181      182 </v>
   <v type="int" >       12      178      179      181      183 </v>
   <v type="int" >       12      178      181      181      188 </v>
   <v type="int" >       12      178      181      186      188 </v>
   <v type="int" >       12      178      181      183      186 </v>
   <v type="int" >       12      180      181      183      186 </v>
   <v type="int" >       12      180      181      186      188 </v>
   <v type="int" >       12      180      186      187      188 </v>
   <v type="int" >       12      184      185      187      189 </v>
   <v type="int" >       12      185      187      187      188 </v>
   <v type="int" >       12      185      186      187      188 </v>
   <v type="int" >       12      185      187      187      189 </v>
  </varray>
  <i name="volumeweight">      0.00009645 </i>
 </kpoints>
 <parameters>
  <separator name="general" >
   <i type="string" name="SYSTEM">unknown system</i>
   <i type="logical" name="LCOMPAT"> F  </i>
  </separator>
  <separator name="electronic" >
   <i type="string" name="PREC">accura</i>
   <i name="ENMAX">    400.00000000</i>
   <i name="ENAUG">    644.87300000</i>
   <i name="EDIFF">      0.00000100</i>
   <i type="int" name="IALGO">    38</i>
   <i type="int" name="IWAVPR">    10</i>
   <i type="int" name="NBANDS">    24</i>
   <i name="NELECT">     32.00000000</i>
   <i type="int" name="TURBO">     0</i>
[...]
       <r>   -5.8071    1.0000 </r>
       <r>   -5.8071    1.0000 </r>
       <r>   -3.2417    1.0000 </r>
       <r>   -3.2085    1.0000 </r>
       <r>   -3.2085    1.0000 </r>
       <r>   -2.0487    1.0000 </r>
       <r>    6.0746    1.0000 </r>
       <r>    6.0746    1.0000 </r>
       <r>    6.4350    1.0000 </r>
       <r>    6.4350    1.0000 </r>
       <r>    6.7568    1.0000 </r>
       <r>    6.8266    1.0000 </r>
       <r>    6.9383    1.0000 </r>
       <r>    7.0851    1.0000 </r>
       <r>   16.8869    0.0000 </r>
       <r>   17.0392    0.0000 </r>
       <r>   17.0392    0.0000 </r>
       <r>   18.2168    0.0000 </r>
       <r>   18.5741    0.0000 </r>
       <r>   18.6604    0.0000 </r>
       <r>   18.6612    0.0000 </r>
       <r>   18.6835    0.0000 </r>
      </set>
      <set comment="kpoint 187">
       <r>   -6.8782    1.0000 </r>
       <r>   -5.9273    1.0000 </r>
       <r>   -5.8859    1.0000 </r>
       <r>   -5.8859    1.0000 </r>
       <r>   -3.3702    1.0000 </r>
       <r>   -3.3702    1.0000 </r>
       <r>   -3.3671    1.0000 </r>
       <r>   -3.3278    1.0000 </r>
       <r>    6.4956    1.0000 </r>
       <r>    6.4956    1.0000 </r>
       <r>    6.5668    1.0000 </r>
       <r>    6.6923    1.0000 </r>
       <r>    6.7974    1.0000 </r>
       <r>    6.7974    1.0000 </r>
       <r>    7.2180    1.0000 </r>
       <r>    7.4200    1.0000 </r>
       <r>   16.9517    0.0000 </r>
       <r>   16.9517    0.0000 </r>
       <r>   17.1005    0.0000 </r>
       <r>   18.5038    0.0000 </r>
       <r>   18.5948    0.0000 </r>
       <r>   18.6358    0.0000 </r>
       <r>   18.6527    0.0000 </r>
       <r>   18.6534    0.0000 </r>
      </set>
      <set comment="kpoint 188">
       <r>   -6.6719    1.0000 </r>
       <r>   -6.4103    1.0000 </r>
       <r>   -6.4103    1.0000 </r>
       <r>   -5.5892    1.0000 </r>
       <r>   -3.5362    1.0000 </r>
       <r>   -3.4430    1.0000 </r>
       <r>   -2.7315    1.0000 </r>
       <r>   -2.7315    1.0000 </r>
       <r>    6.0980    1.0000 </r>
       <r>    6.6127    1.0000 </r>
       <r>    6.6127    1.0000 </r>
       <r>    6.6447    1.0000 </r>
       <r>    6.7228    1.0000 </r>
       <r>    6.7228    1.0000 </r>
       <r>    6.8665    1.0000 </r>
       <r>    7.2060    1.0000 </r>
       <r>   16.9880    0.0000 </r>
       <r>   16.9880    0.0000 </r>
       <r>   17.0250    0.0000 </r>
       <r>   18.3982    0.0000 </r>
       <r>   18.4284    0.0000 </r>
       <r>   18.6277    0.0000 </r>
       <r>   18.6320    0.0000 </r>
       <r>   18.8174    0.0000 </r>
      </set>
      <set comment="kpoint 189">
       <r>   -6.7912    1.0000 </r>
       <r>   -5.7071    1.0000 </r>
       <r>   -5.7071    1.0000 </r>
       <r>   -5.7071    1.0000 </r>
       <r>   -3.6589    1.0000 </r>
       <r>   -3.6589    1.0000 </r>
       <r>   -3.6589    1.0000 </r>
       <r>   -3.5705    1.0000 </r>
       <r>    6.6923    1.0000 </r>
       <r>    6.6923    1.0000 </r>
       <r>    6.6923    1.0000 </r>
       <r>    6.8276    1.0000 </r>
       <r>    6.8276    1.0000 </r>
       <r>    6.8276    1.0000 </r>
       <r>    7.4501    1.0000 </r>
       <r>    7.4501    1.0000 </r>
       <r>   16.9039    0.0000 </r>
       <r>   16.9039    0.0000 </r>
       <r>   16.9039    0.0000 </r>
       <r>   18.5133    0.0000 </r>
       <r>   18.5134    0.0000 </r>
       <r>   18.6303    0.0000 </r>
       <r>   18.6303    0.0000 </r>
       <r>   18.6308    0.0000 </r>
      </set>
     </set>
    </set>
   </array>
  </eigenvalues>
  <separator name="orbital magnetization" >
   <v name="MAGDIPOLOUT">      0.00000000      0.00000000      0.00000000</v>
  </separator>
  <dos>
   <i name="efermi">      9.84888303 </i>
   <total>
    <array>
     <dimension dim="1">gridpoints</dimension>
     <dimension dim="2">spin</dimension>
     <field>energy</field>
     <field>total</field>
     <field>integrated</field>
     <set>
      <set comment="spin 1">
       <r>   -13.4203     0.0000     0.0000 </r>
       <r>   -13.2972     0.0000     0.0000 </r>
       <r>   -13.1742     0.0000     0.0000 </r>
       <r>   -13.0511     0.0000     0.0000 </r>
       <r>   -12.9280     0.0000     0.0000 </r>
       <r>   -12.8049     0.0000     0.0000 </r>
       <r>   -12.6819     0.0000     0.0000 </r>
       <r>   -12.5588     0.0000     0.0000 </r>
       <r>   -12.4357     0.0000     0.0000 </r>
       <r>   -12.3126     0.0000     0.0000 </r>
       <r>   -12.1896     0.0000     0.0000 </r>
       <r>   -12.0665     0.0000     0.0000 </r>
       <r>   -11.9434     0.0000     0.0000 </r>
       <r>   -11.8203     0.0000     0.0000 </r>
       <r>   -11.6972     0.0378     0.0006 </r>
       <r>   -11.5742     0.1570     0.0154 </r>
       <r>   -11.4511     0.2418     0.0401 </r>
       <r>   -11.3280     0.2754     0.0716 </r>
       <r>   -11.2049     0.3240     0.1084 </r>
       <r>   -11.0819     0.3619     0.1511 </r>
       <r>   -10.9588     0.3921     0.1975 </r>
       <r>   -10.8357     0.4248     0.2477 </r>
       <r>   -10.7126     0.4627     0.3023 </r>
       <r>   -10.5896     0.4852     0.3607 </r>
       <r>   -10.4665     0.5094     0.4219 </r>
       <r>   -10.3434     0.5359     0.4861 </r>
       <r>   -10.2203     0.5643     0.5538 </r>
       <r>   -10.0972     0.5902     0.6250 </r>
       <r>    -9.9742     0.6107     0.6989 </r>
       <r>    -9.8511     0.6345     0.7755 </r>
       <r>    -9.7280     0.6633     0.8553 </r>
       <r>    -9.6049     0.6965     0.9389 </r>
       <r>    -9.4819     0.7340     1.0269 </r>
       <r>    -9.3588     0.7290     1.1166 </r>
       <r>    -9.2357     0.7364     1.2069 </r>
       <r>    -9.1126     0.7526     1.2985 </r>
       <r>    -8.9896     0.7705     1.3920 </r>
       <r>    -8.8665     0.7959     1.4884 </r>
       <r>    -8.7434     0.8183     1.5878 </r>
       <r>    -8.6203     0.8333     1.6895 </r>
       <r>    -8.4973     0.8565     1.7934 </r>
       <r>    -8.3742     0.8840     1.9005 </r>
       <r>    -8.2511     0.9091     2.0109 </r>
       <r>    -8.1280     0.9322     2.1242 </r>
       <r>    -8.0049     0.9393     2.2393 </r>
       <r>    -7.8819     0.9606     2.3562 </r>
       <r>    -7.7588     1.0498     2.4787 </r>
       <r>    -7.6357     1.1390     2.6160 </r>
       <r>    -7.5126     1.1170     2.7556 </r>
       <r>    -7.3896     1.0325     2.8887 </r>
       <r>    -7.2665     1.0479     3.0153 </r>
       <r>    -7.1434     1.0255     3.1431 </r>
       <r>    -7.0203     1.0378     3.2686 </r>
       <r>    -6.8973     1.1645     3.4041 </r>
       <r>    -6.7742     1.1463     3.5494 </r>
       <r>    -6.6511     1.1772     3.6904 </r>
       <r>    -6.5280     1.3087     3.8441 </r>
       <r>    -6.4049     1.3261     4.0072 </r>
       <r>    -6.2819     1.2592     4.1669 </r>
       <r>    -6.1588     1.3103     4.3233 </r>
       <r>    -6.0357     1.3925     4.4922 </r>
       <r>    -5.9126     1.3898     4.6642 </r>
       <r>    -5.7896     1.4202     4.8355 </r>
       <r>    -5.6665     1.4471     5.0141 </r>
       <r>    -5.5434     1.4958     5.1936 </r>
       <r>    -5.4203     1.3889     5.3713 </r>
       <r>    -5.2973     1.4682     5.5493 </r>
       <r>    -5.1742     1.4061     5.7236 </r>
       <r>    -5.0511     1.2943     5.8903 </r>
       <r>    -4.9280     1.2266     6.0439 </r>
       <r>    -4.8049     1.1992     6.1933 </r>
       <r>    -4.6819     1.1689     6.3385 </r>
       <r>    -4.5588     1.1547     6.4813 </r>
       <r>    -4.4357     1.1239     6.6222 </r>
       <r>    -4.3126     1.1807     6.7665 </r>
       <r>    -4.1896     1.0919     6.9066 </r>
       <r>    -4.0665     1.0125     7.0359 </r>
       <r>    -3.9434     0.9627     7.1570 </r>
       <r>    -3.8203     0.9229     7.2728 </r>
       <r>    -3.6973     0.9040     7.3850 </r>
       <r>    -3.5742     0.9450     7.4977 </r>
       <r>    -3.4511     1.0523     7.6196 </r>
       <r>    -3.3280     0.9851     7.7477 </r>
       <r>    -3.2049     1.0858     7.8774 </r>
       <r>    -3.0819     0.9606     8.0024 </r>
       <r>    -2.9588     0.8786     8.1149 </r>
       <r>    -2.8357     0.8901     8.2241 </r>
       <r>    -2.7126     0.9798     8.3430 </r>
       <r>    -2.5896     0.8549     8.4517 </r>
       <r>    -2.4665     0.9857     8.5642 </r>
       <r>    -2.3434     1.1611     8.6966 </r>
       <r>    -2.2203     1.3818     8.8536 </r>
       <r>    -2.0973     1.7471     9.0446 </r>
       <r>    -1.9742     2.0747     9.2834 </r>
       <r>    -1.8511     2.6134     9.5739 </r>
       <r>    -1.7280     2.2405     9.8827 </r>
       <r>    -1.6050     2.1057    10.1496 </r>
       <r>    -1.4819     2.0210    10.4025 </r>
       <r>    -1.3588     1.9860    10.6493 </r>
       <r>    -1.2357     1.7804    10.8839 </r>
       <r>    -1.1126     1.8610    11.1033 </r>
       <r>    -0.9896     1.5945    11.3118 </r>
       <r>    -0.8665     1.4812    11.5003 </r>
       <r>    -0.7434     1.4077    11.6779 </r>
       <r>    -0.6203     1.3529    11.8474 </r>
       <r>    -0.4973     1.3310    12.0126 </r>
       <r>    -0.3742     1.2978    12.1746 </r>
       <r>    -0.2511     1.2114    12.3283 </r>
       <r>    -0.1280     1.2396    12.4810 </r>
       <r>    -0.0050     1.1096    12.6232 </r>
       <r>     0.1181     1.1120    12.7600 </r>
       <r>     0.2412     1.1102    12.8969 </r>
       <r>     0.3643     1.0017    13.0274 </r>
       <r>     0.4874     1.0103    13.1496 </r>
       <r>     0.6104     1.3579    13.2928 </r>
       <r>     0.7335     1.9147    13.4918 </r>
       <r>     0.8566     2.0833    13.7432 </r>
       <r>     0.9797     2.1552    14.0017 </r>
       <r>     1.1027     2.1922    14.2699 </r>
       <r>     1.2258     2.1783    14.5387 </r>
       <r>     1.3489     2.1722    14.8075 </r>
       <r>     1.4720     2.2134    15.0771 </r>
       <r>     1.5950     1.9563    15.3457 </r>
       <r>     1.7181     1.4389    15.5496 </r>
       <r>     1.8412     1.3645    15.7205 </r>
       <r>     1.9643     1.7076    15.9073 </r>
       <r>     2.0874     2.1151    16.1399 </r>
       <r>     2.2104     2.5293    16.4305 </r>
       <r>     2.3335     2.4208    16.7462 </r>
       <r>     2.4566     2.2831    17.0335 </r>
       <r>     2.5797     2.2127    17.3113 </r>
       <r>     2.7027     2.2526    17.5815 </r>
       <r>     2.8258     2.6595    17.8800 </r>
       <r>     2.9489     2.5273    18.2048 </r>
       <r>     3.0720     2.6663    18.5234 </r>
       <r>     3.1950     2.9580    18.8742 </r>
       <r>     3.3181     2.6496    19.2276 </r>
       <r>     3.4412     2.7802    19.5567 </r>
       <r>     3.5643     2.5966    19.8966 </r>
       <r>     3.6874     2.9706    20.2294 </r>
       <r>     3.8104     3.0547    20.5936 </r>
       <r>     3.9335     3.4671    21.0058 </r>
       <r>     4.0566     3.2694    21.4205 </r>
       <r>     4.1797     3.0872    21.8039 </r>
       <r>     4.3027     3.0659    22.1779 </r>
       <r>     4.4258     3.0735    22.5641 </r>
       <r>     4.5489     2.9197    22.9307 </r>
       <r>     4.6720     3.1525    23.2901 </r>
       <r>     4.7950     2.6656    23.6321 </r>
       <r>     4.9181     2.7098    23.9591 </r>
       <r>     5.0412     3.0210    24.3133 </r>
       <r>     5.1643     3.0365    24.6874 </r>
       <r>     5.2873     3.0611    25.0610 </r>
       <r>     5.4104     2.7995    25.4196 </r>
       <r>     5.5335     2.7488    25.7713 </r>
       <r>     5.6566     2.4944    26.0888 </r>
       <r>     5.7797     2.5223    26.3934 </r>
       <r>     5.9027     2.5141    26.7071 </r>
       <r>     6.0258     2.6380    27.0172 </r>
       <r>     6.1489     2.9385    27.3667 </r>
       <r>     6.2720     2.8014    27.7219 </r>
       <r>     6.3950     2.6300    28.0564 </r>
       <r>     6.5181     2.7000    28.3839 </r>
       <r>     6.6412     2.4357    28.7030 </r>
       <r>     6.7643     2.6372    29.0131 </r>
       <r>     6.8873     2.0970    29.3242 </r>
       <r>     7.0104     1.6598    29.5305 </r>
       <r>     7.1335     1.9019    29.7517 </r>
       <r>     7.2566     1.9746    29.9907 </r>
       <r>     7.3797     1.7168    30.2246 </r>
       <r>     7.5027     1.4915    30.4220 </r>
       <r>     7.6258     1.3793    30.5987 </r>
       <r>     7.7489     1.2784    30.7622 </r>
       <r>     7.8720     1.1359    30.9110 </r>
       <r>     7.9950     1.0304    31.0439 </r>
       <r>     8.1181     0.9582    31.1664 </r>
       <r>     8.2412     0.8953    31.2800 </r>
       <r>     8.3643     0.8587    31.3885 </r>
       <r>     8.4873     0.7661    31.4887 </r>
       <r>     8.6104     0.6766    31.5775 </r>
       <r>     8.7335     0.6067    31.6562 </r>
       <r>     8.8566     0.5891    31.7296 </r>
       <r>     8.9797     0.4971    31.7976 </r>
       <r>     9.1027     0.3925    31.8516 </r>
       <r>     9.2258     0.3778    31.8981 </r>
       <r>     9.3489     0.2848    31.9432 </r>
       <r>     9.4720     0.1866    31.9723 </r>
       <r>     9.5950     0.1592    31.9919 </r>
       <r>     9.7181     0.0090    31.9999 </r>
       <r>     9.8412     0.0000    32.0000 </r>
       <r>     9.9643     0.0000    32.0000 </r>
       <r>    10.0873     0.0000    32.0000 </r>
       <r>    10.2104     0.0000    32.0000 </r>
       <r>    10.3335     0.0000    32.0000 </r>
       <r>    10.4566     0.0000    32.0000 </r>
       <r>    10.5797     0.0000    32.0000 </r>
       <r>    10.7027     0.0000    32.0000 </r>
       <r>    10.8258     0.0000    32.0000 </r>
       <r>    10.9489     0.0000    32.0000 </r>
       <r>    11.0720     0.0000    32.0000 </r>
       <r>    11.1950     0.0000    32.0000 </r>
       <r>    11.3181     0.0000    32.0000 </r>
       <r>    11.4412     0.0000    32.0000 </r>
       <r>    11.5643     0.0000    32.0000 </r>
       <r>    11.6873     0.0000    32.0000 </r>
       <r>    11.8104     0.0000    32.0000 </r>
       <r>    11.9335     0.0000    32.0000 </r>
       <r>    12.0566     0.0000    32.0000 </r>
       <r>    12.1796     0.0000    32.0000 </r>
       <r>    12.3027     0.0000    32.0000 </r>
       <r>    12.4258     0.0000    32.0000 </r>
       <r>    12.5489     0.0000    32.0000 </r>
       <r>    12.6720     0.0000    32.0000 </r>
       <r>    12.7950     0.0000    32.0000 </r>
       <r>    12.9181     0.0000    32.0000 </r>
       <r>    13.0412     0.0000    32.0000 </r>
       <r>    13.1643     0.0000    32.0000 </r>
       <r>    13.2873     0.0000    32.0000 </r>
       <r>    13.4104     0.0000    32.0000 </r>
       <r>    13.5335     0.0000    32.0000 </r>
       <r>    13.6566     0.0000    32.0000 </r>
       <r>    13.7796     0.1938    32.0097 </r>
       <r>    13.9027     0.4900    32.0519 </r>
       <r>    14.0258     0.5662    32.1194 </r>
       <r>    14.1489     0.6563    32.1954 </r>
       <r>    14.2720     0.8246    32.2846 </r>
       <r>    14.3950     0.8295    32.3872 </r>
       <r>    14.5181     1.0048    32.4989 </r>
       <r>    14.6412     1.2496    32.6361 </r>
       <r>    14.7643     1.3051    32.7929 </r>
       <r>    14.8873     1.3132    32.9535 </r>
       <r>    15.0104     1.3677    33.1191 </r>
       <r>    15.1335     1.3376    33.2863 </r>
       <r>    15.2566     1.3321    33.4496 </r>
       <r>    15.3796     1.5107    33.6239 </r>
       <r>    15.5027     1.6526    33.8178 </r>
       <r>    15.6258     1.7821    34.0306 </r>
       <r>    15.7489     1.7902    34.2510 </r>
       <r>    15.8720     1.8980    34.4770 </r>
       <r>    15.9950     2.0041    34.7168 </r>
       <r>    16.1181     2.0017    34.9629 </r>
       <r>    16.2412     2.1303    35.2152 </r>
       <r>    16.3643     2.3869    35.4946 </r>
       <r>    16.4873     2.5741    35.8009 </r>
       <r>    16.6104     2.6521    36.1257 </r>
       <r>    16.7335     2.7278    36.4533 </r>
       <r>    16.8566     2.9847    36.8011 </r>
       <r>    16.9796     3.6891    37.2188 </r>
       <r>    17.1027     3.8310    37.6793 </r>
       <r>    17.2258     3.5223    38.1328 </r>
       <r>    17.3489     2.7335    38.5302 </r>
       <r>    17.4720     2.4264    38.8400 </r>
       <r>    17.5950     2.5337    39.1545 </r>
       <r>    17.7181     2.5530    39.4697 </r>
       <r>    17.8412     2.7150    39.7921 </r>
       <r>    17.9643     2.7864    40.1417 </r>
       <r>    18.0873     2.6169    40.4747 </r>
       <r>    18.2104     2.9317    40.8186 </r>
       <r>    18.3335     3.4342    41.2020 </r>
       <r>    18.4566     4.2379    41.6873 </r>
       <r>    18.5796     4.2594    42.2260 </r>
       <r>    18.7027     4.3723    42.7515 </r>
       <r>    18.8258     3.6941    43.2566 </r>
       <r>    18.9489     3.3821    43.6892 </r>
       <r>    19.0720     3.4613    44.1026 </r>
       <r>    19.1950     3.4342    44.5292 </r>
       <r>    19.3181     3.0699    44.9304 </r>
       <r>    19.4412     2.8192    45.2923 </r>
       <r>    19.5643     2.5828    45.6241 </r>
       <r>    19.6873     2.5070    45.9404 </r>
       <r>    19.8104     2.6426    46.2529 </r>
       <r>    19.9335     2.9286    46.5998 </r>
       <r>    20.0566     2.5713    46.9456 </r>
       <r>    20.1796     2.1115    47.2325 </r>
       <r>    20.3027     1.6626    47.4582 </r>
       <r>    20.4258     1.4665    47.6467 </r>
       <r>    20.5489     0.8170    47.7828 </r>
       <r>    20.6719     0.3927    47.8526 </r>
       <r>    20.7950     0.2859    47.8931 </r>
       <r>    20.9181     0.2305    47.9247 </r>
       <r>    21.0412     0.1682    47.9494 </r>
       <r>    21.1643     0.1196    47.9669 </r>
       <r>    21.2873     0.0873    47.9795 </r>
       <r>    21.4104     0.0616    47.9886 </r>
       <r>    21.5335     0.0442    47.9951 </r>
       <r>    21.6566     0.0179    47.9990 </r>
       <r>    21.7796     0.0013    48.0000 </r>
       <r>    21.9027     0.0000    48.0000 </r>
       <r>    22.0258     0.0000    48.0000 </r>
       <r>    22.1489     0.0000    48.0000 </r>
       <r>    22.2719     0.0000    48.0000 </r>
       <r>    22.3950     0.0000    48.0000 </r>
       <r>    22.5181     0.0000    48.0000 </r>
       <r>    22.6412     0.0000    48.0000 </r>
       <r>    22.7643     0.0000    48.0000 </r>
       <r>    22.8873     0.0000    48.0000 </r>
       <r>    23.0104     0.0000    48.0000 </r>
       <r>    23.1335     0.0000    48.0000 </r>
       <r>    23.2566     0.0000    48.0000 </r>
       <r>    23.3796     0.0000    48.0000 </r>
       <r>    23.5027     0.0000    48.0000 </r>
      </set>
     </set>
    </array>
   </total>
  </dos>
 </calculation>
 <structure name="finalpos" >
  <crystal>
   <varray name="basis" >
    <v>       3.57371000       0.00000000       0.00000000 </v>
    <v>       0.14294800       3.57085000       0.00000000 </v>
    <v>       0.14294800       0.13734000       3.56820800 </v>
   </varray>
   <i name="volume">     45.53455296 </i>
   <varray name="rec_basis" >
    <v>       0.27982125      -0.01120178      -0.01077892 </v>
    <v>       0.00000000       0.28004537      -0.01077892 </v>
    <v>       0.00000000       0.00000000       0.28025272 </v>
   </varray>
  </crystal>
  <varray name="positions" >
   <v>       0.25000000       0.75000000       0.25000000 </v>
   <v>       0.00000000       0.00000000       0.50000000 </v>
   <v>       0.25000000       0.25000000       0.75000000 </v>
   <v>       0.00000000       0.50000000       0.00000000 </v>
   <v>       0.75000000       0.75000000       0.75000000 </v>
   <v>       0.50000000       0.00000000       0.00000000 </v>
   <v>       0.75000000       0.25000000       0.25000000 </v>
   <v>       0.50000000       0.50000000       0.50000000 </v>
  </varray>
 </structure>
</modeling>
