  64  64   0   0
  0.5667860E+01  0.7107835E-09  0.7107835E-09  0.7179999E-09  0.5000000E-15
  1.000000000000000E-004
  CAR 
 unknown system                          
     23.18527341    -13.38300290  301     10.15020659      1.00000000
    -13.383  0.0000E+00  0.0000E+00
    -13.261  0.0000E+00  0.0000E+00
    -13.139  0.0000E+00  0.0000E+00
    -13.017  0.0000E+00  0.0000E+00
    -12.895  0.0000E+00  0.0000E+00
    -12.774  0.0000E+00  0.0000E+00
    -12.652  0.0000E+00  0.0000E+00
    -12.530  0.0000E+00  0.0000E+00
    -12.408  0.0000E+00  0.0000E+00
    -12.286  0.0000E+00  0.0000E+00
    -12.164  0.0000E+00  0.0000E+00
    -12.042  0.1370E-14  0.1670E-15
    -11.920  0.9826E-07  0.1198E-07
    -11.798  0.2755E-02  0.3358E-03
    -11.676  0.2297E+00  0.2834E-01
    -11.555  0.1209E+01  0.1757E+00
    -11.433  0.1382E+01  0.3441E+00
    -11.311  0.2806E+01  0.6862E+00
    -11.189  0.1492E+01  0.8680E+00
    -11.067  0.3509E+01  0.1296E+01
    -10.945  0.2813E+01  0.1639E+01
    -10.823  0.3793E+01  0.2101E+01
    -10.701  0.2273E+01  0.2378E+01
    -10.579  0.4576E+01  0.2936E+01
    -10.458  0.4277E+01  0.3457E+01
    -10.336  0.4949E+01  0.4060E+01
    -10.214  0.2330E+01  0.4344E+01
    -10.092  0.4596E+01  0.4904E+01
     -9.970  0.6247E+01  0.5666E+01
     -9.848  0.5476E+01  0.6333E+01
     -9.726  0.4320E+01  0.6860E+01
     -9.604  0.4014E+01  0.7349E+01
     -9.482  0.6791E+01  0.8177E+01
     -9.360  0.5026E+01  0.8790E+01
     -9.239  0.5498E+01  0.9460E+01
     -9.117  0.6508E+01  0.1025E+02
     -8.995  0.7389E+01  0.1115E+02
     -8.873  0.5935E+01  0.1188E+02
     -8.751  0.5463E+01  0.1254E+02
     -8.629  0.3723E+01  0.1300E+02
     -8.507  0.9121E+01  0.1411E+02
     -8.385  0.7329E+01  0.1500E+02
     -8.263  0.9071E+01  0.1611E+02
     -8.142  0.5952E+01  0.1683E+02
     -8.020  0.6168E+01  0.1759E+02
     -7.898  0.7021E+01  0.1844E+02
     -7.776  0.8002E+01  0.1942E+02
     -7.654  0.6125E+01  0.2016E+02
     -7.532  0.1059E+02  0.2145E+02
     -7.410  0.8890E+01  0.2254E+02
     -7.288  0.6735E+01  0.2336E+02
     -7.166  0.6603E+01  0.2416E+02
     -7.045  0.1262E+02  0.2570E+02
     -6.923  0.9090E+01  0.2681E+02
     -6.801  0.5166E+01  0.2744E+02
     -6.679  0.8521E+01  0.2848E+02
     -6.557  0.9773E+01  0.2967E+02
     -6.435  0.1071E+02  0.3097E+02
     -6.313  0.1100E+02  0.3232E+02
     -6.191  0.1211E+02  0.3379E+02
     -6.069  0.1137E+02  0.3518E+02
     -5.947  0.9521E+01  0.3634E+02
     -5.826  0.1028E+02  0.3759E+02
     -5.704  0.9518E+01  0.3875E+02
     -5.582  0.1557E+02  0.4065E+02
     -5.460  0.1231E+02  0.4215E+02
     -5.338  0.1043E+02  0.4342E+02
     -5.216  0.9497E+01  0.4458E+02
     -5.094  0.1224E+02  0.4607E+02
     -4.972  0.1265E+02  0.4761E+02
     -4.850  0.8981E+01  0.4871E+02
     -4.729  0.8891E+01  0.4979E+02
     -4.607  0.1011E+02  0.5102E+02
     -4.485  0.8473E+01  0.5205E+02
     -4.363  0.4859E+01  0.5265E+02
     -4.241  0.1164E+02  0.5407E+02
     -4.119  0.1079E+02  0.5538E+02
     -3.997  0.4509E+01  0.5593E+02
     -3.875  0.7885E+01  0.5689E+02
     -3.753  0.1095E+02  0.5823E+02
     -3.631  0.9263E+01  0.5936E+02
     -3.510  0.8604E+01  0.6041E+02
     -3.388  0.3929E+01  0.6088E+02
     -3.266  0.7112E+01  0.6175E+02
     -3.144  0.8226E+01  0.6275E+02
     -3.022  0.6774E+01  0.6358E+02
     -2.900  0.7847E+01  0.6454E+02
     -2.778  0.1375E+02  0.6621E+02
     -2.656  0.1141E+02  0.6760E+02
     -2.534  0.9219E+01  0.6873E+02
     -2.413  0.5999E+01  0.6946E+02
     -2.291  0.1056E+02  0.7074E+02
     -2.169  0.1327E+02  0.7236E+02
     -2.047  0.7950E+01  0.7333E+02
     -1.925  0.1090E+02  0.7466E+02
     -1.803  0.1312E+02  0.7626E+02
     -1.681  0.2161E+02  0.7889E+02
     -1.559  0.2319E+02  0.8172E+02
     -1.437  0.2471E+02  0.8473E+02
     -1.315  0.1810E+02  0.8694E+02
     -1.194  0.1162E+02  0.8836E+02
     -1.072  0.1179E+02  0.8979E+02
     -0.950  0.6700E+01  0.9061E+02
     -0.828  0.1012E+02  0.9184E+02
     -0.706  0.1253E+02  0.9337E+02
     -0.584  0.1012E+02  0.9461E+02
     -0.462  0.6884E+01  0.9544E+02
     -0.340  0.1229E+02  0.9694E+02
     -0.218  0.1473E+02  0.9874E+02
     -0.097  0.1407E+02  0.1005E+03
      0.025  0.7772E+01  0.1014E+03
      0.147  0.3366E+01  0.1018E+03
      0.269  0.2049E+01  0.1021E+03
      0.391  0.1185E+02  0.1035E+03
      0.513  0.1699E+02  0.1056E+03
      0.635  0.8151E+01  0.1066E+03
      0.757  0.7646E+01  0.1075E+03
      0.879  0.1154E+02  0.1089E+03
      1.001  0.2105E+02  0.1115E+03
      1.122  0.2302E+02  0.1143E+03
      1.244  0.1966E+02  0.1167E+03
      1.366  0.1099E+02  0.1180E+03
      1.488  0.1052E+02  0.1193E+03
      1.610  0.1427E+02  0.1210E+03
      1.732  0.1385E+02  0.1227E+03
      1.854  0.2751E+02  0.1261E+03
      1.976  0.2028E+02  0.1286E+03
      2.098  0.9378E+01  0.1297E+03
      2.219  0.1332E+02  0.1313E+03
      2.341  0.1651E+02  0.1333E+03
      2.463  0.2081E+02  0.1359E+03
      2.585  0.2229E+02  0.1386E+03
      2.707  0.1762E+02  0.1407E+03
      2.829  0.1430E+02  0.1425E+03
      2.951  0.1864E+02  0.1447E+03
      3.073  0.2049E+02  0.1472E+03
      3.195  0.1802E+02  0.1494E+03
      3.317  0.2374E+02  0.1523E+03
      3.438  0.2848E+02  0.1558E+03
      3.560  0.2778E+02  0.1592E+03
      3.682  0.2158E+02  0.1618E+03
      3.804  0.1676E+02  0.1639E+03
      3.926  0.2309E+02  0.1667E+03
      4.048  0.2545E+02  0.1698E+03
      4.170  0.3325E+02  0.1738E+03
      4.292  0.3091E+02  0.1776E+03
      4.414  0.1767E+02  0.1798E+03
      4.535  0.2118E+02  0.1823E+03
      4.657  0.2323E+02  0.1852E+03
      4.779  0.2183E+02  0.1878E+03
      4.901  0.1966E+02  0.1902E+03
      5.023  0.2481E+02  0.1933E+03
      5.145  0.3020E+02  0.1969E+03
      5.267  0.2220E+02  0.1996E+03
      5.389  0.1918E+02  0.2020E+03
      5.511  0.2342E+02  0.2048E+03
      5.633  0.1753E+02  0.2070E+03
      5.754  0.2658E+02  0.2102E+03
      5.876  0.1970E+02  0.2126E+03
      5.998  0.1562E+02  0.2145E+03
      6.120  0.2496E+02  0.2176E+03
      6.242  0.2403E+02  0.2205E+03
      6.364  0.2164E+02  0.2231E+03
      6.486  0.2238E+02  0.2258E+03
      6.608  0.1793E+02  0.2280E+03
      6.730  0.1461E+02  0.2298E+03
      6.851  0.1632E+02  0.2318E+03
      6.973  0.2431E+02  0.2348E+03
      7.095  0.2549E+02  0.2379E+03
      7.217  0.1419E+02  0.2396E+03
      7.339  0.7162E+01  0.2405E+03
      7.461  0.1101E+02  0.2418E+03
      7.583  0.1354E+02  0.2435E+03
      7.705  0.9711E+01  0.2447E+03
      7.827  0.1409E+02  0.2464E+03
      7.948  0.8134E+01  0.2474E+03
      8.070  0.7828E+01  0.2483E+03
      8.192  0.7246E+01  0.2492E+03
      8.314  0.6478E+01  0.2500E+03
      8.436  0.7483E+01  0.2509E+03
      8.558  0.7640E+01  0.2518E+03
      8.680  0.4539E+01  0.2524E+03
      8.802  0.3977E+01  0.2529E+03
      8.924  0.6729E+01  0.2537E+03
      9.046  0.4716E+01  0.2543E+03
      9.167  0.2712E+01  0.2546E+03
      9.289  0.2531E+01  0.2549E+03
      9.411  0.3455E+01  0.2553E+03
      9.533  0.3015E+01  0.2557E+03
      9.655  0.1239E+01  0.2558E+03
      9.777  0.9707E+00  0.2560E+03
      9.899  0.2699E+00  0.2560E+03
     10.021  0.1396E-01  0.2560E+03
     10.143  0.1913E-05  0.2560E+03
     10.264  0.1047E-12  0.2560E+03
     10.386  0.0000E+00  0.2560E+03
     10.508  0.0000E+00  0.2560E+03
     10.630  0.0000E+00  0.2560E+03
     10.752  0.0000E+00  0.2560E+03
     10.874  0.0000E+00  0.2560E+03
     10.996  0.0000E+00  0.2560E+03
     11.118  0.0000E+00  0.2560E+03
     11.240  0.0000E+00  0.2560E+03
     11.362  0.0000E+00  0.2560E+03
     11.483  0.0000E+00  0.2560E+03
     11.605  0.0000E+00  0.2560E+03
     11.727  0.0000E+00  0.2560E+03
     11.849  0.0000E+00  0.2560E+03
     11.971  0.0000E+00  0.2560E+03
     12.093  0.0000E+00  0.2560E+03
     12.215  0.0000E+00  0.2560E+03
     12.337  0.0000E+00  0.2560E+03
     12.459  0.0000E+00  0.2560E+03
     12.580  0.0000E+00  0.2560E+03
     12.702  0.0000E+00  0.2560E+03
     12.824  0.0000E+00  0.2560E+03
     12.946  0.0000E+00  0.2560E+03
     13.068  0.0000E+00  0.2560E+03
     13.190  0.0000E+00  0.2560E+03
     13.312  0.0000E+00  0.2560E+03
     13.434  0.0000E+00  0.2560E+03
     13.556  0.3595E-10  0.2560E+03
     13.678  0.8827E-04  0.2560E+03
     13.799  0.1222E+00  0.2560E+03
     13.921  0.7156E+00  0.2561E+03
     14.043  0.5910E+00  0.2562E+03
     14.165  0.3279E+01  0.2566E+03
     14.287  0.3211E+01  0.2570E+03
     14.409  0.6242E+01  0.2577E+03
     14.531  0.5347E+01  0.2584E+03
     14.653  0.4353E+01  0.2589E+03
     14.775  0.4470E+01  0.2595E+03
     14.896  0.9883E+01  0.2607E+03
     15.018  0.1320E+02  0.2623E+03
     15.140  0.1048E+02  0.2635E+03
     15.262  0.1219E+02  0.2650E+03
     15.384  0.1159E+02  0.2664E+03
     15.506  0.1245E+02  0.2680E+03
     15.628  0.1206E+02  0.2694E+03
     15.750  0.1281E+02  0.2710E+03
     15.872  0.1800E+02  0.2732E+03
     15.994  0.1519E+02  0.2750E+03
     16.115  0.2021E+02  0.2775E+03
     16.237  0.1618E+02  0.2795E+03
     16.359  0.1712E+02  0.2816E+03
     16.481  0.1508E+02  0.2834E+03
     16.603  0.2225E+02  0.2861E+03
     16.725  0.2228E+02  0.2888E+03
     16.847  0.1873E+02  0.2911E+03
     16.969  0.1905E+02  0.2934E+03
     17.091  0.2381E+02  0.2963E+03
     17.212  0.1556E+02  0.2982E+03
     17.334  0.1803E+02  0.3004E+03
     17.456  0.2091E+02  0.3030E+03
     17.578  0.3759E+02  0.3076E+03
     17.700  0.3859E+02  0.3123E+03
     17.822  0.3430E+02  0.3164E+03
     17.944  0.2653E+02  0.3197E+03
     18.066  0.2563E+02  0.3228E+03
     18.188  0.2919E+02  0.3264E+03
     18.310  0.2811E+02  0.3298E+03
     18.431  0.3390E+02  0.3339E+03
     18.553  0.3358E+02  0.3380E+03
     18.675  0.3411E+02  0.3422E+03
     18.797  0.3183E+02  0.3461E+03
     18.919  0.3213E+02  0.3500E+03
     19.041  0.3270E+02  0.3540E+03
     19.163  0.2533E+02  0.3570E+03
     19.285  0.2211E+02  0.3597E+03
     19.407  0.2549E+02  0.3628E+03
     19.528  0.2408E+02  0.3658E+03
     19.650  0.2236E+02  0.3685E+03
     19.772  0.3032E+02  0.3722E+03
     19.894  0.2766E+02  0.3756E+03
     20.016  0.1843E+02  0.3778E+03
     20.138  0.1595E+02  0.3798E+03
     20.260  0.9269E+01  0.3809E+03
     20.382  0.4277E+01  0.3814E+03
     20.504  0.5784E+01  0.3821E+03
     20.625  0.4726E+01  0.3827E+03
     20.747  0.3412E+01  0.3831E+03
     20.869  0.2760E+01  0.3834E+03
     20.991  0.5582E+00  0.3835E+03
     21.113  0.1169E+01  0.3837E+03
     21.235  0.9187E+00  0.3838E+03
     21.357  0.5573E+00  0.3838E+03
     21.479  0.5329E+00  0.3839E+03
     21.601  0.7926E+00  0.3840E+03
     21.723  0.1576E-01  0.3840E+03
     21.844  0.4469E-06  0.3840E+03
     21.966  0.5667E-14  0.3840E+03
     22.088  0.0000E+00  0.3840E+03
     22.210  0.0000E+00  0.3840E+03
     22.332  0.0000E+00  0.3840E+03
     22.454  0.0000E+00  0.3840E+03
     22.576  0.0000E+00  0.3840E+03
     22.698  0.0000E+00  0.3840E+03
     22.820  0.0000E+00  0.3840E+03
     22.941  0.0000E+00  0.3840E+03
     23.063  0.0000E+00  0.3840E+03
     23.185  0.0000E+00  0.3840E+03
