  64   64
1 1
    44.689968847179998    -0.000000000000000     0.000000000000000
    -0.000000000000000    44.689968847179998    -0.000000000000000
     0.000000000000000    -0.000000000000000    44.336423861080000
1 2
    -0.165090714560000     0.000000000000000    -0.000000000000000
     0.000000000000000    -0.094393007680000    -0.000000000000000
    -0.000000000000000    -0.000000000000000    -0.088679855420000
1 3
    -0.094393007680000    -0.000000000000000     0.000000000000000
    -0.000000000000000    -0.165090714560000    -0.000000000000000
     0.000000000000000    -0.000000000000000    -0.088679855420000
1 4
    -0.123076717000000    -0.000000000000000     0.000000000000000
    -0.000000000000000    -0.123076717000000     0.000000000000000
     0.000000000000000     0.000000000000000     0.566529202830000
1 5
    -0.098987095070000    -0.000000000000000    -0.000000000000000
    -0.000000000000000    -0.098987095070000    -0.000000000000000
    -0.000000000000000    -0.000000000000000    -0.169472807800000
1 6
    -0.118053957020000     0.000000000000000     0.000000000000000
     0.000000000000000     0.576610275350000    -0.000000000000000
     0.000000000000000    -0.000000000000000    -0.116250865700000
1 7
     0.576610275350000    -0.000000000000000    -0.000000000000000
    -0.000000000000000    -0.118053957020000    -0.000000000000000
    -0.000000000000000    -0.000000000000000    -0.116250865700000
1 8
    -0.052990370020000    -0.000000000000000    -0.000000000000000
    -0.000000000000000    -0.052990370020000     0.000000000000000
    -0.000000000000000     0.000000000000000    -0.051723449740000
1 9
     0.159286999360000     0.092166288390000    -0.025474970670000
     0.092166288390000     0.061950816240000    -0.090862374230000
    -0.025474970670000    -0.090862374230000     0.153310686090000
1 10
    -0.094354812700000     0.119045465070000     0.218680433480000
     0.119045465070000    -0.094354812700000    -0.218680433480000
     0.218680433480000    -0.218680433480000    -0.340601692280000
1 11
    -9.260691072389999     2.181475654650000     2.222539942440000
     2.181475654650000    -9.260691072389999    -2.222539942440000
     2.222539942440000    -2.222539942440000    -9.187263745650000
1 12
     0.061950816240000     0.092166288390000     0.090862374230000
     0.092166288390000     0.159286999360000     0.025474970670000
     0.090862374230000     0.025474970670000     0.153310686090000
1 13
    -0.349214420050000     0.216747623360000     0.219439048240000
     0.216747623360000    -0.082203884550000    -0.102960453980000
     0.219439048240000    -0.102960453980000    -0.078779548450000
1 14
     0.033786702780000     0.029929129910000     0.031562025360000
     0.029929129910000     0.033786702780000    -0.031562025360000
     0.031562025360000    -0.031562025360000     0.033408716610000
1 15
     0.160572776910000    -0.033510089450000     0.100291609780000
    -0.033510089450000     0.160572776910000    -0.100291609780000
     0.100291609780000    -0.100291609780000     0.074866124430000
1 16
    -0.082203884550000     0.216747623360000     0.102960453980000
     0.216747623360000    -0.349214420050000    -0.219439048240000
     0.102960453980000    -0.219439048240000    -0.078779548450000
1 17
     1.404132742900000    -0.733039857810000     0.718842855810000
     0.733039857810000    -1.519163050780000     1.581159148490000
    -0.718842855810000     1.581159148490000    -1.535553982040000
1 18
     0.060923755630000    -0.038077632530000     0.038696799580000
     0.038077632530000    -0.084193746920000    -0.075273777770000
    -0.038696799580000    -0.075273777770000    -0.084786970210000
1 19
     1.404132742900000    -0.733039857810000    -0.718842855810000
     0.733039857810000    -1.519163050780000    -1.581159148490000
     0.718842855810000    -1.581159148490000    -1.535553982040000
1 20
     0.060923755630000    -0.038077632530000    -0.038696799580000
     0.038077632530000    -0.084193746920000     0.075273777770000
     0.038696799580000     0.075273777770000    -0.084786970210000
1 21
     1.404132742900000     0.733039857810000     0.718842855810000
    -0.733039857810000    -1.519163050780000    -1.581159148490000
    -0.718842855810000    -1.581159148490000    -1.535553982040000
1 22
     0.060923755630000     0.038077632530000     0.038696799580000
    -0.038077632530000    -0.084193746920000     0.075273777770000
    -0.038696799580000     0.075273777770000    -0.084786970210000
1 23
     1.404132742900000     0.733039857810000    -0.718842855810000
    -0.733039857810000    -1.519163050780000     1.581159148490000
     0.718842855810000     1.581159148490000    -1.535553982040000
1 24
     0.060923755630000     0.038077632530000    -0.038696799580000
    -0.038077632530000    -0.084193746920000    -0.075273777770000
     0.038696799580000    -0.075273777770000    -0.084786970210000
1 25
    -9.260691072389999    -2.181475654650000    -2.222539942440000
    -2.181475654650000    -9.260691072389999    -2.222539942440000
    -2.222539942440000    -2.222539942440000    -9.187263745650000
1 26
     0.061950816240000    -0.092166288390000    -0.090862374230000
    -0.092166288390000     0.159286999360000     0.025474970670000
    -0.090862374230000     0.025474970670000     0.153310686090000
1 27
     0.159286999360000    -0.092166288390000     0.025474970670000
    -0.092166288390000     0.061950816240000    -0.090862374230000
     0.025474970670000    -0.090862374230000     0.153310686090000
1 28
    -0.094354812700000    -0.119045465070000    -0.218680433480000
    -0.119045465070000    -0.094354812700000    -0.218680433480000
    -0.218680433480000    -0.218680433480000    -0.340601692280000
1 29
     0.160572776910000     0.033510089450000    -0.100291609780000
     0.033510089450000     0.160572776910000    -0.100291609780000
    -0.100291609780000    -0.100291609780000     0.074866124430000
1 30
    -0.082203884550000    -0.216747623360000    -0.102960453980000
    -0.216747623360000    -0.349214420050000    -0.219439048240000
    -0.102960453980000    -0.219439048240000    -0.078779548450000
1 31
    -0.349214420050000    -0.216747623360000    -0.219439048240000
    -0.216747623360000    -0.082203884550000    -0.102960453980000
    -0.219439048240000    -0.102960453980000    -0.078779548450000
1 32
     0.033786702780000    -0.029929129910000    -0.031562025360000
    -0.029929129910000     0.033786702780000    -0.031562025360000
    -0.031562025360000    -0.031562025360000     0.033408716610000
1 33
    -1.519163050780000     0.733039857810000    -1.581159148490000
    -0.733039857810000     1.404132742900000    -0.718842855810000
    -1.581159148490000     0.718842855810000    -1.535553982040000
1 34
    -1.519163050780000     0.733039857810000     1.581159148490000
    -0.733039857810000     1.404132742900000     0.718842855810000
     1.581159148490000    -0.718842855810000    -1.535553982040000
1 35
    -0.084193746920000     0.038077632530000     0.075273777770000
    -0.038077632530000     0.060923755630000    -0.038696799580000
     0.075273777770000     0.038696799580000    -0.084786970210000
1 36
    -0.084193746920000     0.038077632530000    -0.075273777770000
    -0.038077632530000     0.060923755630000     0.038696799580000
    -0.075273777770000    -0.038696799580000    -0.084786970210000
1 37
    -1.519163050780000    -0.733039857810000     1.581159148490000
     0.733039857810000     1.404132742900000    -0.718842855810000
     1.581159148490000     0.718842855810000    -1.535553982040000
1 38
    -1.519163050780000    -0.733039857810000    -1.581159148490000
     0.733039857810000     1.404132742900000     0.718842855810000
    -1.581159148490000    -0.718842855810000    -1.535553982040000
1 39
    -0.084193746920000    -0.038077632530000    -0.075273777770000
     0.038077632530000     0.060923755630000    -0.038696799580000
    -0.075273777770000     0.038696799580000    -0.084786970210000
1 40
    -0.084193746920000    -0.038077632530000     0.075273777770000
     0.038077632530000     0.060923755630000     0.038696799580000
     0.075273777770000    -0.038696799580000    -0.084786970210000
1 41
     0.159286999360000    -0.092166288390000    -0.025474970670000
    -0.092166288390000     0.061950816240000     0.090862374230000
    -0.025474970670000     0.090862374230000     0.153310686090000
1 42
    -0.094354812700000    -0.119045465070000     0.218680433480000
    -0.119045465070000    -0.094354812700000     0.218680433480000
     0.218680433480000     0.218680433480000    -0.340601692280000
1 43
    -9.260691072389999    -2.181475654650000     2.222539942440000
    -2.181475654650000    -9.260691072389999     2.222539942440000
     2.222539942440000     2.222539942440000    -9.187263745650000
1 44
     0.061950816240000    -0.092166288390000     0.090862374230000
    -0.092166288390000     0.159286999360000    -0.025474970670000
     0.090862374230000    -0.025474970670000     0.153310686090000
1 45
    -0.349214420050000    -0.216747623360000     0.219439048240000
    -0.216747623360000    -0.082203884550000     0.102960453980000
     0.219439048240000     0.102960453980000    -0.078779548450000
1 46
     0.033786702780000    -0.029929129910000     0.031562025360000
    -0.029929129910000     0.033786702780000     0.031562025360000
     0.031562025360000     0.031562025360000     0.033408716610000
1 47
     0.160572776910000     0.033510089450000     0.100291609780000
     0.033510089450000     0.160572776910000     0.100291609780000
     0.100291609780000     0.100291609780000     0.074866124430000
1 48
    -0.082203884550000    -0.216747623360000     0.102960453980000
    -0.216747623360000    -0.349214420050000     0.219439048240000
     0.102960453980000     0.219439048240000    -0.078779548450000
1 49
    -1.561348084980000     1.638380032930000    -0.726100022120000
     1.638380032930000    -1.561348084980000     0.726100022120000
     0.726100022120000    -0.726100022120000     1.388062865670000
1 50
    -1.561348084980000    -1.638380032930000    -0.726100022120000
    -1.638380032930000    -1.561348084980000    -0.726100022120000
     0.726100022120000     0.726100022120000     1.388062865670000
1 51
    -1.561348084980000    -1.638380032930000     0.726100022120000
    -1.638380032930000    -1.561348084980000     0.726100022120000
    -0.726100022120000    -0.726100022120000     1.388062865670000
1 52
    -1.561348084980000     1.638380032930000     0.726100022120000
     1.638380032930000    -1.561348084980000    -0.726100022120000
    -0.726100022120000     0.726100022120000     1.388062865670000
1 53
    -0.082981596800000    -0.072750987330000    -0.039356083370000
    -0.072750987330000    -0.082981596800000     0.039356083370000
     0.039356083370000    -0.039356083370000     0.055173609490000
1 54
    -0.082981596800000     0.072750987330000    -0.039356083370000
     0.072750987330000    -0.082981596800000    -0.039356083370000
     0.039356083370000     0.039356083370000     0.055173609490000
1 55
    -0.082981596800000     0.072750987330000     0.039356083370000
     0.072750987330000    -0.082981596800000     0.039356083370000
    -0.039356083370000    -0.039356083370000     0.055173609490000
1 56
    -0.082981596800000    -0.072750987330000     0.039356083370000
    -0.072750987330000    -0.082981596800000    -0.039356083370000
    -0.039356083370000     0.039356083370000     0.055173609490000
1 57
    -9.260691072389999     2.181475654650000    -2.222539942440000
     2.181475654650000    -9.260691072389999     2.222539942440000
    -2.222539942440000     2.222539942440000    -9.187263745650000
1 58
     0.061950816240000     0.092166288390000    -0.090862374230000
     0.092166288390000     0.159286999360000    -0.025474970670000
    -0.090862374230000    -0.025474970670000     0.153310686090000
1 59
     0.159286999360000     0.092166288390000     0.025474970670000
     0.092166288390000     0.061950816240000     0.090862374230000
     0.025474970670000     0.090862374230000     0.153310686090000
1 60
    -0.094354812700000     0.119045465070000    -0.218680433480000
     0.119045465070000    -0.094354812700000     0.218680433480000
    -0.218680433480000     0.218680433480000    -0.340601692280000
1 61
     0.160572776910000    -0.033510089450000    -0.100291609780000
    -0.033510089450000     0.160572776910000     0.100291609780000
    -0.100291609780000     0.100291609780000     0.074866124430000
1 62
    -0.082203884550000     0.216747623360000    -0.102960453980000
     0.216747623360000    -0.349214420050000     0.219439048240000
    -0.102960453980000     0.219439048240000    -0.078779548450000
1 63
    -0.349214420050000     0.216747623360000    -0.219439048240000
     0.216747623360000    -0.082203884550000     0.102960453980000
    -0.219439048240000     0.102960453980000    -0.078779548450000
1 64
     0.033786702780000     0.029929129910000    -0.031562025360000
     0.029929129910000     0.033786702780000     0.031562025360000
    -0.031562025360000     0.031562025360000     0.033408716610000
2 1
    -0.165090714560000     0.000000000000000    -0.000000000000000
     0.000000000000000    -0.094393007680000    -0.000000000000000
    -0.000000000000000    -0.000000000000000    -0.088679855420000
2 2
    44.689968847179998    -0.000000000000000     0.000000000000000
    -0.000000000000000    44.689968847179998    -0.000000000000000
     0.000000000000000    -0.000000000000000    44.336423861080000
2 3
    -0.123076717000000    -0.000000000000000     0.000000000000000
    -0.000000000000000    -0.123076717000000     0.000000000000000
     0.000000000000000     0.000000000000000     0.566529202830000
2 4
    -0.094393007680000    -0.000000000000000     0.000000000000000
    -0.000000000000000    -0.165090714560000    -0.000000000000000
     0.000000000000000    -0.000000000000000    -0.088679855420000
2 5
    -0.118053957020000     0.000000000000000     0.000000000000000
     0.000000000000000     0.576610275350000    -0.000000000000000
     0.000000000000000    -0.000000000000000    -0.116250865700000
2 6
    -0.098987095070000    -0.000000000000000    -0.000000000000000
    -0.000000000000000    -0.098987095070000    -0.000000000000000
    -0.000000000000000    -0.000000000000000    -0.169472807800000
2 7
    -0.052990370020000    -0.000000000000000    -0.000000000000000
    -0.000000000000000    -0.052990370020000     0.000000000000000
    -0.000000000000000     0.000000000000000    -0.051723449740000
2 8
     0.576610275350000    -0.000000000000000    -0.000000000000000
    -0.000000000000000    -0.118053957020000    -0.000000000000000
    -0.000000000000000    -0.000000000000000    -0.116250865700000
2 9
    -0.094354812700000     0.119045465070000     0.218680433480000
     0.119045465070000    -0.094354812700000    -0.218680433480000
     0.218680433480000    -0.218680433480000    -0.340601692280000
2 10
     0.159286999360000     0.092166288390000    -0.025474970670000
     0.092166288390000     0.061950816240000    -0.090862374230000
    -0.025474970670000    -0.090862374230000     0.153310686090000
2 11
     0.061950816240000     0.092166288390000     0.090862374230000
     0.092166288390000     0.159286999360000     0.025474970670000
     0.090862374230000     0.025474970670000     0.153310686090000
2 12
    -9.260691072389999     2.181475654650000     2.222539942440000
     2.181475654650000    -9.260691072389999    -2.222539942440000
     2.222539942440000    -2.222539942440000    -9.187263745650000
2 13
     0.033786702780000     0.029929129910000     0.031562025360000
     0.029929129910000     0.033786702780000    -0.031562025360000
     0.031562025360000    -0.031562025360000     0.033408716610000
2 14
    -0.349214420050000     0.216747623360000     0.219439048240000
     0.216747623360000    -0.082203884550000    -0.102960453980000
     0.219439048240000    -0.102960453980000    -0.078779548450000
2 15
    -0.082203884550000     0.216747623360000     0.102960453980000
     0.216747623360000    -0.349214420050000    -0.219439048240000
     0.102960453980000    -0.219439048240000    -0.078779548450000
2 16
     0.160572776910000    -0.033510089450000     0.100291609780000
    -0.033510089450000     0.160572776910000    -0.100291609780000
     0.100291609780000    -0.100291609780000     0.074866124430000
2 17
     0.060923755630000    -0.038077632530000     0.038696799580000
     0.038077632530000    -0.084193746920000    -0.075273777770000
    -0.038696799580000    -0.075273777770000    -0.084786970210000
2 18
     1.404132742900000    -0.733039857810000     0.718842855810000
     0.733039857810000    -1.519163050780000     1.581159148490000
    -0.718842855810000     1.581159148490000    -1.535553982040000
2 19
     0.060923755630000    -0.038077632530000    -0.038696799580000
     0.038077632530000    -0.084193746920000     0.075273777770000
     0.038696799580000     0.075273777770000    -0.084786970210000
2 20
     1.404132742900000    -0.733039857810000    -0.718842855810000
     0.733039857810000    -1.519163050780000    -1.581159148490000
     0.718842855810000    -1.581159148490000    -1.535553982040000
2 21
     0.060923755630000     0.038077632530000     0.038696799580000
    -0.038077632530000    -0.084193746920000     0.075273777770000
    -0.038696799580000     0.075273777770000    -0.084786970210000
2 22
     1.404132742900000     0.733039857810000     0.718842855810000
    -0.733039857810000    -1.519163050780000    -1.581159148490000
    -0.718842855810000    -1.581159148490000    -1.535553982040000
2 23
     0.060923755630000     0.038077632530000    -0.038696799580000
    -0.038077632530000    -0.084193746920000    -0.075273777770000
     0.038696799580000    -0.075273777770000    -0.084786970210000
2 24
     1.404132742900000     0.733039857810000    -0.718842855810000
    -0.733039857810000    -1.519163050780000     1.581159148490000
     0.718842855810000     1.581159148490000    -1.535553982040000
2 25
     0.061950816240000    -0.092166288390000    -0.090862374230000
    -0.092166288390000     0.159286999360000     0.025474970670000
    -0.090862374230000     0.025474970670000     0.153310686090000
2 26
    -9.260691072389999    -2.181475654650000    -2.222539942440000
    -2.181475654650000    -9.260691072389999    -2.222539942440000
    -2.222539942440000    -2.222539942440000    -9.187263745650000
2 27
    -0.094354812700000    -0.119045465070000    -0.218680433480000
    -0.119045465070000    -0.094354812700000    -0.218680433480000
    -0.218680433480000    -0.218680433480000    -0.340601692280000
2 28
     0.159286999360000    -0.092166288390000     0.025474970670000
    -0.092166288390000     0.061950816240000    -0.090862374230000
     0.025474970670000    -0.090862374230000     0.153310686090000
2 29
    -0.082203884550000    -0.216747623360000    -0.102960453980000
    -0.216747623360000    -0.349214420050000    -0.219439048240000
    -0.102960453980000    -0.219439048240000    -0.078779548450000
2 30
     0.160572776910000     0.033510089450000    -0.100291609780000
     0.033510089450000     0.160572776910000    -0.100291609780000
    -0.100291609780000    -0.100291609780000     0.074866124430000
2 31
     0.033786702780000    -0.029929129910000    -0.031562025360000
    -0.029929129910000     0.033786702780000    -0.031562025360000
    -0.031562025360000    -0.031562025360000     0.033408716610000
2 32
    -0.349214420050000    -0.216747623360000    -0.219439048240000
    -0.216747623360000    -0.082203884550000    -0.102960453980000
    -0.219439048240000    -0.102960453980000    -0.078779548450000
2 33
    -1.519163050780000     0.733039857810000     1.581159148490000
    -0.733039857810000     1.404132742900000     0.718842855810000
     1.581159148490000    -0.718842855810000    -1.535553982040000
2 34
    -1.519163050780000     0.733039857810000    -1.581159148490000
    -0.733039857810000     1.404132742900000    -0.718842855810000
    -1.581159148490000     0.718842855810000    -1.535553982040000
2 35
    -0.084193746920000     0.038077632530000    -0.075273777770000
    -0.038077632530000     0.060923755630000     0.038696799580000
    -0.075273777770000    -0.038696799580000    -0.084786970210000
2 36
    -0.084193746920000     0.038077632530000     0.075273777770000
    -0.038077632530000     0.060923755630000    -0.038696799580000
     0.075273777770000     0.038696799580000    -0.084786970210000
2 37
    -1.519163050780000    -0.733039857810000    -1.581159148490000
     0.733039857810000     1.404132742900000     0.718842855810000
    -1.581159148490000    -0.718842855810000    -1.535553982040000
2 38
    -1.519163050780000    -0.733039857810000     1.581159148490000
     0.733039857810000     1.404132742900000    -0.718842855810000
     1.581159148490000     0.718842855810000    -1.535553982040000
2 39
    -0.084193746920000    -0.038077632530000     0.075273777770000
     0.038077632530000     0.060923755630000     0.038696799580000
     0.075273777770000    -0.038696799580000    -0.084786970210000
2 40
    -0.084193746920000    -0.038077632530000    -0.075273777770000
     0.038077632530000     0.060923755630000    -0.038696799580000
    -0.075273777770000     0.038696799580000    -0.084786970210000
2 41
    -0.094354812700000    -0.119045465070000     0.218680433480000
    -0.119045465070000    -0.094354812700000     0.218680433480000
     0.218680433480000     0.218680433480000    -0.340601692280000
2 42
     0.159286999360000    -0.092166288390000    -0.025474970670000
    -0.092166288390000     0.061950816240000     0.090862374230000
    -0.025474970670000     0.090862374230000     0.153310686090000
2 43
     0.061950816240000    -0.092166288390000     0.090862374230000
    -0.092166288390000     0.159286999360000    -0.025474970670000
     0.090862374230000    -0.025474970670000     0.153310686090000
2 44
    -9.260691072389999    -2.181475654650000     2.222539942440000
    -2.181475654650000    -9.260691072389999     2.222539942440000
     2.222539942440000     2.222539942440000    -9.187263745650000
2 45
     0.033786702780000    -0.029929129910000     0.031562025360000
    -0.029929129910000     0.033786702780000     0.031562025360000
     0.031562025360000     0.031562025360000     0.033408716610000
2 46
    -0.349214420050000    -0.216747623360000     0.219439048240000
    -0.216747623360000    -0.082203884550000     0.102960453980000
     0.219439048240000     0.102960453980000    -0.078779548450000
2 47
    -0.082203884550000    -0.216747623360000     0.102960453980000
    -0.216747623360000    -0.349214420050000     0.219439048240000
     0.102960453980000     0.219439048240000    -0.078779548450000
2 48
     0.160572776910000     0.033510089450000     0.100291609780000
     0.033510089450000     0.160572776910000     0.100291609780000
     0.100291609780000     0.100291609780000     0.074866124430000
2 49
    -1.561348084980000    -1.638380032930000    -0.726100022120000
    -1.638380032930000    -1.561348084980000    -0.726100022120000
     0.726100022120000     0.726100022120000     1.388062865670000
2 50
    -1.561348084980000     1.638380032930000    -0.726100022120000
     1.638380032930000    -1.561348084980000     0.726100022120000
     0.726100022120000    -0.726100022120000     1.388062865670000
2 51
    -1.561348084980000     1.638380032930000     0.726100022120000
     1.638380032930000    -1.561348084980000    -0.726100022120000
    -0.726100022120000     0.726100022120000     1.388062865670000
2 52
    -1.561348084980000    -1.638380032930000     0.726100022120000
    -1.638380032930000    -1.561348084980000     0.726100022120000
    -0.726100022120000    -0.726100022120000     1.388062865670000
2 53
    -0.082981596800000     0.072750987330000    -0.039356083370000
     0.072750987330000    -0.082981596800000    -0.039356083370000
     0.039356083370000     0.039356083370000     0.055173609490000
2 54
    -0.082981596800000    -0.072750987330000    -0.039356083370000
    -0.072750987330000    -0.082981596800000     0.039356083370000
     0.039356083370000    -0.039356083370000     0.055173609490000
2 55
    -0.082981596800000    -0.072750987330000     0.039356083370000
    -0.072750987330000    -0.082981596800000    -0.039356083370000
    -0.039356083370000     0.039356083370000     0.055173609490000
2 56
    -0.082981596800000     0.072750987330000     0.039356083370000
     0.072750987330000    -0.082981596800000     0.039356083370000
    -0.039356083370000    -0.039356083370000     0.055173609490000
2 57
     0.061950816240000     0.092166288390000    -0.090862374230000
     0.092166288390000     0.159286999360000    -0.025474970670000
    -0.090862374230000    -0.025474970670000     0.153310686090000
2 58
    -9.260691072389999     2.181475654650000    -2.222539942440000
     2.181475654650000    -9.260691072389999     2.222539942440000
    -2.222539942440000     2.222539942440000    -9.187263745650000
2 59
    -0.094354812700000     0.119045465070000    -0.218680433480000
     0.119045465070000    -0.094354812700000     0.218680433480000
    -0.218680433480000     0.218680433480000    -0.340601692280000
2 60
     0.159286999360000     0.092166288390000     0.025474970670000
     0.092166288390000     0.061950816240000     0.090862374230000
     0.025474970670000     0.090862374230000     0.153310686090000
2 61
    -0.082203884550000     0.216747623360000    -0.102960453980000
     0.216747623360000    -0.349214420050000     0.219439048240000
    -0.102960453980000     0.219439048240000    -0.078779548450000
2 62
     0.160572776910000    -0.033510089450000    -0.100291609780000
    -0.033510089450000     0.160572776910000     0.100291609780000
    -0.100291609780000     0.100291609780000     0.074866124430000
2 63
     0.033786702780000     0.029929129910000    -0.031562025360000
     0.029929129910000     0.033786702780000     0.031562025360000
    -0.031562025360000     0.031562025360000     0.033408716610000
2 64
    -0.349214420050000     0.216747623360000    -0.219439048240000
     0.216747623360000    -0.082203884550000     0.102960453980000
    -0.219439048240000     0.102960453980000    -0.078779548450000
3 1
    -0.094393007680000    -0.000000000000000     0.000000000000000
    -0.000000000000000    -0.165090714560000    -0.000000000000000
     0.000000000000000    -0.000000000000000    -0.088679855420000
3 2
    -0.123076717000000    -0.000000000000000     0.000000000000000
    -0.000000000000000    -0.123076717000000     0.000000000000000
     0.000000000000000     0.000000000000000     0.566529202830000
3 3
    44.689968847179998    -0.000000000000000     0.000000000000000
    -0.000000000000000    44.689968847179998    -0.000000000000000
     0.000000000000000    -0.000000000000000    44.336423861080000
3 4
    -0.165090714560000     0.000000000000000    -0.000000000000000
     0.000000000000000    -0.094393007680000    -0.000000000000000
    -0.000000000000000    -0.000000000000000    -0.088679855420000
3 5
     0.576610275350000    -0.000000000000000    -0.000000000000000
    -0.000000000000000    -0.118053957020000    -0.000000000000000
    -0.000000000000000    -0.000000000000000    -0.116250865700000
3 6
    -0.052990370020000    -0.000000000000000    -0.000000000000000
    -0.000000000000000    -0.052990370020000     0.000000000000000
    -0.000000000000000     0.000000000000000    -0.051723449740000
3 7
    -0.098987095070000    -0.000000000000000    -0.000000000000000
    -0.000000000000000    -0.098987095070000    -0.000000000000000
    -0.000000000000000    -0.000000000000000    -0.169472807800000
3 8
    -0.118053957020000     0.000000000000000     0.000000000000000
     0.000000000000000     0.576610275350000    -0.000000000000000
     0.000000000000000    -0.000000000000000    -0.116250865700000
3 9
    -9.260691072389999     2.181475654650000     2.222539942440000
     2.181475654650000    -9.260691072389999    -2.222539942440000
     2.222539942440000    -2.222539942440000    -9.187263745650000
3 10
     0.061950816240000     0.092166288390000     0.090862374230000
     0.092166288390000     0.159286999360000     0.025474970670000
     0.090862374230000     0.025474970670000     0.153310686090000
3 11
     0.159286999360000     0.092166288390000    -0.025474970670000
     0.092166288390000     0.061950816240000    -0.090862374230000
    -0.025474970670000    -0.090862374230000     0.153310686090000
3 12
    -0.094354812700000     0.119045465070000     0.218680433480000
     0.119045465070000    -0.094354812700000    -0.218680433480000
     0.218680433480000    -0.218680433480000    -0.340601692280000
3 13
     0.160572776910000    -0.033510089450000     0.100291609780000
    -0.033510089450000     0.160572776910000    -0.100291609780000
     0.100291609780000    -0.100291609780000     0.074866124430000
3 14
    -0.082203884550000     0.216747623360000     0.102960453980000
     0.216747623360000    -0.349214420050000    -0.219439048240000
     0.102960453980000    -0.219439048240000    -0.078779548450000
3 15
    -0.349214420050000     0.216747623360000     0.219439048240000
     0.216747623360000    -0.082203884550000    -0.102960453980000
     0.219439048240000    -0.102960453980000    -0.078779548450000
3 16
     0.033786702780000     0.029929129910000     0.031562025360000
     0.029929129910000     0.033786702780000    -0.031562025360000
     0.031562025360000    -0.031562025360000     0.033408716610000
3 17
     1.404132742900000    -0.733039857810000    -0.718842855810000
     0.733039857810000    -1.519163050780000    -1.581159148490000
     0.718842855810000    -1.581159148490000    -1.535553982040000
3 18
     0.060923755630000    -0.038077632530000    -0.038696799580000
     0.038077632530000    -0.084193746920000     0.075273777770000