       N       E                     dE             d eps       ncg     rms          rms(c)
DAV:   1     0.504790126027E+03    0.50479E+03   -0.11374E+05 15360   0.106E+03
DAV:   2    -0.561359829602E+03   -0.10661E+04   -0.10171E+04 20224   0.231E+02
DAV:   3    -0.601779083203E+03   -0.40419E+02   -0.40187E+02 20448   0.423E+01
DAV:   4    -0.602208794669E+03   -0.42971E+00   -0.42880E+00 20288   0.481E+00
DAV:   5    -0.602217988791E+03   -0.91941E-02   -0.91899E-02 19328   0.646E-01    0.269E+01
DAV:   6    -0.586988647904E+03    0.15229E+02   -0.10056E+01 18080   0.639E+00    0.147E+01
DAV:   7    -0.581845916766E+03    0.51427E+01   -0.11466E+01 18784   0.703E+00    0.196E+00
DAV:   8    -0.581906760960E+03   -0.60844E-01   -0.25673E-01 19232   0.102E+00    0.216E-01
DAV:   9    -0.581908879059E+03   -0.21181E-02   -0.36152E-03 19904   0.145E-01    0.803E-02
DAV:  10    -0.581909331062E+03   -0.45200E-03   -0.39917E-04 18592   0.531E-02    0.797E-03
DAV:  11    -0.581909336170E+03   -0.51079E-05   -0.10980E-05 20160   0.776E-03    0.202E-03
DAV:  12    -0.581909336174E+03   -0.32833E-08   -0.38670E-07 19680   0.154E-03    0.204E-04
DAV:  13    -0.581909336250E+03   -0.76658E-07   -0.55126E-09 14816   0.194E-04    0.423E-05
DAV:  14    -0.581909336270E+03   -0.19772E-07   -0.78377E-10 13216   0.689E-05    0.186E-05
DAV:  15    -0.581909336270E+03    0.38017E-09   -0.16878E-10 11936   0.308E-05
   1 F= -.58190934E+03 E0= -.58190934E+03  d E =-.506607E-15
 Linear response reoptimize wavefunctions
DAV:   1    -0.581909336270E+03   -0.60027E-10   -0.34418E-11 11488   0.140E-05
 Linear response DOF=           2
 Linear response progress:
  Degree of freedom:   1/  2
       N       E                     dE             d eps       ncg     rms          rms(c)
RMM:   1    -0.146177738489E+00   -0.14618E+00    0.42496E-03 86411   0.735E-01
RMM:   2    -0.124257478880E+00    0.21920E-01   -0.71362E-03 52125   0.190E-01    0.181E-01
RMM:   3    -0.124099740528E+00    0.15774E-03   -0.92422E-04 54807   0.512E-02    0.920E-02
RMM:   4    -0.124375874330E+00   -0.27613E-03   -0.25847E-04 54994   0.282E-02    0.276E-02
RMM:   5    -0.124461728565E+00   -0.85854E-04   -0.17190E-05 55793   0.781E-03    0.662E-03
RMM:   6    -0.124445378435E+00    0.16350E-04   -0.16970E-06 56516   0.197E-03    0.140E-03
RMM:   7    -0.124436735668E+00    0.86428E-05   -0.13531E-06 57566   0.632E-04    0.388E-04
RMM:   8    -0.124436154683E+00    0.58099E-06   -0.56816E-07 58842   0.277E-04    0.854E-05
RMM:   9    -0.124435928976E+00    0.22571E-06   -0.84972E-07 60852   0.178E-04    0.376E-05
RMM:  10    -0.124436008582E+00   -0.79606E-07   -0.96359E-07 63079   0.169E-04    0.109E-05
RMM:  11    -0.124436019013E+00   -0.10431E-07   -0.10458E-06 63769   0.166E-04    0.444E-06
 Linear response progress:
  Degree of freedom:   2/  2
       N       E                     dE             d eps       ncg     rms          rms(c)
RMM:   1    -0.146539718060E+00   -0.14654E+00    0.42070E-03 56058   0.736E-01
RMM:   2    -0.124241114901E+00    0.22299E-01   -0.72962E-03 33776   0.190E-01    0.183E-01
RMM:   3    -0.124059977631E+00    0.18114E-03   -0.96636E-04 35376   0.517E-02    0.924E-02
RMM:   4    -0.124331055555E+00   -0.27108E-03   -0.26476E-04 35545   0.282E-02    0.280E-02
RMM:   5    -0.124419433041E+00   -0.88377E-04   -0.18480E-05 36131   0.796E-03    0.664E-03
RMM:   6    -0.124402475354E+00    0.16958E-04   -0.16053E-06 36559   0.199E-03    0.137E-03
RMM:   7    -0.124394064818E+00    0.84105E-05   -0.13534E-06 37202   0.614E-04    0.389E-04
RMM:   8    -0.124393462140E+00    0.60268E-06   -0.79970E-07 37971   0.265E-04    0.860E-05
RMM:   9    -0.124393234969E+00    0.22717E-06   -0.93046E-07 39184   0.165E-04    0.374E-05
RMM:  10    -0.124393316925E+00   -0.81956E-07   -0.10476E-06 40440   0.156E-04    0.111E-05
RMM:  11    -0.124393330219E+00   -0.13295E-07   -0.11518E-06 40785   0.153E-04    0.445E-06
 Linear response finished
