 vasp.5.4.4.18Apr17-6-g9f103f2a35 (build Mar 12 2022 03:36:41) complex          
  
 executed on IFC19.0.3.199_CrayMP date 2022.12.02  03:19:43
 running on   32 total cores
 distrk:  each k-point on   32 cores,    1 groups
 distr:  one band on NCORES_PER_BAND=   1 cores,   32 groups


--------------------------------------------------------------------------------------------------------


 INCAR:
 POTCAR:   PAW_PBE C 08Apr2002                    

 ----------------------------------------------------------------------------- 
|                                                                             |
|           W    W    AA    RRRRR   N    N  II  N    N   GGGG   !!!           |
|           W    W   A  A   R    R  NN   N  II  NN   N  G    G  !!!           |
|           W    W  A    A  R    R  N N  N  II  N N  N  G       !!!           |
|           W WW W  AAAAAA  RRRRR   N  N N  II  N  N N  G  GGG   !            |
|           WW  WW  A    A  R   R   N   NN  II  N   NN  G    G                |
|           W    W  A    A  R    R  N    N  II  N    N   GGGG   !!!           |
|                                                                             |
|      For optimal performance we recommend to set                            |
|        NCORE= 4 - approx SQRT( number of cores)                             |
|      NCORE specifies how many cores store one orbital (NPAR=cpu/NCORE).     |
|      This setting can  greatly improve the performance of VASP for DFT.     |
|      The default,   NCORE=1            might be grossly inefficient         |
|      on modern multi-core architectures or massively parallel machines.     |
|      Do your own testing !!!!                                               |
|      Unfortunately you need to use the default for GW and RPA calculations. |
|      (for HF NCORE is supported but not extensively tested yet)             |
|                                                                             |
 ----------------------------------------------------------------------------- 

 POTCAR:   PAW_PBE C 08Apr2002                    
   VRHFIN =C: s2p2                                                              
   LEXCH  = PE                                                                  
   EATOM  =   147.1560 eV,   10.8157 Ry                                         
                                                                                
   TITEL  = PAW_PBE C 08Apr2002                                                 
   LULTRA =        F    use ultrasoft PP ?                                      
   IUNSCR =        0    unscreen: 0-lin 1-nonlin 2-no                           
   RPACOR =     .000    partial core radius                                     
   POMASS =   12.011; ZVAL   =    4.000    mass and valenz                      
   RCORE  =    1.500    outmost cutoff radius                                   
   RWIGS  =    1.630; RWIGS  =     .863    wigner-seitz radius (au A)           
   ENMAX  =  400.000; ENMIN  =  300.000 eV                                      
   ICORE  =        2    local potential                                         
   LCOR   =        T    correct aug charges                                     
   LPAW   =        T    paw PP                                                  
   EAUG   =  644.873                                                            
   DEXC   =     .000                                                            
   RMAX   =    2.266    core radius for proj-oper                               
   RAUG   =    1.300    factor for augmentation sphere                          
   RDEP   =    1.501    radius for radial grids                                 
   RDEPT  =    1.300    core radius for aug-charge                              
   QCUT   =   -5.516; QGAM   =   11.032    optimization parameters              
                                                                                
   Description                                                                  
     l     E      TYP  RCUT    TYP  RCUT                                        
     0   .000     23  1.200                                                     
     0   .000     23  1.200                                                     
     1   .000     23  1.500                                                     
     1  2.500     23  1.500                                                     
     2   .000      7  1.500                                                     
  local pseudopotential read in
  atomic valenz-charges read in
  non local Contribution for L=           0  read in
    real space projection operators read in
  non local Contribution for L=           0  read in
    real space projection operators read in
  non local Contribution for L=           1  read in
    real space projection operators read in
  non local Contribution for L=           1  read in
    real space projection operators read in
    PAW grid and wavefunctions read in
 
   number of l-projection  operators is LMAX  =           4
   number of lm-projection operators is LMMAX =           8
 

 ----------------------------------------------------------------------------- 
|                                                                             |
|  ADVICE TO THIS USER RUNNING 'VASP/VAMP'   (HEAR YOUR MASTER'S VOICE ...):  |
|                                                                             |
|      You have a (more or less) 'large supercell' and for larger cells       |
|      it might be more efficient to use real space projection operators      |
|      So try LREAL= Auto  in the INCAR   file.                               |
|      Mind: If you want to do a very accurate calculations keep the          |
|      reciprocal projection scheme          (i.e. LREAL=.FALSE.)             |
|                                                                             |
 ----------------------------------------------------------------------------- 

 PAW_PBE C 08Apr2002                    :
 energy of atom  1       EATOM= -147.1560
 kinetic energy error for atom=    0.0288 (will be added to EATOM!!)
 
 
 POSCAR: generated by phonopy                    
  positions in direct lattice
  No initial velocities read in
 exchange correlation table for  LEXCH =        8
   RHO(1)=    0.500       N(1)  =     2000
   RHO(2)=  100.500       N(2)  =     4000
 


--------------------------------------------------------------------------------------------------------


 ion  position               nearest neighbor table
   1  0.125  0.375  0.125-  11 1.54  25 1.54  43 1.54  57 1.54
   2  0.625  0.375  0.125-  12 1.54  26 1.54  44 1.54  58 1.54
   3  0.125  0.875  0.125-   9 1.54  27 1.54  41 1.54  59 1.54
   4  0.625  0.875  0.125-  10 1.54  28 1.54  42 1.54  60 1.54
   5  0.125  0.375  0.625-  15 1.54  29 1.54  47 1.54  61 1.54
   6  0.625  0.375  0.625-  16 1.54  30 1.54  48 1.54  62 1.54
   7  0.125  0.875  0.625-  13 1.54  31 1.54  45 1.54  63 1.54
   8  0.625  0.875  0.625-  14 1.54  32 1.54  46 1.54  64 1.54
   9  0.000  0.000  0.250-   3 1.54  17 1.54  36 1.54  50 1.54
  10  0.500  0.000  0.250-   4 1.54  18 1.54  35 1.54  49 1.54
  11  0.000  0.500  0.250-   1 1.54  19 1.54  34 1.54  52 1.54
  12  0.500  0.500  0.250-   2 1.54  20 1.54  33 1.54  51 1.54
  13  0.000  0.000  0.750-   7 1.54  21 1.54  40 1.54  54 1.54
  14  0.500  0.000  0.750-   8 1.54  22 1.54  39 1.54  53 1.54
  15  0.000  0.500  0.750-   5 1.54  23 1.54  38 1.54  56 1.54
  16  0.500  0.500  0.750-   6 1.54  24 1.54  37 1.54  55 1.54
  17  0.125  0.125  0.375-   9 1.54  29 1.54  45 1.54  57 1.54
  18  0.625  0.125  0.375-  10 1.54  30 1.54  46 1.54  58 1.54
  19  0.125  0.625  0.375-  11 1.54  31 1.54  47 1.54  59 1.54
  20  0.625  0.625  0.375-  12 1.54  32 1.54  48 1.54  60 1.54
  21  0.125  0.125  0.875-  13 1.54  25 1.54  41 1.54  61 1.54
  22  0.625  0.125  0.875-  14 1.54  26 1.54  42 1.54  62 1.54
  23  0.125  0.625  0.875-  15 1.54  27 1.54  43 1.54  63 1.54
  24  0.625  0.625  0.875-  16 1.54  28 1.54  44 1.54  64 1.54
  25  0.000  0.250  0.000-   1 1.54  21 1.54  38 1.54  50 1.54
  26  0.500  0.250  0.000-   2 1.54  22 1.54  37 1.54  49 1.54
  27  0.000  0.750  0.000-   3 1.54  23 1.54  40 1.54  52 1.54
  28  0.500  0.750  0.000-   4 1.54  24 1.54  39 1.54  51 1.54
  29  0.000  0.250  0.500-   5 1.54  17 1.54  34 1.54  54 1.54
  30  0.500  0.250  0.500-   6 1.54  18 1.54  33 1.54  53 1.54
  31  0.000  0.750  0.500-   7 1.54  19 1.54  36 1.54  56 1.54
  32  0.500  0.750  0.500-   8 1.54  20 1.54  35 1.54  55 1.54
  33  0.375  0.375  0.375-  12 1.54  30 1.54  47 1.54  57 1.54
  34  0.875  0.375  0.375-  11 1.54  29 1.54  48 1.54  58 1.54
  35  0.375  0.875  0.375-  10 1.54  32 1.54  45 1.54  59 1.54
  36  0.875  0.875  0.375-   9 1.54  31 1.54  46 1.54  60 1.54
  37  0.375  0.375  0.875-  16 1.54  26 1.54  43 1.54  61 1.54
  38  0.875  0.375  0.875-  15 1.54  25 1.54  44 1.54  62 1.54
  39  0.375  0.875  0.875-  14 1.54  28 1.54  41 1.54  63 1.54
  40  0.875  0.875  0.875-  13 1.54  27 1.54  42 1.54  64 1.54
  41  0.250  0.000  0.000-   3 1.54  21 1.54  39 1.54  49 1.54
  42  0.750  0.000  0.000-   4 1.54  22 1.54  40 1.54  50 1.54
  43  0.250  0.500  0.000-   1 1.54  23 1.54  37 1.54  51 1.54
  44  0.750  0.500  0.000-   2 1.54  24 1.54  38 1.54  52 1.54
  45  0.250  0.000  0.500-   7 1.54  17 1.54  35 1.54  53 1.54
  46  0.750  0.000  0.500-   8 1.54  18 1.54  36 1.54  54 1.54
  47  0.250  0.500  0.500-   5 1.54  19 1.54  33 1.54  55 1.54
  48  0.750  0.500  0.500-   6 1.54  20 1.54  34 1.54  56 1.54
  49  0.375  0.125  0.125-  10 1.54  26 1.54  41 1.54  57 1.54
  50  0.875  0.125  0.125-   9 1.54  25 1.54  42 1.54  58 1.54
  51  0.375  0.625  0.125-  12 1.54  28 1.54  43 1.54  59 1.54
  52  0.875  0.625  0.125-  11 1.54  27 1.54  44 1.54  60 1.54
  53  0.375  0.125  0.625-  14 1.54  30 1.54  45 1.54  61 1.54
  54  0.875  0.125  0.625-  13 1.54  29 1.54  46 1.54  62 1.54
  55  0.375  0.625  0.625-  16 1.54  32 1.54  47 1.54  63 1.54
  56  0.875  0.625  0.625-  15 1.54  31 1.54  48 1.54  64 1.54
  57  0.250  0.250  0.250-   1 1.54  17 1.54  33 1.54  49 1.54
  58  0.750  0.250  0.250-   2 1.54  18 1.54  34 1.54  50 1.54
  59  0.250  0.750  0.250-   3 1.54  19 1.54  35 1.54  51 1.54
  60  0.750  0.750  0.250-   4 1.54  20 1.54  36 1.54  52 1.54
  61  0.250  0.250  0.750-   5 1.54  21 1.54  37 1.54  53 1.54
  62  0.750  0.250  0.750-   6 1.54  22 1.54  38 1.54  54 1.54
  63  0.250  0.750  0.750-   7 1.54  23 1.54  39 1.54  55 1.54
  64  0.750  0.750  0.750-   8 1.54  24 1.54  40 1.54  56 1.54
 
  LATTYP: Found a simple tetragonal cell.
 ALAT       =     7.1078352816
 C/A-ratio  =     1.0101526602
  
  Lattice vectors:
  
 A1 = (   7.1078352816,   0.0000000000,   0.0000000000)
 A2 = (   0.0000000000,   7.1078352816,   0.0000000000)
 A3 = (   0.0000000000,   0.0000000000,   7.1799987179)


Analysis of symmetry for initial positions (statically):
=====================================================================
 Subroutine PRICEL returns following result:
 
  LATTYP: Found a body centered tetragonal cell.
 ALAT       =     2.5129992636
 C/A-ratio  =     1.4285715921
  
  Lattice vectors:
  
 A1 = (   0.0000000000,  -1.7769588204,   1.7949996795)
 A2 = (   0.0000000000,   1.7769588204,   1.7949996795)
 A3 = (  -1.7769588204,   0.0000000000,  -1.7949996795)
 
  32 primitive cells build up your supercell.
 

 Routine SETGRP: Setting up the symmetry group for a 
 simple tetragonal supercell.


 Subroutine GETGRP returns: Found 16 space group operations
 (whereof  8 operations were pure point group operations)
 out of a pool of 16 trial point group operations.


The static configuration has the point symmetry D_2d.
 The point group associated with its full space group is D_4h.


Analysis of symmetry for dynamics (positions and initial velocities):
=====================================================================
 Subroutine PRICEL returns following result:
 
  LATTYP: Found a body centered tetragonal cell.
 ALAT       =     2.5129992636
 C/A-ratio  =     1.4285715921
  
  Lattice vectors:
  
 A1 = (   0.0000000000,  -1.7769588204,   1.7949996795)
 A2 = (   0.0000000000,   1.7769588204,   1.7949996795)
 A3 = (  -1.7769588204,   0.0000000000,  -1.7949996795)
 
  32 primitive cells build up your supercell.
 

 Routine SETGRP: Setting up the symmetry group for a 
 simple tetragonal supercell.


 Subroutine GETGRP returns: Found 16 space group operations
 (whereof  8 operations were pure point group operations)
 out of a pool of 16 trial point group operations.


The dynamic configuration has the point symmetry D_2d.
 The point group associated with its full space group is D_4h.


 Subroutine INISYM returns: Found 16 space group operations
 (whereof  8 operations are pure point group operations),
 and found    32 'primitive' translations

 
 
 KPOINTS: kpt_density=3000                        

Automatic generation of k-mesh.
Space group operators:
 irot       det(A)        alpha          n_x          n_y          n_z        tau_x        tau_y        tau_z
    1     1.000000     0.000000     1.000000     0.000000     0.000000     0.000000     0.000000     0.000000
    2    -1.000000    90.000000     0.000000     0.000000    -1.000000     0.000000     0.000000     0.000000
    3     1.000000   180.000000     0.000000     0.000000     1.000000     0.000000     0.000000     0.000000
    4    -1.000000    90.000000     0.000000     0.000000     1.000000     0.000000     0.000000     0.000000
    5     1.000000   180.000000     0.000000     1.000000     0.000000     0.000000     0.000000     0.000000
    6    -1.000000   180.000000     0.707107     0.707107     0.000000     0.000000     0.000000     0.000000
    7     1.000000   180.000000     1.000000     0.000000     0.000000     0.000000     0.000000     0.000000
    8    -1.000000   180.000000     0.707107    -0.707107     0.000000     0.000000     0.000000     0.000000
    9    -1.000000     0.000000     1.000000     0.000000     0.000000    -0.125000    -0.125000     0.125000
   10     1.000000    90.000000     0.000000     0.000000    -1.000000    -0.125000    -0.125000     0.125000
   11    -1.000000   180.000000     0.000000     0.000000     1.000000    -0.125000    -0.125000     0.125000
   12     1.000000    90.000000     0.000000     0.000000     1.000000    -0.125000    -0.125000     0.125000
   13    -1.000000   180.000000     0.000000     1.000000     0.000000    -0.125000    -0.125000     0.125000
   14     1.000000   180.000000     0.707107     0.707107     0.000000    -0.125000    -0.125000     0.125000
   15    -1.000000   180.000000     1.000000     0.000000     0.000000    -0.125000    -0.125000     0.125000
   16     1.000000   180.000000     0.707107    -0.707107     0.000000    -0.125000    -0.125000     0.125000
 
 Subroutine IBZKPT returns following result:
 ===========================================
 
 Found     40 irreducible k-points:
 
 Following reciprocal coordinates:
            Coordinates               Weight
  0.000000  0.000000  0.000000      1.000000
  0.166667  0.000000  0.000000      4.000000
  0.333333  0.000000  0.000000      4.000000
  0.500000  0.000000  0.000000      2.000000
  0.166667  0.166667  0.000000      4.000000
  0.333333  0.166667  0.000000      8.000000
  0.500000  0.166667  0.000000      4.000000
  0.333333  0.333333  0.000000      4.000000
  0.500000  0.333333  0.000000      4.000000
  0.500000  0.500000  0.000000      1.000000
  0.000000  0.000000  0.166667      2.000000
  0.166667  0.000000  0.166667      8.000000
  0.333333  0.000000  0.166667      8.000000
  0.500000  0.000000  0.166667      4.000000
  0.166667  0.166667  0.166667      8.000000
  0.333333  0.166667  0.166667     16.000000
  0.500000  0.166667  0.166667      8.000000
  0.333333  0.333333  0.166667      8.000000
  0.500000  0.333333  0.166667      8.000000
  0.500000  0.500000  0.166667      2.000000
  0.000000  0.000000  0.333333      2.000000
  0.166667  0.000000  0.333333      8.000000
  0.333333  0.000000  0.333333      8.000000
  0.500000  0.000000  0.333333      4.000000
  0.166667  0.166667  0.333333      8.000000
  0.333333  0.166667  0.333333     16.000000
  0.500000  0.166667  0.333333      8.000000
  0.333333  0.333333  0.333333      8.000000
  0.500000  0.333333  0.333333      8.000000
  0.500000  0.500000  0.333333      2.000000
  0.000000  0.000000  0.500000      1.000000
  0.166667  0.000000  0.500000      4.000000
  0.333333  0.000000  0.500000      4.000000
  0.500000  0.000000  0.500000      2.000000
  0.166667  0.166667  0.500000      4.000000
  0.333333  0.166667  0.500000      8.000000
  0.500000  0.166667  0.500000      4.000000
  0.333333  0.333333  0.500000      4.000000
  0.500000  0.333333  0.500000      4.000000
  0.500000  0.500000  0.500000      1.000000
 
 Following cartesian coordinates:
            Coordinates               Weight
  0.000000  0.000000  0.000000      1.000000
  0.023448  0.000000  0.000000      4.000000
  0.046897  0.000000  0.000000      4.000000
  0.070345  0.000000  0.000000      2.000000
  0.023448  0.023448  0.000000      4.000000
  0.046897  0.023448  0.000000      8.000000
  0.070345  0.023448  0.000000      4.000000
  0.046897  0.046897  0.000000      4.000000
  0.070345  0.046897  0.000000      4.000000
  0.070345  0.070345  0.000000      1.000000
  0.000000  0.000000  0.023213      2.000000
  0.023448  0.000000  0.023213      8.000000
  0.046897  0.000000  0.023213      8.000000
  0.070345  0.000000  0.023213      4.000000
  0.023448  0.023448  0.023213      8.000000
  0.046897  0.023448  0.023213     16.000000
  0.070345  0.023448  0.023213      8.000000
  0.046897  0.046897  0.023213      8.000000
  0.070345  0.046897  0.023213      8.000000
  0.070345  0.070345  0.023213      2.000000
  0.000000  0.000000  0.046425      2.000000
  0.023448  0.000000  0.046425      8.000000
  0.046897  0.000000  0.046425      8.000000
  0.070345  0.000000  0.046425      4.000000
  0.023448  0.023448  0.046425      8.000000
  0.046897  0.023448  0.046425     16.000000
  0.070345  0.023448  0.046425      8.000000
  0.046897  0.046897  0.046425      8.000000
  0.070345  0.046897  0.046425      8.000000
  0.070345  0.070345  0.046425      2.000000
  0.000000  0.000000  0.069638      1.000000
  0.023448  0.000000  0.069638      4.000000
  0.046897  0.000000  0.069638      4.000000
  0.070345  0.000000  0.069638      2.000000
  0.023448  0.023448  0.069638      4.000000
  0.046897  0.023448  0.069638      8.000000
  0.070345  0.023448  0.069638      4.000000
  0.046897  0.046897  0.069638      4.000000
  0.070345  0.046897  0.069638      4.000000
  0.070345  0.070345  0.069638      1.000000
 
 
 Subroutine IBZKPT_HF returns following result:
 ==============================================
 
 Found    216 k-points in 1st BZ
 the following    216 k-points will be used (e.g. in the exchange kernel)
 Following reciprocal coordinates:   # in IRBZ
  0.000000  0.000000  0.000000    0.00462963   1 t-inv F
  0.166667  0.000000  0.000000    0.00462963   2 t-inv F
  0.333333  0.000000  0.000000    0.00462963   3 t-inv F
  0.500000  0.000000  0.000000    0.00462963   4 t-inv F
  0.166667  0.166667  0.000000    0.00462963   5 t-inv F
  0.333333  0.166667  0.000000    0.00462963   6 t-inv F
  0.500000  0.166667  0.000000    0.00462963   7 t-inv F
  0.333333  0.333333  0.000000    0.00462963   8 t-inv F
  0.500000  0.333333  0.000000    0.00462963   9 t-inv F
  0.500000  0.500000  0.000000    0.00462963  10 t-inv F
  0.000000  0.000000  0.166667    0.00462963  11 t-inv F
  0.166667  0.000000  0.166667    0.00462963  12 t-inv F
  0.333333  0.000000  0.166667    0.00462963  13 t-inv F
  0.500000  0.000000  0.166667    0.00462963  14 t-inv F
  0.166667  0.166667  0.166667    0.00462963  15 t-inv F
  0.333333  0.166667  0.166667    0.00462963  16 t-inv F
  0.500000  0.166667  0.166667    0.00462963  17 t-inv F
  0.333333  0.333333  0.166667    0.00462963  18 t-inv F
  0.500000  0.333333  0.166667    0.00462963  19 t-inv F
  0.500000  0.500000  0.166667    0.00462963  20 t-inv F
  0.000000  0.000000  0.333333    0.00462963  21 t-inv F
  0.166667  0.000000  0.333333    0.00462963  22 t-inv F
  0.333333  0.000000  0.333333    0.00462963  23 t-inv F
  0.500000  0.000000  0.333333    0.00462963  24 t-inv F
  0.166667  0.166667  0.333333    0.00462963  25 t-inv F
  0.333333  0.166667  0.333333    0.00462963  26 t-inv F
  0.500000  0.166667  0.333333    0.00462963  27 t-inv F
  0.333333  0.333333  0.333333    0.00462963  28 t-inv F
  0.500000  0.333333  0.333333    0.00462963  29 t-inv F
  0.500000  0.500000  0.333333    0.00462963  30 t-inv F
  0.000000  0.000000  0.500000    0.00462963  31 t-inv F
  0.166667  0.000000  0.500000    0.00462963  32 t-inv F
  0.333333  0.000000  0.500000    0.00462963  33 t-inv F
  0.500000  0.000000  0.500000    0.00462963  34 t-inv F
  0.166667  0.166667  0.500000    0.00462963  35 t-inv F
  0.333333  0.166667  0.500000    0.00462963  36 t-inv F
  0.500000  0.166667  0.500000    0.00462963  37 t-inv F
  0.333333  0.333333  0.500000    0.00462963  38 t-inv F
  0.500000  0.333333  0.500000    0.00462963  39 t-inv F
  0.500000  0.500000  0.500000    0.00462963  40 t-inv F
  0.000000 -0.166667  0.000000    0.00462963   2 t-inv F
 -0.166667  0.000000  0.000000    0.00462963   2 t-inv F
  0.000000  0.166667  0.000000    0.00462963   2 t-inv F
  0.000000 -0.333333  0.000000    0.00462963   3 t-inv F
 -0.333333  0.000000  0.000000    0.00462963   3 t-inv F
  0.000000  0.333333  0.000000    0.00462963   3 t-inv F
  0.000000 -0.500000  0.000000    0.00462963   4 t-inv F
  0.166667 -0.166667  0.000000    0.00462963   5 t-inv F
 -0.166667 -0.166667  0.000000    0.00462963   5 t-inv F
 -0.166667  0.166667  0.000000    0.00462963   5 t-inv F
  0.166667 -0.333333  0.000000    0.00462963   6 t-inv F
 -0.333333 -0.166667  0.000000    0.00462963   6 t-inv F
 -0.166667  0.333333  0.000000    0.00462963   6 t-inv F
 -0.333333  0.166667  0.000000    0.00462963   6 t-inv F
 -0.166667 -0.333333  0.000000    0.00462963   6 t-inv F
  0.333333 -0.166667  0.000000    0.00462963   6 t-inv F
  0.166667  0.333333  0.000000    0.00462963   6 t-inv F
  0.166667 -0.500000  0.000000    0.00462963   7 t-inv F
 -0.500000 -0.166667  0.000000    0.00462963   7 t-inv F
 -0.166667  0.500000  0.000000    0.00462963   7 t-inv F
  0.333333 -0.333333  0.000000    0.00462963   8 t-inv F
 -0.333333 -0.333333  0.000000    0.00462963   8 t-inv F
 -0.333333  0.333333  0.000000    0.00462963   8 t-inv F
  0.333333 -0.500000  0.000000    0.00462963   9 t-inv F
 -0.500000 -0.333333  0.000000    0.00462963   9 t-inv F
 -0.333333  0.500000  0.000000    0.00462963   9 t-inv F
  0.000000  0.000000 -0.166667    0.00462963  11 t-inv F
  0.000000 -0.166667 -0.166667    0.00462963  12 t-inv F
 -0.166667  0.000000  0.166667    0.00462963  12 t-inv F
  0.000000  0.166667 -0.166667    0.00462963  12 t-inv F
 -0.166667  0.000000 -0.166667    0.00462963  12 t-inv F
  0.000000 -0.166667  0.166667    0.00462963  12 t-inv F
  0.166667  0.000000 -0.166667    0.00462963  12 t-inv F
  0.000000  0.166667  0.166667    0.00462963  12 t-inv F
  0.000000 -0.333333 -0.166667    0.00462963  13 t-inv F
 -0.333333  0.000000  0.166667    0.00462963  13 t-inv F
  0.000000  0.333333 -0.166667    0.00462963  13 t-inv F
 -0.333333  0.000000 -0.166667    0.00462963  13 t-inv F
  0.000000 -0.333333  0.166667    0.00462963  13 t-inv F
  0.333333  0.000000 -0.166667    0.00462963  13 t-inv F
  0.000000  0.333333  0.166667    0.00462963  13 t-inv F
  0.000000 -0.500000 -0.166667    0.00462963  14 t-inv F
 -0.500000  0.000000 -0.166667    0.00462963  14 t-inv F
  0.000000 -0.500000  0.166667    0.00462963  14 t-inv F
  0.166667 -0.166667 -0.166667    0.00462963  15 t-inv F
 -0.166667 -0.166667  0.166667    0.00462963  15 t-inv F
 -0.166667  0.166667 -0.166667    0.00462963  15 t-inv F
 -0.166667 -0.166667 -0.166667    0.00462963  15 t-inv F
 -0.166667  0.166667  0.166667    0.00462963  15 t-inv F
  0.166667  0.166667 -0.166667    0.00462963  15 t-inv F
  0.166667 -0.166667  0.166667    0.00462963  15 t-inv F
  0.166667 -0.333333 -0.166667    0.00462963  16 t-inv F
 -0.333333 -0.166667  0.166667    0.00462963  16 t-inv F
 -0.166667  0.333333 -0.166667    0.00462963  16 t-inv F
 -0.333333  0.166667 -0.166667    0.00462963  16 t-inv F
 -0.166667 -0.333333  0.166667    0.00462963  16 t-inv F
  0.333333 -0.166667 -0.166667    0.00462963  16 t-inv F
  0.166667  0.333333  0.166667    0.00462963  16 t-inv F
 -0.333333 -0.166667 -0.166667    0.00462963  16 t-inv F
 -0.166667  0.333333  0.166667    0.00462963  16 t-inv F
  0.333333  0.166667 -0.166667    0.00462963  16 t-inv F
  0.166667 -0.333333  0.166667    0.00462963  16 t-inv F
  0.333333 -0.166667  0.166667    0.00462963  16 t-inv F
  0.166667  0.333333 -0.166667    0.00462963  16 t-inv F
 -0.333333  0.166667  0.166667    0.00462963  16 t-inv F
 -0.166667 -0.333333 -0.166667    0.00462963  16 t-inv F
  0.166667 -0.500000 -0.166667    0.00462963  17 t-inv F
 -0.500000 -0.166667  0.166667    0.00462963  17 t-inv F
 -0.166667  0.500000 -0.166667    0.00462963  17 t-inv F
 -0.500000  0.166667 -0.166667    0.00462963  17 t-inv F
 -0.166667 -0.500000  0.166667    0.00462963  17 t-inv F
  0.500000 -0.166667 -0.166667    0.00462963  17 t-inv F
  0.166667  0.500000  0.166667    0.00462963  17 t-inv F
  0.333333 -0.333333 -0.166667    0.00462963  18 t-inv F
 -0.333333 -0.333333  0.166667    0.00462963  18 t-inv F
 -0.333333  0.333333 -0.166667    0.00462963  18 t-inv F
 -0.333333 -0.333333 -0.166667    0.00462963  18 t-inv F
 -0.333333  0.333333  0.166667    0.00462963  18 t-inv F
  0.333333  0.333333 -0.166667    0.00462963  18 t-inv F
  0.333333 -0.333333  0.166667    0.00462963  18 t-inv F
  0.333333 -0.500000 -0.166667    0.00462963  19 t-inv F
 -0.500000 -0.333333  0.166667    0.00462963  19 t-inv F
 -0.333333  0.500000 -0.166667    0.00462963  19 t-inv F
 -0.500000  0.333333 -0.166667    0.00462963  19 t-inv F
 -0.333333 -0.500000  0.166667    0.00462963  19 t-inv F
  0.500000 -0.333333 -0.166667    0.00462963  19 t-inv F
  0.333333  0.500000  0.166667    0.00462963  19 t-inv F
  0.500000 -0.500000 -0.166667    0.00462963  20 t-inv F
  0.000000  0.000000 -0.333333    0.00462963  21 t-inv F
  0.000000 -0.166667 -0.333333    0.00462963  22 t-inv F
 -0.166667  0.000000  0.333333    0.00462963  22 t-inv F
  0.000000  0.166667 -0.333333    0.00462963  22 t-inv F
 -0.166667  0.000000 -0.333333    0.00462963  22 t-inv F
  0.000000 -0.166667  0.333333    0.00462963  22 t-inv F
  0.166667  0.000000 -0.333333    0.00462963  22 t-inv F
  0.000000  0.166667  0.333333    0.00462963  22 t-inv F
  0.000000 -0.333333 -0.333333    0.00462963  23 t-inv F
 -0.333333  0.000000  0.333333    0.00462963  23 t-inv F
  0.000000  0.333333 -0.333333    0.00462963  23 t-inv F
 -0.333333  0.000000 -0.333333    0.00462963  23 t-inv F
  0.000000 -0.333333  0.333333    0.00462963  23 t-inv F
  0.333333  0.000000 -0.333333    0.00462963  23 t-inv F
  0.000000  0.333333  0.333333    0.00462963  23 t-inv F
  0.000000 -0.500000 -0.333333    0.00462963  24 t-inv F
 -0.500000  0.000000 -0.333333    0.00462963  24 t-inv F
  0.000000 -0.500000  0.333333    0.00462963  24 t-inv F
  0.166667 -0.166667 -0.333333    0.00462963  25 t-inv F
 -0.166667 -0.166667  0.333333    0.00462963  25 t-inv F
 -0.166667  0.166667 -0.333333    0.00462963  25 t-inv F
 -0.166667 -0.166667 -0.333333    0.00462963  25 t-inv F
 -0.166667  0.166667  0.333333    0.00462963  25 t-inv F
  0.166667  0.166667 -0.333333    0.00462963  25 t-inv F
  0.166667 -0.166667  0.333333    0.00462963  25 t-inv F
  0.166667 -0.333333 -0.333333    0.00462963  26 t-inv F
 -0.333333 -0.166667  0.333333    0.00462963  26 t-inv F
 -0.166667  0.333333 -0.333333    0.00462963  26 t-inv F
 -0.333333  0.166667 -0.333333    0.00462963  26 t-inv F
 -0.166667 -0.333333  0.333333    0.00462963  26 t-inv F
  0.333333 -0.166667 -0.333333    0.00462963  26 t-inv F
  0.166667  0.333333  0.333333    0.00462963  26 t-inv F
 -0.333333 -0.166667 -0.333333    0.00462963  26 t-inv F
 -0.166667  0.333333  0.333333    0.00462963  26 t-inv F
  0.333333  0.166667 -0.333333    0.00462963  26 t-inv F
  0.166667 -0.333333  0.333333    0.00462963  26 t-inv F
  0.333333 -0.166667  0.333333    0.00462963  26 t-inv F
  0.166667  0.333333 -0.333333    0.00462963  26 t-inv F
 -0.333333  0.166667  0.333333    0.00462963  26 t-inv F
 -0.166667 -0.333333 -0.333333    0.00462963  26 t-inv F
  0.166667 -0.500000 -0.333333    0.00462963  27 t-inv F
 -0.500000 -0.166667  0.333333    0.00462963  27 t-inv F
 -0.166667  0.500000 -0.333333    0.00462963  27 t-inv F
 -0.500000  0.166667 -0.333333    0.00462963  27 t-inv F
 -0.166667 -0.500000  0.333333    0.00462963  27 t-inv F
  0.500000 -0.166667 -0.333333    0.00462963  27 t-inv F
  0.166667  0.500000  0.333333    0.00462963  27 t-inv F
  0.333333 -0.333333 -0.333333    0.00462963  28 t-inv F
 -0.333333 -0.333333  0.333333    0.00462963  28 t-inv F
 -0.333333  0.333333 -0.333333    0.00462963  28 t-inv F
 -0.333333 -0.333333 -0.333333    0.00462963  28 t-inv F
 -0.333333  0.333333  0.333333    0.00462963  28 t-inv F
  0.333333  0.333333 -0.333333    0.00462963  28 t-inv F
  0.333333 -0.333333  0.333333    0.00462963  28 t-inv F
  0.333333 -0.500000 -0.333333    0.00462963  29 t-inv F
 -0.500000 -0.333333  0.333333    0.00462963  29 t-inv F
 -0.333333  0.500000 -0.333333    0.00462963  29 t-inv F
 -0.500000  0.333333 -0.333333    0.00462963  29 t-inv F
 -0.333333 -0.500000  0.333333    0.00462963  29 t-inv F
  0.500000 -0.333333 -0.333333    0.00462963  29 t-inv F
  0.333333  0.500000  0.333333    0.00462963  29 t-inv F
  0.500000 -0.500000 -0.333333    0.00462963  30 t-inv F
  0.000000 -0.166667 -0.500000    0.00462963  32 t-inv F
 -0.166667  0.000000  0.500000    0.00462963  32 t-inv F
  0.000000  0.166667 -0.500000    0.00462963  32 t-inv F
  0.000000 -0.333333 -0.500000    0.00462963  33 t-inv F
 -0.333333  0.000000  0.500000    0.00462963  33 t-inv F
  0.000000  0.333333 -0.500000    0.00462963  33 t-inv F
  0.000000 -0.500000 -0.500000    0.00462963  34 t-inv F
  0.166667 -0.166667 -0.500000    0.00462963  35 t-inv F
 -0.166667 -0.166667  0.500000    0.00462963  35 t-inv F
 -0.166667  0.166667 -0.500000    0.00462963  35 t-inv F
  0.166667 -0.333333 -0.500000    0.00462963  36 t-inv F
 -0.333333 -0.166667  0.500000    0.00462963  36 t-inv F
 -0.166667  0.333333 -0.500000    0.00462963  36 t-inv F
 -0.333333  0.166667 -0.500000    0.00462963  36 t-inv F
 -0.166667 -0.333333  0.500000    0.00462963  36 t-inv F
  0.333333 -0.166667 -0.500000    0.00462963  36 t-inv F
  0.166667  0.333333  0.500000    0.00462963  36 t-inv F
  0.166667 -0.500000 -0.500000    0.00462963  37 t-inv F
 -0.500000 -0.166667  0.500000    0.00462963  37 t-inv F
 -0.166667  0.500000 -0.500000    0.00462963  37 t-inv F
  0.333333 -0.333333 -0.500000    0.00462963  38 t-inv F
 -0.333333 -0.333333  0.500000    0.00462963  38 t-inv F
 -0.333333  0.333333 -0.500000    0.00462963  38 t-inv F
  0.333333 -0.500000 -0.500000    0.00462963  39 t-inv F
 -0.500000 -0.333333  0.500000    0.00462963  39 t-inv F
 -0.333333  0.500000 -0.500000    0.00462963  39 t-inv F


--------------------------------------------------------------------------------------------------------




 Dimension of arrays:
   k-points           NKPTS =     40   k-points in BZ     NKDIM =     40   number of bands    NBANDS=    192
   number of dos      NEDOS =    301   number of ions     NIONS =     64
   non local maximal  LDIM  =      4   non local SUM 2l+1 LMDIM =      8
   total plane-waves  NPLWV = 110592
   max r-space proj   IRMAX =      1   max aug-charges    IRDMAX=  28979
   dimension x,y,z NGX =    48 NGY =   48 NGZ =   48
   dimension x,y,z NGXF=    96 NGYF=   96 NGZF=   96
   support grid    NGXF=   192 NGYF=  192 NGZF=  192
   ions per type =              64
   NGX,Y,Z   is equivalent  to a cutoff of  11.23, 11.23, 11.11 a.u.
   NGXF,Y,Z  is equivalent  to a cutoff of  22.45, 22.45, 22.23 a.u.

 SYSTEM =  unknown system                          
 POSCAR =  generated by phonopy                    

 Startparameter for this run:
   NWRITE =      2    write-flag & timer
   PREC   = accura    normal or accurate (medium, high low for compatibility)
   ISTART =      0    job   : 0-new  1-cont  2-samecut
   ICHARG =      2    charge: 1-file 2-atom 10-const
   ISPIN  =      1    spin polarized calculation?
   LNONCOLLINEAR =      F non collinear calculations
   LSORBIT =      F    spin-orbit coupling
   INIWAV =      1    electr: 0-lowe 1-rand  2-diag
   LASPH  =      F    aspherical Exc in radial PAW
   METAGGA=      F    non-selfconsistent MetaGGA calc.

 Electronic Relaxation 1
   ENCUT  =  400.0 eV  29.40 Ry    5.42 a.u.  11.59 11.59 11.71*2*pi/ulx,y,z
   ENINI  =  400.0     initial cutoff
   ENAUG  =  644.9 eV  augmentation charge cutoff
   NELM   =     60;   NELMIN=  2; NELMDL= -5     # of ELM steps 
   EDIFF  = 0.1E-07   stopping-criterion for ELM
   LREAL  =      F    real-space projection
   NLSPLINE    = F    spline interpolate recip. space projectors
   LCOMPAT=      F    compatible to vasp.4.4
   GGA_COMPAT  = T    GGA compatible to vasp.4.4-vasp.4.6
   LMAXPAW     = -100 max onsite density
   LMAXMIX     =    2 max onsite mixed and CHGCAR
   VOSKOWN=      0    Vosko Wilk Nusair interpolation
   ROPT   =    0.00000
 Ionic relaxation
   EDIFFG = 0.1E-06   stopping-criterion for IOM
   NSW    =      1    number of steps for IOM
   NBLOCK =      1;   KBLOCK =      1    inner block; outer block 
   IBRION =      8    ionic relax: 0-MD 1-quasi-New 2-CG
   NFREE  =      0    steps in history (QN), initial steepest desc. (CG)
   ISIF   =      2    stress and relaxation
   IWAVPR =     11    prediction:  0-non 1-charg 2-wave 3-comb
   ISYM   =      2    0-nonsym 1-usesym 2-fastsym
   LCORR  =      T    Harris-Foulkes like correction to forces

   POTIM  = 0.5000    time-step for ionic-motion
   TEIN   =    0.0    initial temperature
   TEBEG  =    0.0;   TEEND  =   0.0 temperature during run
   SMASS  =  -3.00    Nose mass-parameter (am)
   estimated Nose-frequenzy (Omega)   =  0.10E-29 period in steps =****** mass=  -0.115E-26a.u.
   SCALEE = 1.0000    scale energy and forces
   NPACO  =    256;   APACO  = 16.0  distance and # of slots for P.C.
   PSTRESS=    0.0 pullay stress

  Mass of Ions in am
   POMASS =  12.01
  Ionic Valenz
   ZVAL   =   4.00
  Atomic Wigner-Seitz radii
   RWIGS  =  -1.00
  virtual crystal weights 
   VCA    =   1.00
   NELECT =     256.0000    total number of electrons
   NUPDOWN=      -1.0000    fix difference up-down

 DOS related values:
   EMIN   =  10.00;   EMAX   =-10.00  energy-range for DOS
   EFERMI =   0.00
   ISMEAR =     0;   SIGMA  =   0.06  broadening in eV -4-tet -1-fermi 0-gaus

 Electronic relaxation 2 (details)
   IALGO  =     38    algorithm
   LDIAG  =      T    sub-space diagonalisation (order eigenvalues)
   LSUBROT=      F    optimize rotation matrix (better conditioning)
   TURBO    =      0    0=normal 1=particle mesh
   IRESTART =      0    0=no restart 2=restart with 2 vectors
   NREBOOT  =      0    no. of reboots
   NMIN     =      0    reboot dimension
   EREF     =   0.00    reference energy to select bands
   IMIX   =      4    mixing-type and parameters
     AMIX     =   0.40;   BMIX     =  1.00
     AMIX_MAG =   1.60;   BMIX_MAG =  1.00
     AMIN     =   0.10
     WC   =   100.;   INIMIX=   1;  MIXPRE=   1;  MAXMIX= -45

 Intra band minimization:
   WEIMIN = 0.0010     energy-eigenvalue tresh-hold
   EBREAK =  0.13E-10  absolut break condition
   DEPER  =   0.30     relativ break condition  

   TIME   =   0.40     timestep for ELM

  volume/ion in A,a.u.               =       5.67        38.25
  Fermi-wavevector in a.u.,A,eV,Ry     =   1.457544  2.754360 28.904702  2.124436
  Thomas-Fermi vector in A             =   2.574333
 
 Write flags
   LWAVE        =      F    write WAVECAR
   LDOWNSAMPLE  =      F    k-point downsampling of WAVECAR
   LCHARG       =      F    write CHGCAR
   LVTOT        =      F    write LOCPOT, total local potential
   LVHAR        =      F    write LOCPOT, Hartree potential only
   LELF         =      F    write electronic localiz. function (ELF)
   LORBIT       =      0    0 simple, 1 ext, 2 COOP (PROOUT), +10 PAW based schemes


 Dipole corrections
   LMONO  =      F    monopole corrections only (constant potential shift)
   LDIPOL =      F    correct potential (dipole corrections)
   IDIPOL =      0    1-x, 2-y, 3-z, 4-all directions 
   EPSILON=  1.0000000 bulk dielectric constant

 Exchange correlation treatment:
   GGA     =    --    GGA type
   LEXCH   =     8    internal setting for exchange type
   VOSKOWN=      0    Vosko Wilk Nusair interpolation
   LHFCALC =     F    Hartree Fock is set to
   LHFONE  =     F    Hartree Fock one center treatment
   AEXX    =    0.0000 exact exchange contribution

 Linear response parameters
   LEPSILON=     F    determine dielectric tensor
   LRPA    =     F    only Hartree local field effects (RPA)
   LNABLA  =     F    use nabla operator in PAW spheres
   LVEL    =     F    velocity operator in full k-point grid
   LINTERFAST=   F  fast interpolation
   KINTER  =     0    interpolate to denser k-point grid
   CSHIFT  =0.1000    complex shift for real part using Kramers Kronig
   OMEGAMAX=  -1.0    maximum frequency
   DEG_THRESHOLD= 0.2000000E-02 threshold for treating states as degnerate
   RTIME   =   -0.100 relaxation time in fs
  (WPLASMAI=    0.000 imaginary part of plasma frequency in eV, 0.658/RTIME)
   DFIELD  = 0.0000000 0.0000000 0.0000000 field for delta impulse in time
 
 Orbital magnetization related:
   ORBITALMAG=     F  switch on orbital magnetization
   LCHIMAG   =     F  perturbation theory with respect to B field
   DQ        =  0.001000  dq finite difference perturbation B field
   LLRAUG    =     F  two centre corrections for induced B field



--------------------------------------------------------------------------------------------------------


 linear response using symmetry
 charge density and potential will be updated during run
 non-spin polarized calculation
 Variant of blocked Davidson
 Davidson routine will perform the subspace rotation
 perform sub-space diagonalisation
    after iterative eigenvector-optimisation
 modified Broyden-mixing scheme, WC =      100.0
 initial mixing is a Kerker type mixing with AMIX =  0.4000 and BMIX =      1.0000
 Hartree-type preconditioning will be used
 using additional bands           64
 reciprocal scheme for non local part
 calculate Harris-corrections to forces 
   (improved forces if not selfconsistent)
 use gradient corrections 
 use of overlap-Matrix (Vanderbilt PP)
 Gauss-broadening in eV      SIGMA  =   0.06


--------------------------------------------------------------------------------------------------------


  energy-cutoff  :      400.00
  volume of cell :      362.74
      direct lattice vectors                 reciprocal lattice vectors
     7.107835282  0.000000000  0.000000000     0.140689811  0.000000000  0.000000000
     0.000000000  7.107835282  0.000000000     0.000000000  0.140689811  0.000000000
     0.000000000  0.000000000  7.179998718     0.000000000  0.000000000  0.139275791

  length of vectors
     7.107835282  7.107835282  7.179998718     0.140689811  0.140689811  0.139275791


 
 k-points in units of 2pi/SCALE and weight: kpt_density=3000                        
   0.00000000  0.00000000  0.00000000       0.005
   0.02344830  0.00000000  0.00000000       0.019
   0.04689660  0.00000000  0.00000000       0.019
   0.07034491  0.00000000  0.00000000       0.009
   0.02344830  0.02344830  0.00000000       0.019
   0.04689660  0.02344830  0.00000000       0.037
   0.07034491  0.02344830  0.00000000       0.019
   0.04689660  0.04689660  0.00000000       0.019
   0.07034491  0.04689660  0.00000000       0.019
   0.07034491  0.07034491  0.00000000       0.005
   0.00000000  0.00000000  0.02321263       0.009
   0.02344830  0.00000000  0.02321263       0.037
   0.04689660  0.00000000  0.02321263       0.037
   0.07034491  0.00000000  0.02321263       0.019
   0.02344830  0.02344830  0.02321263       0.037
   0.04689660  0.02344830  0.02321263       0.074
   0.07034491  0.02344830  0.02321263       0.037
   0.04689660  0.04689660  0.02321263       0.037
   0.07034491  0.04689660  0.02321263       0.037
   0.07034491  0.07034491  0.02321263       0.009
   0.00000000  0.00000000  0.04642526       0.009
   0.02344830  0.00000000  0.04642526       0.037
   0.04689660  0.00000000  0.04642526       0.037
   0.07034491  0.00000000  0.04642526       0.019
   0.02344830  0.02344830  0.04642526       0.037
   0.04689660  0.02344830  0.04642526       0.074
   0.07034491  0.02344830  0.04642526       0.037
   0.04689660  0.04689660  0.04642526       0.037
   0.07034491  0.04689660  0.04642526       0.037
   0.07034491  0.07034491  0.04642526       0.009
   0.00000000  0.00000000  0.06963790       0.005
   0.02344830  0.00000000  0.06963790       0.019
   0.04689660  0.00000000  0.06963790       0.019
   0.07034491  0.00000000  0.06963790       0.009
   0.02344830  0.02344830  0.06963790       0.019
   0.04689660  0.02344830  0.06963790       0.037
   0.07034491  0.02344830  0.06963790       0.019
   0.04689660  0.04689660  0.06963790       0.019
   0.07034491  0.04689660  0.06963790       0.019
   0.07034491  0.07034491  0.06963790       0.005
 
 k-points in reciprocal lattice and weights: kpt_density=3000                        
   0.00000000  0.00000000  0.00000000       0.005
   0.16666667  0.00000000  0.00000000       0.019
   0.33333333  0.00000000  0.00000000       0.019
   0.50000000  0.00000000  0.00000000       0.009
   0.16666667  0.16666667  0.00000000       0.019
   0.33333333  0.16666667  0.00000000       0.037
   0.50000000  0.16666667  0.00000000       0.019
   0.33333333  0.33333333  0.00000000       0.019
   0.50000000  0.33333333  0.00000000       0.019
   0.50000000  0.50000000  0.00000000       0.005
   0.00000000  0.00000000  0.16666667       0.009
   0.16666667  0.00000000  0.16666667       0.037
   0.33333333  0.00000000  0.16666667       0.037
   0.50000000  0.00000000  0.16666667       0.019
   0.16666667  0.16666667  0.16666667       0.037
   0.33333333  0.16666667  0.16666667       0.074
   0.50000000  0.16666667  0.16666667       0.037
   0.33333333  0.33333333  0.16666667       0.037
   0.50000000  0.33333333  0.16666667       0.037
   0.50000000  0.50000000  0.16666667       0.009
   0.00000000  0.00000000  0.33333333       0.009
   0.16666667  0.00000000  0.33333333       0.037
   0.33333333  0.00000000  0.33333333       0.037
   0.50000000  0.00000000  0.33333333       0.019
   0.16666667  0.16666667  0.33333333       0.037
   0.33333333  0.16666667  0.33333333       0.074
   0.50000000  0.16666667  0.33333333       0.037
   0.33333333  0.33333333  0.33333333       0.037
   0.50000000  0.33333333  0.33333333       0.037
   0.50000000  0.50000000  0.33333333       0.009
   0.00000000  0.00000000  0.50000000       0.005
   0.16666667  0.00000000  0.50000000       0.019
   0.33333333  0.00000000  0.50000000       0.019
   0.50000000  0.00000000  0.50000000       0.009
   0.16666667  0.16666667  0.50000000       0.019
   0.33333333  0.16666667  0.50000000       0.037
   0.50000000  0.16666667  0.50000000       0.019
   0.33333333  0.33333333  0.50000000       0.019
   0.50000000  0.33333333  0.50000000       0.019
   0.50000000  0.50000000  0.50000000       0.005
 
 position of ions in fractional coordinates (direct lattice) 
   0.12500000  0.37500000  0.12500000
   0.62500000  0.37500000  0.12500000
   0.12500000  0.87500000  0.12500000
   0.62500000  0.87500000  0.12500000
   0.12500000  0.37500000  0.62500000
   0.62500000  0.37500000  0.62500000
   0.12500000  0.87500000  0.62500000
   0.62500000  0.87500000  0.62500000
   0.00000000  0.00000000  0.25000000
   0.50000000  0.00000000  0.25000000
   0.00000000  0.50000000  0.25000000
   0.50000000  0.50000000  0.25000000
   0.00000000  0.00000000  0.75000000
   0.50000000  0.00000000  0.75000000
   0.00000000  0.50000000  0.75000000
   0.50000000  0.50000000  0.75000000
   0.12500000  0.12500000  0.37500000
   0.62500000  0.12500000  0.37500000
   0.12500000  0.62500000  0.37500000
   0.62500000  0.62500000  0.37500000
   0.12500000  0.12500000  0.87500000
   0.62500000  0.12500000  0.87500000
   0.12500000  0.62500000  0.87500000
   0.62500000  0.62500000  0.87500000
   0.00000000  0.25000000  0.00000000
   0.50000000  0.25000000  0.00000000
   0.00000000  0.75000000  0.00000000
   0.50000000  0.75000000  0.00000000
   0.00000000  0.25000000  0.50000000
   0.50000000  0.25000000  0.50000000
   0.00000000  0.75000000  0.50000000
   0.50000000  0.75000000  0.50000000
   0.37500000  0.37500000  0.37500000
   0.87500000  0.37500000  0.37500000
   0.37500000  0.87500000  0.37500000
   0.87500000  0.87500000  0.37500000
   0.37500000  0.37500000  0.87500000
   0.87500000  0.37500000  0.87500000
   0.37500000  0.87500000  0.87500000
   0.87500000  0.87500000  0.87500000
   0.25000000  0.00000000  0.00000000
   0.75000000  0.00000000  0.00000000
   0.25000000  0.50000000  0.00000000
   0.75000000  0.50000000  0.00000000
   0.25000000  0.00000000  0.50000000
   0.75000000  0.00000000  0.50000000
   0.25000000  0.50000000  0.50000000
   0.75000000  0.50000000  0.50000000
   0.37500000  0.12500000  0.12500000
   0.87500000  0.12500000  0.12500000
   0.37500000  0.62500000  0.12500000
   0.87500000  0.62500000  0.12500000
   0.37500000  0.12500000  0.62500000
   0.87500000  0.12500000  0.62500000
   0.37500000  0.62500000  0.62500000
   0.87500000  0.62500000  0.62500000
   0.25000000  0.25000000  0.25000000
   0.75000000  0.25000000  0.25000000
   0.25000000  0.75000000  0.25000000
   0.75000000  0.75000000  0.25000000
   0.25000000  0.25000000  0.75000000
   0.75000000  0.25000000  0.75000000
   0.25000000  0.75000000  0.75000000
   0.75000000  0.75000000  0.75000000
 
 position of ions in cartesian coordinates  (Angst):
   0.88847941  2.66543823  0.89749984
   4.44239705  2.66543823  0.89749984
   0.88847941  6.21935587  0.89749984
   4.44239705  6.21935587  0.89749984
   0.88847941  2.66543823  4.48749920
   4.44239705  2.66543823  4.48749920
   0.88847941  6.21935587  4.48749920
   4.44239705  6.21935587  4.48749920
   0.00000000  0.00000000  1.79499968
   3.55391764  0.00000000  1.79499968
   0.00000000  3.55391764  1.79499968
   3.55391764  3.55391764  1.79499968
   0.00000000  0.00000000  5.38499904
   3.55391764  0.00000000  5.38499904
   0.00000000  3.55391764  5.38499904
   3.55391764  3.55391764  5.38499904
   0.88847941  0.88847941  2.69249952
   4.44239705  0.88847941  2.69249952
   0.88847941  4.44239705  2.69249952
   4.44239705  4.44239705  2.69249952
   0.88847941  0.88847941  6.28249888
   4.44239705  0.88847941  6.28249888
   0.88847941  4.44239705  6.28249888
   4.44239705  4.44239705  6.28249888
   0.00000000  1.77695882  0.00000000
   3.55391764  1.77695882  0.00000000
   0.00000000  5.33087646  0.00000000
   3.55391764  5.33087646  0.00000000
   0.00000000  1.77695882  3.58999936
   3.55391764  1.77695882  3.58999936
   0.00000000  5.33087646  3.58999936
   3.55391764  5.33087646  3.58999936
   2.66543823  2.66543823  2.69249952
   6.21935587  2.66543823  2.69249952
   2.66543823  6.21935587  2.69249952
   6.21935587  6.21935587  2.69249952
   2.66543823  2.66543823  6.28249888
   6.21935587  2.66543823  6.28249888
   2.66543823  6.21935587  6.28249888
   6.21935587  6.21935587  6.28249888
   1.77695882  0.00000000  0.00000000
   5.33087646  0.00000000  0.00000000
   1.77695882  3.55391764  0.00000000
   5.33087646  3.55391764  0.00000000
   1.77695882  0.00000000  3.58999936
   5.33087646  0.00000000  3.58999936
   1.77695882  3.55391764  3.58999936
   5.33087646  3.55391764  3.58999936
   2.66543823  0.88847941  0.89749984
   6.21935587  0.88847941  0.89749984
   2.66543823  4.44239705  0.89749984
   6.21935587  4.44239705  0.89749984
   2.66543823  0.88847941  4.48749920
   6.21935587  0.88847941  4.48749920
   2.66543823  4.44239705  4.48749920
   6.21935587  4.44239705  4.48749920
   1.77695882  1.77695882  1.79499968
   5.33087646  1.77695882  1.79499968
   1.77695882  5.33087646  1.79499968
   5.33087646  5.33087646  1.79499968
   1.77695882  1.77695882  5.38499904
   5.33087646  1.77695882  5.38499904
   1.77695882  5.33087646  5.38499904
   5.33087646  5.33087646  5.38499904
 


--------------------------------------------------------------------------------------------------------


 k-point  1 :   0.0000 0.0000 0.0000  plane waves:    6627
 k-point  2 :   0.1667 0.0000 0.0000  plane waves:    6593
 k-point  3 :   0.3333 0.0000 0.0000  plane waves:    6607
 k-point  4 :   0.5000 0.0000 0.0000  plane waves:    6552
 k-point  5 :   0.1667 0.1667 0.0000  plane waves:    6613
 k-point  6 :   0.3333 0.1667 0.0000  plane waves:    6601
 k-point  7 :   0.5000 0.1667 0.0000  plane waves:    6596
 k-point  8 :   0.3333 0.3333 0.0000  plane waves:    6586
 k-point  9 :   0.5000 0.3333 0.0000  plane waves:    6558
 k-point 10 :   0.5000 0.5000 0.0000  plane waves:    6544
 k-point 11 :   0.0000 0.0000 0.1667  plane waves:    6603
 k-point 12 :   0.1667 0.0000 0.1667  plane waves:    6614
 k-point 13 :   0.3333 0.0000 0.1667  plane waves:    6604
 k-point 14 :   0.5000 0.0000 0.1667  plane waves:    6588
 k-point 15 :   0.1667 0.1667 0.1667  plane waves:    6593
 k-point 16 :   0.3333 0.1667 0.1667  plane waves:    6594
 k-point 17 :   0.5000 0.1667 0.1667  plane waves:    6592
 k-point 18 :   0.3333 0.3333 0.1667  plane waves:    6578
 k-point 19 :   0.5000 0.3333 0.1667  plane waves:    6562
 k-point 20 :   0.5000 0.5000 0.1667  plane waves:    6568
 k-point 21 :   0.0000 0.0000 0.3333  plane waves:    6584
 k-point 22 :   0.1667 0.0000 0.3333  plane waves:    6592
 k-point 23 :   0.3333 0.0000 0.3333  plane waves:    6591
 k-point 24 :   0.5000 0.0000 0.3333  plane waves:    6610
 k-point 25 :   0.1667 0.1667 0.3333  plane waves:    6587
 k-point 26 :   0.3333 0.1667 0.3333  plane waves:    6581
 k-point 27 :   0.5000 0.1667 0.3333  plane waves:    6582
 k-point 28 :   0.3333 0.3333 0.3333  plane waves:    6598
 k-point 29 :   0.5000 0.3333 0.3333  plane waves:    6580
 k-point 30 :   0.5000 0.5000 0.3333  plane waves:    6616
 k-point 31 :   0.0000 0.0000 0.5000  plane waves:    6592
 k-point 32 :   0.1667 0.0000 0.5000  plane waves:    6600
 k-point 33 :   0.3333 0.0000 0.5000  plane waves:    6586
 k-point 34 :   0.5000 0.0000 0.5000  plane waves:    6564
 k-point 35 :   0.1667 0.1667 0.5000  plane waves:    6592
 k-point 36 :   0.3333 0.1667 0.5000  plane waves:    6594
 k-point 37 :   0.5000 0.1667 0.5000  plane waves:    6564
 k-point 38 :   0.3333 0.3333 0.5000  plane waves:    6592
 k-point 39 :   0.5000 0.3333 0.5000  plane waves:    6592
 k-point 40 :   0.5000 0.5000 0.5000  plane waves:    6632

 maximum and minimum number of plane-waves per node :      6632     6544

 maximum number of plane-waves:      6632
 maximum index in each direction: 
   IXMAX=   11   IYMAX=   11   IZMAX=   11
   IXMIN=  -12   IYMIN=  -12   IZMIN=  -12


 serial   3D FFT for wavefunctions
 parallel 3D FFT for charge:
    minimum data exchange during FFTs selected (reduces bandwidth)


 total amount of memory used by VASP MPI-rank0    91919. kBytes
=======================================================================

   base      :      30000. kBytes
   nonl-proj :      23855. kBytes
   fftplans  :       4537. kBytes
   grid      :       5806. kBytes
   one-center:        196. kBytes
   wavefun   :      27525. kBytes
 
     INWAV:  cpu time    0.0004: real time    0.0005
 Broyden mixing: mesh for mixing (old mesh)
   NGX = 23   NGY = 23   NGZ = 23
  (NGX  = 96   NGY  = 96   NGZ  = 96)
  gives a total of  12167 points

 initial charge density was supplied:
 charge density of overlapping atoms calculated
 number of electron     256.0000000 magnetization 
 keeping initial charge density in first step


--------------------------------------------------------------------------------------------------------


 Maximum index for augmentation-charges         1105 (set IRDMAX)


--------------------------------------------------------------------------------------------------------


 First call to EWALD:  gamma=   0.249
 Maximum number of real-space cells 3x 3x 3
 Maximum number of reciprocal cells 3x 3x 3

    FEWALD:  cpu time    0.0083: real time    0.0083


--------------------------------------- Iteration      1(   1)  ---------------------------------------


    POTLOK:  cpu time    0.0658: real time    0.0707
    SETDIJ:  cpu time    0.0426: real time    0.0428
     EDDAV:  cpu time   26.5749: real time   26.5847
       DOS:  cpu time    0.0083: real time    0.0083
    --------------------------------------------
      LOOP:  cpu time   26.6917: real time   26.7066

 eigenvalue-minimisations  : 15360
 total energy-change (2. order) : 0.5047901E+03  (-0.1137385E+05)
 number of electron     256.0000000 magnetization 
 augmentation part      256.0000000 magnetization 

 Free energy of the ion-electron system (eV)
  ---------------------------------------------------
  alpha Z        PSCENC =       920.05283120
  Ewald energy   TEWEN  =    -11137.65801093
  -Hartree energ DENC   =      -563.06065341
  -exchange      EXHF   =         0.00000000
  -V(xc)+E(xc)   XCENC  =       915.21926259
  PAW double counting   =      2421.21235816    -2494.84305711
  entropy T*S    EENTRO =        -0.01161034
  eigenvalues    EBANDS =      1027.73667809
  atomic energy  EATOM  =      9416.14232778
  Solvation  Ediel_sol  =         0.00000000
  ---------------------------------------------------
  free energy    TOTEN  =       504.79012603 eV

  energy without entropy =      504.80173637  energy(sigma->0) =      504.79593120


--------------------------------------------------------------------------------------------------------




--------------------------------------- Iteration      1(   2)  ---------------------------------------


     EDDAV:  cpu time   33.9773: real time   33.9797
       DOS:  cpu time    0.0042: real time    0.0042
    --------------------------------------------
      LOOP:  cpu time   33.9815: real time   33.9839

 eigenvalue-minimisations  : 20224
 total energy-change (2. order) :-0.1066150E+04  (-0.1017142E+04)
 number of electron     256.0000000 magnetization 
 augmentation part      256.0000000 magnetization 

 Free energy of the ion-electron system (eV)
  ---------------------------------------------------
  alpha Z        PSCENC =       920.05283120
  Ewald energy   TEWEN  =    -11137.65801093
  -Hartree energ DENC   =      -563.06065341
  -exchange      EXHF   =         0.00000000
  -V(xc)+E(xc)   XCENC  =       915.21926259
  PAW double counting   =      2421.21235816    -2494.84305711
  entropy T*S    EENTRO =        -0.00000000
  eigenvalues    EBANDS =       -38.42488788
  atomic energy  EATOM  =      9416.14232778
  Solvation  Ediel_sol  =         0.00000000
  ---------------------------------------------------
  free energy    TOTEN  =      -561.35982960 eV

  energy without entropy =     -561.35982960  energy(sigma->0) =     -561.35982960


--------------------------------------------------------------------------------------------------------




--------------------------------------- Iteration      1(   3)  ---------------------------------------


     EDDAV:  cpu time   34.5945: real time   34.5969
       DOS:  cpu time    0.0042: real time    0.0042
    --------------------------------------------
      LOOP:  cpu time   34.5986: real time   34.6010

 eigenvalue-minimisations  : 20448
 total energy-change (2. order) :-0.4041925E+02  (-0.4018680E+02)
 number of electron     256.0000000 magnetization 
 augmentation part      256.0000000 magnetization 

 Free energy of the ion-electron system (eV)
  ---------------------------------------------------
  alpha Z        PSCENC =       920.05283120
  Ewald energy   TEWEN  =    -11137.65801093
  -Hartree energ DENC   =      -563.06065341
  -exchange      EXHF   =         0.00000000
  -V(xc)+E(xc)   XCENC  =       915.21926259
  PAW double counting   =      2421.21235816    -2494.84305711
  entropy T*S    EENTRO =        -0.00000000
  eigenvalues    EBANDS =       -78.84414148
  atomic energy  EATOM  =      9416.14232778
  Solvation  Ediel_sol  =         0.00000000
  ---------------------------------------------------
  free energy    TOTEN  =      -601.77908320 eV

  energy without entropy =     -601.77908320  energy(sigma->0) =     -601.77908320


--------------------------------------------------------------------------------------------------------




--------------------------------------- Iteration      1(   4)  ---------------------------------------


     EDDAV:  cpu time   34.8250: real time   34.8275
       DOS:  cpu time    0.0044: real time    0.0044
    --------------------------------------------
      LOOP:  cpu time   34.8294: real time   34.8319

 eigenvalue-minimisations  : 20288
 total energy-change (2. order) :-0.4297115E+00  (-0.4287977E+00)
 number of electron     256.0000000 magnetization 
 augmentation part      256.0000000 magnetization 

 Free energy of the ion-electron system (eV)
  ---------------------------------------------------
  alpha Z        PSCENC =       920.05283120
  Ewald energy   TEWEN  =    -11137.65801093
  -Hartree energ DENC   =      -563.06065341
  -exchange      EXHF   =         0.00000000
  -V(xc)+E(xc)   XCENC  =       915.21926259
  PAW double counting   =      2421.21235816    -2494.84305711
  entropy T*S    EENTRO =        -0.00000000
  eigenvalues    EBANDS =       -79.27385294
  atomic energy  EATOM  =      9416.14232778
  Solvation  Ediel_sol  =         0.00000000
  ---------------------------------------------------
  free energy    TOTEN  =      -602.20879467 eV

  energy without entropy =     -602.20879467  energy(sigma->0) =     -602.20879467


--------------------------------------------------------------------------------------------------------




--------------------------------------- Iteration      1(   5)  ---------------------------------------


     EDDAV:  cpu time   31.8572: real time   31.8595
       DOS:  cpu time    0.0042: real time    0.0042
    CHARGE:  cpu time    0.7626: real time    0.7629
    MIXING:  cpu time    0.0040: real time    0.0040
    --------------------------------------------
      LOOP:  cpu time   32.6281: real time   32.6306

 eigenvalue-minimisations  : 19328
 total energy-change (2. order) :-0.9194121E-02  (-0.9189888E-02)
 number of electron     255.9999994 magnetization 
 augmentation part        6.3179881 magnetization 

 Broyden mixing:
  rms(total) = 0.26901E+01    rms(broyden)= 0.26896E+01
  rms(prec ) = 0.39297E+01
  weight for this iteration     100.00

 Free energy of the ion-electron system (eV)
  ---------------------------------------------------
  alpha Z        PSCENC =       920.05283120
  Ewald energy   TEWEN  =    -11137.65801093
  -Hartree energ DENC   =      -563.06065341
  -exchange      EXHF   =         0.00000000
  -V(xc)+E(xc)   XCENC  =       915.21926259
  PAW double counting   =      2421.21235816    -2494.84305711
  entropy T*S    EENTRO =        -0.00000000
  eigenvalues    EBANDS =       -79.28304707
  atomic energy  EATOM  =      9416.14232778
  Solvation  Ediel_sol  =         0.00000000
  ---------------------------------------------------
  free energy    TOTEN  =      -602.21798879 eV

  energy without entropy =     -602.21798879  energy(sigma->0) =     -602.21798879


--------------------------------------------------------------------------------------------------------




--------------------------------------- Iteration      1(   6)  ---------------------------------------


    POTLOK:  cpu time    0.0587: real time    0.0590
    SETDIJ:  cpu time    0.0405: real time    0.0405
     EDDAV:  cpu time   30.3118: real time   30.3136
       DOS:  cpu time    0.0044: real time    0.0044
    CHARGE:  cpu time    0.7634: real time    0.7635
    MIXING:  cpu time    0.0041: real time    0.0041
    --------------------------------------------
      LOOP:  cpu time   31.1828: real time   31.1850

 eigenvalue-minimisations  : 18080
 total energy-change (2. order) : 0.1522934E+02  (-0.1005579E+01)
 number of electron     255.9999994 magnetization 
 augmentation part        6.1706780 magnetization 

 Broyden mixing:
  rms(total) = 0.14743E+01    rms(broyden)= 0.14742E+01
  rms(prec ) = 0.21346E+01
  weight for this iteration     100.00

 eigenvalues of (default mixing * dielectric matrix)
  average eigenvalue GAMMA=   2.1665
  2.1665

 Free energy of the ion-electron system (eV)
  ---------------------------------------------------
  alpha Z        PSCENC =       920.05283120
  Ewald energy   TEWEN  =    -11137.65801093
  -Hartree energ DENC   =      -684.56828628
  -exchange      EXHF   =         0.00000000
  -V(xc)+E(xc)   XCENC  =       926.60234895
  PAW double counting   =      3154.09412348    -3232.07424379
  entropy T*S    EENTRO =        -0.00000000
  eigenvalues    EBANDS =        50.42026168
  atomic energy  EATOM  =      9416.14232778
  Solvation  Ediel_sol  =         0.00000000
  ---------------------------------------------------
  free energy    TOTEN  =      -586.98864790 eV

  energy without entropy =     -586.98864790  energy(sigma->0) =     -586.98864790


--------------------------------------------------------------------------------------------------------




--------------------------------------- Iteration      1(   7)  ---------------------------------------


    POTLOK:  cpu time    0.0764: real time    0.0768
    SETDIJ:  cpu time    0.0429: real time    0.0429
     EDDAV:  cpu time   31.8548: real time   31.8568
       DOS:  cpu time    0.0044: real time    0.0044
    CHARGE:  cpu time    0.7704: real time    0.7705
    MIXING:  cpu time    0.0047: real time    0.0047
    --------------------------------------------
      LOOP:  cpu time   32.7537: real time   32.7561

 eigenvalue-minimisations  : 18784
 total energy-change (2. order) : 0.5142731E+01  (-0.1146611E+01)
 number of electron     255.9999994 magnetization 
 augmentation part        6.0161134 magnetization 

 Broyden mixing:
  rms(total) = 0.19619E+00    rms(broyden)= 0.19525E+00
  rms(prec ) = 0.23976E+00
  weight for this iteration     100.00

 eigenvalues of (default mixing * dielectric matrix)
  average eigenvalue GAMMA=   2.2740
  2.0124  2.5356

 Free energy of the ion-electron system (eV)
  ---------------------------------------------------
  alpha Z        PSCENC =       920.05283120
  Ewald energy   TEWEN  =    -11137.65801093
  -Hartree energ DENC   =      -840.17075274
  -exchange      EXHF   =         0.00000000
  -V(xc)+E(xc)   XCENC  =       941.34598607
  PAW double counting   =      4153.93853819    -4236.05833841
  entropy T*S    EENTRO =        -0.00000000
  eigenvalues    EBANDS =       200.56150208
  atomic energy  EATOM  =      9416.14232778
  Solvation  Ediel_sol  =         0.00000000
  ---------------------------------------------------
  free energy    TOTEN  =      -581.84591677 eV

  energy without entropy =     -581.84591677  energy(sigma->0) =     -581.84591677


--------------------------------------------------------------------------------------------------------




--------------------------------------- Iteration      1(   8)  ---------------------------------------


    POTLOK:  cpu time    0.0628: real time    0.0633
    SETDIJ:  cpu time    0.0441: real time    0.0441
     EDDAV:  cpu time   32.1319: real time   32.1338
       DOS:  cpu time    0.0041: real time    0.0041
    CHARGE:  cpu time    0.7632: real time    0.7633
    MIXING:  cpu time    0.0044: real time    0.0044
    --------------------------------------------
      LOOP:  cpu time   33.0105: real time   33.0131

 eigenvalue-minimisations  : 19232
 total energy-change (2. order) :-0.6084419E-01  (-0.2567280E-01)
 number of electron     255.9999994 magnetization 
 augmentation part        6.0238156 magnetization 

 Broyden mixing:
  rms(total) = 0.21587E-01    rms(broyden)= 0.21281E-01
  rms(prec ) = 0.26131E-01
  weight for this iteration     100.00

 eigenvalues of (default mixing * dielectric matrix)
  average eigenvalue GAMMA=   2.1055
  1.4652  2.6906  2.1607

 Free energy of the ion-electron system (eV)
  ---------------------------------------------------
  alpha Z        PSCENC =       920.05283120
  Ewald energy   TEWEN  =    -11137.65801093
  -Hartree energ DENC   =      -843.38555811
  -exchange      EXHF   =         0.00000000
  -V(xc)+E(xc)   XCENC  =       941.68001734
  PAW double counting   =      4226.30812645    -4307.37628546
  entropy T*S    EENTRO =        -0.00000000
  eigenvalues    EBANDS =       202.32979077
  atomic energy  EATOM  =      9416.14232778
  Solvation  Ediel_sol  =         0.00000000
  ---------------------------------------------------
  free energy    TOTEN  =      -581.90676096 eV

  energy without entropy =     -581.90676096  energy(sigma->0) =     -581.90676096


--------------------------------------------------------------------------------------------------------




--------------------------------------- Iteration      1(   9)  ---------------------------------------


    POTLOK:  cpu time    0.0590: real time    0.1472
    SETDIJ:  cpu time    0.0403: real time    0.0403
     EDDAV:  cpu time   33.2233: real time   33.2253
       DOS:  cpu time    0.0043: real time    0.0043
    CHARGE:  cpu time    0.7667: real time    0.7667
    MIXING:  cpu time    0.0043: real time    0.0043
    --------------------------------------------
      LOOP:  cpu time   34.0978: real time   34.1880

 eigenvalue-minimisations  : 19904
 total energy-change (2. order) :-0.2118099E-02  (-0.3615240E-03)
 number of electron     255.9999994 magnetization 
 augmentation part        6.0228359 magnetization 

 Broyden mixing:
  rms(total) = 0.80253E-02    rms(broyden)= 0.80023E-02
  rms(prec ) = 0.10172E-01
  weight for this iteration     100.00

 eigenvalues of (default mixing * dielectric matrix)
  average eigenvalue GAMMA=   2.0425
  0.9667  2.7560  2.4585  1.9888

 Free energy of the ion-electron system (eV)
  ---------------------------------------------------
  alpha Z        PSCENC =       920.05283120
  Ewald energy   TEWEN  =    -11137.65801093
  -Hartree energ DENC   =      -842.88111857
  -exchange      EXHF   =         0.00000000
  -V(xc)+E(xc)   XCENC  =       941.63100183
  PAW double counting   =      4222.12552110    -4303.08794817
  entropy T*S    EENTRO =        -0.00000000
  eigenvalues    EBANDS =       201.76651669
  atomic energy  EATOM  =      9416.14232778
  Solvation  Ediel_sol  =         0.00000000
  ---------------------------------------------------
  free energy    TOTEN  =      -581.90887906 eV

  energy without entropy =     -581.90887906  energy(sigma->0) =     -581.90887906


--------------------------------------------------------------------------------------------------------




--------------------------------------- Iteration      1(  10)  ---------------------------------------


    POTLOK:  cpu time    0.0572: real time    0.0576
    SETDIJ:  cpu time    0.0484: real time    0.0484
     EDDAV:  cpu time   31.9724: real time   31.9743
       DOS:  cpu time    0.0042: real time    0.0042
    CHARGE:  cpu time    0.7705: real time    0.7706
    MIXING:  cpu time    0.0047: real time    0.0047
    --------------------------------------------
      LOOP:  cpu time   32.8574: real time   32.8598

 eigenvalue-minimisations  : 18592
 total energy-change (2. order) :-0.4520037E-03  (-0.3991704E-04)
 number of electron     255.9999994 magnetization 
 augmentation part        6.0225436 magnetization 

 Broyden mixing:
  rms(total) = 0.79738E-03    rms(broyden)= 0.78098E-03
  rms(prec ) = 0.11833E-02
  weight for this iteration     100.00

 eigenvalues of (default mixing * dielectric matrix)
  average eigenvalue GAMMA=   1.9571
  2.9333  2.5502  2.0636  0.9881  1.2502

 Free energy of the ion-electron system (eV)
  ---------------------------------------------------
  alpha Z        PSCENC =       920.05283120
  Ewald energy   TEWEN  =    -11137.65801093
  -Hartree energ DENC   =      -843.27578866
  -exchange      EXHF   =         0.00000000
  -V(xc)+E(xc)   XCENC  =       941.66526275
  PAW double counting   =      4218.42843413    -4299.40497919
  entropy T*S    EENTRO =        -0.00000000
  eigenvalues    EBANDS =       202.14059186
  atomic energy  EATOM  =      9416.14232778
  Solvation  Ediel_sol  =         0.00000000
  ---------------------------------------------------
  free energy    TOTEN  =      -581.90933106 eV

  energy without entropy =     -581.90933106  energy(sigma->0) =     -581.90933106


--------------------------------------------------------------------------------------------------------




--------------------------------------- Iteration      1(  11)  ---------------------------------------


    POTLOK:  cpu time    0.0610: real time    0.0612
    SETDIJ:  cpu time    0.0404: real time    0.0404
     EDDAV:  cpu time   34.6927: real time   34.6948
       DOS:  cpu time    0.0045: real time    0.0045
    CHARGE:  cpu time    0.7661: real time    0.7661
    MIXING:  cpu time    0.0055: real time    0.0054
    --------------------------------------------
      LOOP:  cpu time   35.5702: real time   35.5725

 eigenvalue-minimisations  : 20160
 total energy-change (2. order) :-0.5107915E-05  (-0.1097976E-05)
 number of electron     255.9999994 magnetization 
 augmentation part        6.0223553 magnetization 

 Broyden mixing:
  rms(total) = 0.20198E-03    rms(broyden)= 0.19605E-03
  rms(prec ) = 0.26648E-03
  weight for this iteration     100.00

 eigenvalues of (default mixing * dielectric matrix)
  average eigenvalue GAMMA=   1.9971
  2.9781  2.5790  2.4108  2.0264  0.9940  0.9940

 Free energy of the ion-electron system (eV)
  ---------------------------------------------------
  alpha Z        PSCENC =       920.05283120
  Ewald energy   TEWEN  =    -11137.65801093
  -Hartree energ DENC   =      -843.39387855
  -exchange      EXHF   =         0.00000000
  -V(xc)+E(xc)   XCENC  =       941.67622552
  PAW double counting   =      4218.72811502    -4299.70941361
  entropy T*S    EENTRO =        -0.00000000
  eigenvalues    EBANDS =       202.25246739
  atomic energy  EATOM  =      9416.14232778
  Solvation  Ediel_sol  =         0.00000000
  ---------------------------------------------------
  free energy    TOTEN  =      -581.90933617 eV

  energy without entropy =     -581.90933617  energy(sigma->0) =     -581.90933617


--------------------------------------------------------------------------------------------------------




--------------------------------------- Iteration      1(  12)  ---------------------------------------


    POTLOK:  cpu time    0.0586: real time    0.0593
    SETDIJ:  cpu time    0.0409: real time    0.0409
     EDDAV:  cpu time   34.0334: real time   34.0355
       DOS:  cpu time    0.0043: real time    0.0043
    CHARGE:  cpu time    0.7596: real time    0.7596
    MIXING:  cpu time    0.0048: real time    0.0048
    --------------------------------------------
      LOOP:  cpu time   34.9017: real time   34.9044

 eigenvalue-minimisations  : 19680
 total energy-change (2. order) :-0.3283276E-08  (-0.3867046E-07)
 number of electron     255.9999994 magnetization 
 augmentation part        6.0223727 magnetization 

 Broyden mixing:
  rms(total) = 0.20398E-04    rms(broyden)= 0.18945E-04
  rms(prec ) = 0.27200E-04
  weight for this iteration     100.00

 eigenvalues of (default mixing * dielectric matrix)
  average eigenvalue GAMMA=   1.8824
  2.9319  2.6433  2.5037  2.0387  0.9764  1.0415  1.0415

 Free energy of the ion-electron system (eV)
  ---------------------------------------------------
  alpha Z        PSCENC =       920.05283120
  Ewald energy   TEWEN  =    -11137.65801093
  -Hartree energ DENC   =      -843.37807151
  -exchange      EXHF   =         0.00000000
  -V(xc)+E(xc)   XCENC  =       941.67477047
  PAW double counting   =      4218.80191091    -4299.78154367
  entropy T*S    EENTRO =        -0.00000000
  eigenvalues    EBANDS =       202.23644957
  atomic energy  EATOM  =      9416.14232778
  Solvation  Ediel_sol  =         0.00000000
  ---------------------------------------------------
  free energy    TOTEN  =      -581.90933617 eV

  energy without entropy =     -581.90933617  energy(sigma->0) =     -581.90933617


--------------------------------------------------------------------------------------------------------




--------------------------------------- Iteration      1(  13)  ---------------------------------------


    POTLOK:  cpu time    0.0573: real time    0.0577
    SETDIJ:  cpu time    0.0402: real time    0.0402
     EDDAV:  cpu time   27.4170: real time   27.4186
       DOS:  cpu time    0.0042: real time    0.0042
    CHARGE:  cpu time    0.7615: real time    0.7615
    MIXING:  cpu time    0.0053: real time    0.0053
    --------------------------------------------
      LOOP:  cpu time   28.2854: real time   28.2875

 eigenvalue-minimisations  : 14816
 total energy-change (2. order) :-0.7665767E-07  (-0.5512558E-09)
 number of electron     255.9999994 magnetization 
 augmentation part        6.0223710 magnetization 

 Broyden mixing:
  rms(total) = 0.42345E-05    rms(broyden)= 0.39804E-05
  rms(prec ) = 0.48612E-05
  weight for this iteration     100.00

 eigenvalues of (default mixing * dielectric matrix)
  average eigenvalue GAMMA=   1.9936
  2.0384  2.9172  2.9172  2.5943  2.4996  1.0075  1.0075  0.9674

 Free energy of the ion-electron system (eV)
  ---------------------------------------------------
  alpha Z        PSCENC =       920.05283120
  Ewald energy   TEWEN  =    -11137.65801093
  -Hartree energ DENC   =      -843.37599779
  -exchange      EXHF   =         0.00000000
  -V(xc)+E(xc)   XCENC  =       941.67457435
  PAW double counting   =      4218.79744511    -4299.77700160
  entropy T*S    EENTRO =        -0.00000000
  eigenvalues    EBANDS =       202.23449562
  atomic energy  EATOM  =      9416.14232778
  Solvation  Ediel_sol  =         0.00000000
  ---------------------------------------------------
  free energy    TOTEN  =      -581.90933625 eV

  energy without entropy =     -581.90933625  energy(sigma->0) =     -581.90933625


--------------------------------------------------------------------------------------------------------




--------------------------------------- Iteration      1(  14)  ---------------------------------------


    POTLOK:  cpu time    0.0574: real time    0.0578
    SETDIJ:  cpu time    0.0413: real time    0.0413
     EDDAV:  cpu time   25.9688: real time   25.9704
       DOS:  cpu time    0.0043: real time    0.0043
    CHARGE:  cpu time    0.7737: real time    0.7737
    MIXING:  cpu time    0.0065: real time    0.0065
    --------------------------------------------
      LOOP:  cpu time   26.8519: real time   26.8541

 eigenvalue-minimisations  : 13216
 total energy-change (2. order) :-0.1977241E-07  (-0.7837731E-10)
 number of electron     255.9999994 magnetization 
 augmentation part        6.0223713 magnetization 

 Broyden mixing:
  rms(total) = 0.18570E-05    rms(broyden)= 0.18417E-05
  rms(prec ) = 0.24693E-05
  weight for this iteration     100.00

 eigenvalues of (default mixing * dielectric matrix)
  average eigenvalue GAMMA=   1.8667
  2.0417  2.8956  2.7755  2.5339  2.5316  0.9731  0.9731  1.0381  1.0381

 Free energy of the ion-electron system (eV)
  ---------------------------------------------------
  alpha Z        PSCENC =       920.05283120
  Ewald energy   TEWEN  =    -11137.65801093
  -Hartree energ DENC   =      -843.37563491
  -exchange      EXHF   =         0.00000000
  -V(xc)+E(xc)   XCENC  =       941.67454080
  PAW double counting   =      4218.79185250    -4299.77139437
  entropy T*S    EENTRO =        -0.00000000
  eigenvalues    EBANDS =       202.23415166
  atomic energy  EATOM  =      9416.14232778
  Solvation  Ediel_sol  =         0.00000000
  ---------------------------------------------------
  free energy    TOTEN  =      -581.90933627 eV

  energy without entropy =     -581.90933627  energy(sigma->0) =     -581.90933627


--------------------------------------------------------------------------------------------------------




--------------------------------------- Iteration      1(  15)  ---------------------------------------


    POTLOK:  cpu time    0.0586: real time    0.0590
    SETDIJ:  cpu time    0.0408: real time    0.0408
     EDDAV:  cpu time   23.9788: real time   23.9803
       DOS:  cpu time    0.0045: real time    0.0045
    --------------------------------------------
      LOOP:  cpu time   24.0827: real time   24.0846

 eigenvalue-minimisations  : 11936
 total energy-change (2. order) : 0.3801688E-09  (-0.1687823E-10)
 number of electron     255.9999994 magnetization 
 augmentation part        6.0223713 magnetization 

 Free energy of the ion-electron system (eV)
  ---------------------------------------------------
  alpha Z        PSCENC =       920.05283120
  Ewald energy   TEWEN  =    -11137.65801093
  -Hartree energ DENC   =      -843.37578002
  -exchange      EXHF   =         0.00000000
  -V(xc)+E(xc)   XCENC  =       941.67455433
  PAW double counting   =      4218.79282662    -4299.77238117
  entropy T*S    EENTRO =        -0.00000000
  eigenvalues    EBANDS =       202.23429591
  atomic energy  EATOM  =      9416.14232778
  Solvation  Ediel_sol  =         0.00000000
  ---------------------------------------------------
  free energy    TOTEN  =      -581.90933627 eV

  energy without entropy =     -581.90933627  energy(sigma->0) =     -581.90933627


--------------------------------------------------------------------------------------------------------




 average (electrostatic) potential at core
  the test charge radii are     0.6991
  (the norm of the test charge is              1.0000)
       1 -45.3658       2 -45.3658       3 -45.3658       4 -45.3658       5 -45.3658
       6 -45.3658       7 -45.3658       8 -45.3658       9 -45.3658      10 -45.3658
      11 -45.3658      12 -45.3658      13 -45.3658      14 -45.3658      15 -45.3658
      16 -45.3658      17 -45.3658      18 -45.3658      19 -45.3658      20 -45.3658
      21 -45.3658      22 -45.3658      23 -45.3658      24 -45.3658      25 -45.3658
      26 -45.3658      27 -45.3658      28 -45.3658      29 -45.3658      30 -45.3658
      31 -45.3658      32 -45.3658      33 -45.3658      34 -45.3658      35 -45.3658
      36 -45.3658      37 -45.3658      38 -45.3658      39 -45.3658      40 -45.3658
      41 -45.3658      42 -45.3658      43 -45.3658      44 -45.3658      45 -45.3658
      46 -45.3658      47 -45.3658      48 -45.3658      49 -45.3658      50 -45.3658
      51 -45.3658      52 -45.3658      53 -45.3658      54 -45.3658      55 -45.3658
      56 -45.3658      57 -45.3658      58 -45.3658      59 -45.3658      60 -45.3658
      61 -45.3658      62 -45.3658      63 -45.3658      64 -45.3658
 
 
 
 E-fermi :  10.1546     XC(G=0): -13.2270     alpha+bet :-17.7121


 k-point     1 :       0.0000    0.0000    0.0000
  band No.  band energies     occupation 
      1     -11.7208      2.00000
      2      -9.4655      2.00000
      3      -9.4655      2.00000
      4      -9.4198      2.00000
      5      -9.4198      2.00000
      6      -9.4198      2.00000
      7      -9.4198      2.00000
      8      -7.2648      2.00000
[...]
      4.442397  0.888479  6.282499    -0.008722   -0.113182   -0.000000  
      0.888479  4.442397  6.282499    -0.008722   -0.113182    0.000000  
      4.442397  4.442397  6.282499    -0.008722   -0.113182   -0.000000  
      0.000000  1.776959  0.000000    -0.076890   -0.147728   -0.000000  
      3.553918  1.776959  0.000000    -0.076890   -0.147728   -0.000000  
      0.000000  5.330876  0.000000    -0.076890   -0.147728    0.000000  
      3.553918  5.330876  0.000000    -0.076890   -0.147728    0.000000  
      0.000000  1.776959  3.589999     0.076890    0.147728   -0.000000  
      3.553918  1.776959  3.589999     0.076890    0.147728   -0.000000  
      0.000000  5.330876  3.589999     0.076890    0.147728    0.000000  
      3.553918  5.330876  3.589999     0.076890    0.147728    0.000000  
      2.665438  2.665438  2.692500     0.008722    0.113182   -0.000000  
      6.219356  2.665438  2.692500     0.008722    0.113182   -0.000000  
      2.665438  6.219356  2.692500     0.008722    0.113182    0.000000  
      6.219356  6.219356  2.692500     0.008722    0.113182    0.000000  
      2.665438  2.665438  6.282499    -0.008722   -0.113182   -0.000000  
      6.219356  2.665438  6.282499    -0.008722   -0.113182   -0.000000  
      2.665438  6.219356  6.282499    -0.008722   -0.113182    0.000000  
      6.219356  6.219356  6.282499    -0.008722   -0.113182    0.000000  
      1.776959  0.000000  0.000000    -0.076890   -0.147728    0.000000  
      5.330876  0.000000  0.000000    -0.076890   -0.147728    0.000000  
      1.776959  3.553918  0.000000    -0.076890   -0.147728   -0.000000  
      5.330876  3.553918  0.000000    -0.076890   -0.147728   -0.000000  
      1.776959  0.000000  3.589999     0.076890    0.147728    0.000000  
      5.330876  0.000000  3.589999     0.076890    0.147728    0.000000  
      1.776959  3.553918  3.589999     0.076890    0.147728   -0.000000  
      5.330876  3.553918  3.589999     0.076890    0.147728   -0.000000  
      2.665438  0.888479  0.897500    -0.111101   -0.077591    0.000000  
      6.219356  0.888479  0.897500    -0.111101   -0.077591   -0.000000  
      2.665438  4.442397  0.897500    -0.111101   -0.077591    0.000000  
      6.219356  4.442397  0.897500    -0.111101   -0.077591   -0.000000  
      2.665438  0.888479  4.487499     0.111101    0.077591    0.000000  
      6.219356  0.888479  4.487499     0.111101    0.077591   -0.000000  
      2.665438  4.442397  4.487499     0.111101    0.077591    0.000000  
      6.219356  4.442397  4.487499     0.111101    0.077591   -0.000000  
      1.776959  1.776959  1.795000    -0.040178    0.043589    0.000000  
      5.330876  1.776959  1.795000    -0.040178    0.043589   -0.000000  
      1.776959  5.330876  1.795000    -0.040178    0.043589    0.000000  
      5.330876  5.330876  1.795000    -0.040178    0.043589   -0.000000  
      1.776959  1.776959  5.384999     0.040178   -0.043589    0.000000  
      5.330876  1.776959  5.384999     0.040178   -0.043589   -0.000000  
      1.776959  5.330876  5.384999     0.040178   -0.043589    0.000000  
      5.330876  5.330876  5.384999     0.040178   -0.043589   -0.000000  
 
 190 f/i=    0.000003 THz     0.000021 2PiTHz    0.000110 cm-1     0.000014 meV
             X         Y         Z           dx          dy          dz
      0.888479  2.665438  0.897500     0.039752   -0.118511   -0.000000  
      4.442397  2.665438  0.897500     0.039752   -0.118511   -0.000000  
      0.888479  6.219356  0.897500     0.039752   -0.118511    0.000000  
      4.442397  6.219356  0.897500     0.039752   -0.118511   -0.000000  
      0.888479  2.665438  4.487499     0.039752   -0.118511   -0.000000  
      4.442397  2.665438  4.487499     0.039752   -0.118511   -0.000000  
      0.888479  6.219356  4.487499     0.039752   -0.118511   -0.000000  
      4.442397  6.219356  4.487499     0.039752   -0.118511   -0.000000  
      0.000000  0.000000  1.795000     0.039752   -0.118511   -0.000000  
      3.553918  0.000000  1.795000     0.039752   -0.118511   -0.000000  
      0.000000  3.553918  1.795000     0.039752   -0.118511   -0.000000  
      3.553918  3.553918  1.795000     0.039752   -0.118511   -0.000000  
      0.000000  0.000000  5.384999     0.039752   -0.118511   -0.000000  
      3.553918  0.000000  5.384999     0.039752   -0.118511   -0.000000  
      0.000000  3.553918  5.384999     0.039752   -0.118511   -0.000000  
      3.553918  3.553918  5.384999     0.039752   -0.118511   -0.000000  
      0.888479  0.888479  2.692500     0.039752   -0.118511   -0.000000  
      4.442397  0.888479  2.692500     0.039752   -0.118511    0.000000  
      0.888479  4.442397  2.692500     0.039752   -0.118511   -0.000000  
      4.442397  4.442397  2.692500     0.039752   -0.118511    0.000000  
      0.888479  0.888479  6.282499     0.039752   -0.118511   -0.000000  
      4.442397  0.888479  6.282499     0.039752   -0.118511   -0.000000  
      0.888479  4.442397  6.282499     0.039752   -0.118511   -0.000000  
      4.442397  4.442397  6.282499     0.039752   -0.118511   -0.000000  
      0.000000  1.776959  0.000000     0.039752   -0.118511   -0.000000  
      3.553918  1.776959  0.000000     0.039752   -0.118511   -0.000000  
      0.000000  5.330876  0.000000     0.039752   -0.118511   -0.000000  
      3.553918  5.330876  0.000000     0.039752   -0.118511   -0.000000  
      0.000000  1.776959  3.589999     0.039752   -0.118511   -0.000000  
      3.553918  1.776959  3.589999     0.039752   -0.118511   -0.000000  
      0.000000  5.330876  3.589999     0.039752   -0.118511   -0.000000  
      3.553918  5.330876  3.589999     0.039752   -0.118511    0.000000  
      2.665438  2.665438  2.692500     0.039752   -0.118511   -0.000000  
      6.219356  2.665438  2.692500     0.039752   -0.118511   -0.000000  
      2.665438  6.219356  2.692500     0.039752   -0.118511   -0.000000  
      6.219356  6.219356  2.692500     0.039752   -0.118511   -0.000000  
      2.665438  2.665438  6.282499     0.039752   -0.118511   -0.000000  
      6.219356  2.665438  6.282499     0.039752   -0.118511   -0.000000  
      2.665438  6.219356  6.282499     0.039752   -0.118511   -0.000000  
      6.219356  6.219356  6.282499     0.039752   -0.118511   -0.000000  
      1.776959  0.000000  0.000000     0.039752   -0.118511   -0.000000  
      5.330876  0.000000  0.000000     0.039752   -0.118511   -0.000000  
      1.776959  3.553918  0.000000     0.039752   -0.118511   -0.000000  
      5.330876  3.553918  0.000000     0.039752   -0.118511   -0.000000  
      1.776959  0.000000  3.589999     0.039752   -0.118511   -0.000000  
      5.330876  0.000000  3.589999     0.039752   -0.118511   -0.000000  
      1.776959  3.553918  3.589999     0.039752   -0.118511   -0.000000  
      5.330876  3.553918  3.589999     0.039752   -0.118511   -0.000000  
      2.665438  0.888479  0.897500     0.039752   -0.118511   -0.000000  
      6.219356  0.888479  0.897500     0.039752   -0.118511   -0.000000  
      2.665438  4.442397  0.897500     0.039752   -0.118511   -0.000000  
      6.219356  4.442397  0.897500     0.039752   -0.118511   -0.000000  
      2.665438  0.888479  4.487499     0.039752   -0.118511   -0.000000  
      6.219356  0.888479  4.487499     0.039752   -0.118511    0.000000  
      2.665438  4.442397  4.487499     0.039752   -0.118511   -0.000000  
      6.219356  4.442397  4.487499     0.039752   -0.118511    0.000000  
      1.776959  1.776959  1.795000     0.039752   -0.118511   -0.000000  
      5.330876  1.776959  1.795000     0.039752   -0.118511   -0.000000  
      1.776959  5.330876  1.795000     0.039752   -0.118511   -0.000000  
      5.330876  5.330876  1.795000     0.039752   -0.118511   -0.000000  
      1.776959  1.776959  5.384999     0.039752   -0.118511   -0.000000  
      5.330876  1.776959  5.384999     0.039752   -0.118511   -0.000000  
      1.776959  5.330876  5.384999     0.039752   -0.118511   -0.000000  
      5.330876  5.330876  5.384999     0.039752   -0.118511   -0.000000  
 
 191 f/i=    0.000003 THz     0.000021 2PiTHz    0.000112 cm-1     0.000014 meV
             X         Y         Z           dx          dy          dz
      0.888479  2.665438  0.897500    -0.118511   -0.039752    0.000000  
      4.442397  2.665438  0.897500    -0.118511   -0.039752   -0.000000  
      0.888479  6.219356  0.897500    -0.118511   -0.039752   -0.000000  
      4.442397  6.219356  0.897500    -0.118511   -0.039752    0.000000  
      0.888479  2.665438  4.487499    -0.118511   -0.039752   -0.000000  
      4.442397  2.665438  4.487499    -0.118511   -0.039752    0.000000  
      0.888479  6.219356  4.487499    -0.118511   -0.039752   -0.000000  
      4.442397  6.219356  4.487499    -0.118511   -0.039752    0.000000  
      0.000000  0.000000  1.795000    -0.118511   -0.039752   -0.000000  
      3.553918  0.000000  1.795000    -0.118511   -0.039752    0.000000  
      0.000000  3.553918  1.795000    -0.118511   -0.039752   -0.000000  
      3.553918  3.553918  1.795000    -0.118511   -0.039752    0.000000  
      0.000000  0.000000  5.384999    -0.118511   -0.039752   -0.000000  
      3.553918  0.000000  5.384999    -0.118511   -0.039752    0.000000  
      0.000000  3.553918  5.384999    -0.118511   -0.039752   -0.000000  
      3.553918  3.553918  5.384999    -0.118511   -0.039752    0.000000  
      0.888479  0.888479  2.692500    -0.118511   -0.039752   -0.000000  
      4.442397  0.888479  2.692500    -0.118511   -0.039752    0.000000  
      0.888479  4.442397  2.692500    -0.118511   -0.039752   -0.000000  
      4.442397  4.442397  2.692500    -0.118511   -0.039752    0.000000  
      0.888479  0.888479  6.282499    -0.118511   -0.039752   -0.000000  
      4.442397  0.888479  6.282499    -0.118511   -0.039752    0.000000  
      0.888479  4.442397  6.282499    -0.118511   -0.039752   -0.000000  
      4.442397  4.442397  6.282499    -0.118511   -0.039752    0.000000  
      0.000000  1.776959  0.000000    -0.118511   -0.039752   -0.000000  
      3.553918  1.776959  0.000000    -0.118511   -0.039752    0.000000  
      0.000000  5.330876  0.000000    -0.118511   -0.039752   -0.000000  
      3.553918  5.330876  0.000000    -0.118511   -0.039752   -0.000000  
      0.000000  1.776959  3.589999    -0.118511   -0.039752   -0.000000  
      3.553918  1.776959  3.589999    -0.118511   -0.039752    0.000000  
      0.000000  5.330876  3.589999    -0.118511   -0.039752   -0.000000  
      3.553918  5.330876  3.589999    -0.118511   -0.039752    0.000000  
      2.665438  2.665438  2.692500    -0.118511   -0.039752    0.000000  
      6.219356  2.665438  2.692500    -0.118511   -0.039752   -0.000000  
      2.665438  6.219356  2.692500    -0.118511   -0.039752    0.000000  
      6.219356  6.219356  2.692500    -0.118511   -0.039752   -0.000000  
      2.665438  2.665438  6.282499    -0.118511   -0.039752    0.000000  
      6.219356  2.665438  6.282499    -0.118511   -0.039752   -0.000000  
      2.665438  6.219356  6.282499    -0.118511   -0.039752    0.000000  
      6.219356  6.219356  6.282499    -0.118511   -0.039752   -0.000000  
      1.776959  0.000000  0.000000    -0.118511   -0.039752    0.000000  
      5.330876  0.000000  0.000000    -0.118511   -0.039752   -0.000000  
      1.776959  3.553918  0.000000    -0.118511   -0.039752   -0.000000  
      5.330876  3.553918  0.000000    -0.118511   -0.039752   -0.000000  
      1.776959  0.000000  3.589999    -0.118511   -0.039752   -0.000000  
      5.330876  0.000000  3.589999    -0.118511   -0.039752    0.000000  
      1.776959  3.553918  3.589999    -0.118511   -0.039752    0.000000  
      5.330876  3.553918  3.589999    -0.118511   -0.039752    0.000000  
      2.665438  0.888479  0.897500    -0.118511   -0.039752    0.000000  
      6.219356  0.888479  0.897500    -0.118511   -0.039752   -0.000000  
      2.665438  4.442397  0.897500    -0.118511   -0.039752    0.000000  
      6.219356  4.442397  0.897500    -0.118511   -0.039752   -0.000000  
      2.665438  0.888479  4.487499    -0.118511   -0.039752    0.000000  
      6.219356  0.888479  4.487499    -0.118511   -0.039752    0.000000  
      2.665438  4.442397  4.487499    -0.118511   -0.039752    0.000000  
      6.219356  4.442397  4.487499    -0.118511   -0.039752    0.000000  
      1.776959  1.776959  1.795000    -0.118511   -0.039752    0.000000  
      5.330876  1.776959  1.795000    -0.118511   -0.039752    0.000000  
      1.776959  5.330876  1.795000    -0.118511   -0.039752    0.000000  
      5.330876  5.330876  1.795000    -0.118511   -0.039752   -0.000000  
      1.776959  1.776959  5.384999    -0.118511   -0.039752   -0.000000  
      5.330876  1.776959  5.384999    -0.118511   -0.039752   -0.000000  
      1.776959  5.330876  5.384999    -0.118511   -0.039752    0.000000  
      5.330876  5.330876  5.384999    -0.118511   -0.039752   -0.000000  
 
 192 f/i=    0.000004 THz     0.000023 2PiTHz    0.000121 cm-1     0.000015 meV
             X         Y         Z           dx          dy          dz
      0.888479  2.665438  0.897500    -0.000000    0.000000   -0.125000  
      4.442397  2.665438  0.897500     0.000000    0.000000   -0.125000  
      0.888479  6.219356  0.897500    -0.000000    0.000000   -0.125000  
      4.442397  6.219356  0.897500     0.000000   -0.000000   -0.125000  
      0.888479  2.665438  4.487499    -0.000000    0.000000   -0.125000  
      4.442397  2.665438  4.487499     0.000000    0.000000   -0.125000  
      0.888479  6.219356  4.487499     0.000000    0.000000   -0.125000  
      4.442397  6.219356  4.487499    -0.000000    0.000000   -0.125000  
      0.000000  0.000000  1.795000    -0.000000    0.000000   -0.125000  
      3.553918  0.000000  1.795000     0.000000    0.000000   -0.125000  
      0.000000  3.553918  1.795000    -0.000000    0.000000   -0.125000  
      3.553918  3.553918  1.795000    -0.000000    0.000000   -0.125000  
      0.000000  0.000000  5.384999     0.000000    0.000000   -0.125000  
      3.553918  0.000000  5.384999    -0.000000    0.000000   -0.125000  
      0.000000  3.553918  5.384999    -0.000000    0.000000   -0.125000  
      3.553918  3.553918  5.384999    -0.000000    0.000000   -0.125000  
      0.888479  0.888479  2.692500     0.000000    0.000000   -0.125000  
      4.442397  0.888479  2.692500    -0.000000    0.000000   -0.125000  
      0.888479  4.442397  2.692500    -0.000000    0.000000   -0.125000  
      4.442397  4.442397  2.692500    -0.000000    0.000000   -0.125000  
      0.888479  0.888479  6.282499    -0.000000    0.000000   -0.125000  
      4.442397  0.888479  6.282499    -0.000000    0.000000   -0.125000  
      0.888479  4.442397  6.282499    -0.000000   -0.000000   -0.125000  
      4.442397  4.442397  6.282499    -0.000000    0.000000   -0.125000  
      0.000000  1.776959  0.000000    -0.000000    0.000000   -0.125000  
      3.553918  1.776959  0.000000    -0.000000    0.000000   -0.125000  
      0.000000  5.330876  0.000000    -0.000000    0.000000   -0.125000  
      3.553918  5.330876  0.000000     0.000000    0.000000   -0.125000  
      0.000000  1.776959  3.589999     0.000000    0.000000   -0.125000  
      3.553918  1.776959  3.589999     0.000000    0.000000   -0.125000  
      0.000000  5.330876  3.589999     0.000000    0.000000   -0.125000  
      3.553918  5.330876  3.589999    -0.000000    0.000000   -0.125000  
      2.665438  2.665438  2.692500    -0.000000    0.000000   -0.125000  
      6.219356  2.665438  2.692500     0.000000    0.000000   -0.125000  
      2.665438  6.219356  2.692500     0.000000    0.000000   -0.125000  
      6.219356  6.219356  2.692500     0.000000    0.000000   -0.125000  
      2.665438  2.665438  6.282499     0.000000    0.000000   -0.125000  
      6.219356  2.665438  6.282499     0.000000    0.000000   -0.125000  
      2.665438  6.219356  6.282499     0.000000    0.000000   -0.125000  
      6.219356  6.219356  6.282499     0.000000    0.000000   -0.125000  
      1.776959  0.000000  0.000000     0.000000    0.000000   -0.125000  
      5.330876  0.000000  0.000000     0.000000    0.000000   -0.125000  
      1.776959  3.553918  0.000000    -0.000000    0.000000   -0.125000  
      5.330876  3.553918  0.000000    -0.000000    0.000000   -0.125000  
      1.776959  0.000000  3.589999     0.000000    0.000000   -0.125000  
      5.330876  0.000000  3.589999    -0.000000    0.000000   -0.125000  
      1.776959  3.553918  3.589999    -0.000000    0.000000   -0.125000  
      5.330876  3.553918  3.589999    -0.000000    0.000000   -0.125000  
      2.665438  0.888479  0.897500     0.000000    0.000000   -0.125000  
      6.219356  0.888479  0.897500    -0.000000    0.000000   -0.125000  
      2.665438  4.442397  0.897500    -0.000000    0.000000   -0.125000  
      6.219356  4.442397  0.897500    -0.000000    0.000000   -0.125000  
      2.665438  0.888479  4.487499     0.000000    0.000000   -0.125000  
      6.219356  0.888479  4.487499    -0.000000    0.000000   -0.125000  
      2.665438  4.442397  4.487499    -0.000000    0.000000   -0.125000  
      6.219356  4.442397  4.487499    -0.000000    0.000000   -0.125000  
      1.776959  1.776959  1.795000     0.000000    0.000000   -0.125000  
      5.330876  1.776959  1.795000    -0.000000    0.000000   -0.125000  
      1.776959  5.330876  1.795000    -0.000000    0.000000   -0.125000  
      5.330876  5.330876  1.795000     0.000000    0.000000   -0.125000  
      1.776959  1.776959  5.384999    -0.000000    0.000000   -0.125000  
      5.330876  1.776959  5.384999     0.000000    0.000000   -0.125000  
      1.776959  5.330876  5.384999     0.000000    0.000000   -0.125000  
      5.330876  5.330876  5.384999    -0.000000    0.000000   -0.125000  
 


--------------------------------------------------------------------------------------------------------



 ELASTIC MODULI CONTR FROM IONIC RELAXATION (kBar)
 Direction    XX          YY          ZZ          XY          YZ          ZX
 --------------------------------------------------------------------------------
 XX          -0.0000      0.0000      0.0000      0.0000      0.0000      0.0000
 YY           0.0000     -0.0000     -0.0000      0.0000     -0.0000     -0.0000
 ZZ           0.0000     -0.0000     -0.0000      0.0000      0.0000     -0.0000
 XY           0.0000      0.0000      0.0000    -46.0273      0.0000      0.0000
 YZ           0.0000     -0.0000      0.0000      0.0000    -50.3942     -0.0000
 ZX           0.0000     -0.0000     -0.0000      0.0000     -0.0000    -50.3945
 --------------------------------------------------------------------------------



--------------------------------------------------------------------------------------------------------


     LOOP+:  cpu time 1954.4874: real time 1955.0629
    4ORBIT:  cpu time    0.0000: real time    0.0000

 total amount of memory used by VASP MPI-rank0    91919. kBytes
=======================================================================

   base      :      30000. kBytes
   nonl-proj :      23855. kBytes
   fftplans  :       4537. kBytes
   grid      :       5806. kBytes
   one-center:        196. kBytes
   wavefun   :      27525. kBytes
 
  
  
 General timing and accounting informations for this job:
 ========================================================
  
                  Total CPU time used (sec):     1969.349
                            User time (sec):     1959.846
                          System time (sec):        9.504
                         Elapsed time (sec):     1970.143
  
                   Maximum memory used (kb):      477480.
                   Average memory used (kb):           0.
  
                          Minor page faults:        39352
                          Major page faults:           35
                 Voluntary context switches:          873
