# Thermal properties / unit cell (natom)

unit:
  temperature:   K
  free_energy:   kJ/mol
  entropy:       J/K/mol
  heat_capacity: J/K/mol

natom: 8    
cutoff_frequency:    0.000
num_modes: 2654208
num_integrated_modes: 2654208

zero_point_energy:     139.0724667
high_T_entropy:        432.5519065

thermal_properties:
- temperature:         0.0000000
  free_energy:       139.0724667
  entropy:             0.0000000
  heat_capacity:       0.0000000
  energy:            139.0724667

- temperature:         2.0000000
  free_energy:       139.0724667
  entropy:             0.0000000
  heat_capacity:       0.0000000
  energy:            139.0724667

- temperature:         4.0000000
  free_energy:       139.0724667
  entropy:             0.0000081
  heat_capacity:       0.0000511
  energy:            139.0724667

- temperature:         6.0000000
  free_energy:       139.0724666
  entropy:             0.0000673
  heat_capacity:       0.0002924
  energy:            139.0724670

- temperature:         8.0000000
  free_energy:       139.0724663
  entropy:             0.0002091
  heat_capacity:       0.0007554
  energy:            139.0724680

- temperature:        10.0000000
  free_energy:       139.0724657
  entropy:             0.0004516
  heat_capacity:       0.0014986
  energy:            139.0724702

- temperature:        12.0000000
  free_energy:       139.0724645
  entropy:             0.0008161
  heat_capacity:       0.0025993
  energy:            139.0724742

- temperature:        14.0000000
  free_energy:       139.0724623
  entropy:             0.0013260
  heat_capacity:       0.0041345
  energy:            139.0724809

- temperature:        16.0000000
  free_energy:       139.0724590
  entropy:             0.0020055
  heat_capacity:       0.0061804
  energy:            139.0724911

- temperature:        18.0000000
  free_energy:       139.0724542
  entropy:             0.0028793
  heat_capacity:       0.0088131
  energy:            139.0725060

- temperature:        20.0000000
  free_energy:       139.0724474
  entropy:             0.0039723
  heat_capacity:       0.0121096
  energy:            139.0725268

- temperature:        22.0000000
  free_energy:       139.0724381
  entropy:             0.0053097
  heat_capacity:       0.0161479
  energy:            139.0725549

- temperature:        24.0000000
  free_energy:       139.0724260
  entropy:             0.0069168
  heat_capacity:       0.0210075
  energy:            139.0725920

- temperature:        26.0000000
  free_energy:       139.0724103
  entropy:             0.0088196
  heat_capacity:       0.0267694
  energy:            139.0726396

- temperature:        28.0000000
  free_energy:       139.0723905
  entropy:             0.0110440
  heat_capacity:       0.0335167
  energy:            139.0726997

- temperature:        30.0000000
  free_energy:       139.0723659
  entropy:             0.0136166
  heat_capacity:       0.0413343
  energy:            139.0727744

- temperature:        32.0000000
  free_energy:       139.0723357
  entropy:             0.0165643
  heat_capacity:       0.0503100
  energy:            139.0728658

- temperature:        34.0000000
  free_energy:       139.0722993
  entropy:             0.0199145
  heat_capacity:       0.0605338
  energy:            139.0729764

- temperature:        36.0000000
  free_energy:       139.0722558
  entropy:             0.0236953
  heat_capacity:       0.0720993
  energy:            139.0731088

- temperature:        38.0000000
  free_energy:       139.0722042
  entropy:             0.0279352
  heat_capacity:       0.0851035
  energy:            139.0732658

- temperature:        40.0000000
  free_energy:       139.0721437
  entropy:             0.0326635
  heat_capacity:       0.0996480
  energy:            139.0734503

- temperature:        42.0000000
  free_energy:       139.0720732
  entropy:             0.0379102
  heat_capacity:       0.1158388
  energy:            139.0736655

- temperature:        44.0000000
  free_energy:       139.0719917
  entropy:             0.0437062
  heat_capacity:       0.1337881
  energy:            139.0739148

- temperature:        46.0000000
  free_energy:       139.0718980
  entropy:             0.0500835
  heat_capacity:       0.1536141
  energy:            139.0742019

- temperature:        48.0000000
  free_energy:       139.0717910
  entropy:             0.0570752
  heat_capacity:       0.1754426
  energy:            139.0745306

- temperature:        50.0000000
  free_energy:       139.0716693
  entropy:             0.0647154
  heat_capacity:       0.1994072
  energy:            139.0749051

- temperature:        52.0000000
  free_energy:       139.0715317
  entropy:             0.0730399
  heat_capacity:       0.2256507
  energy:            139.0753297

- temperature:        54.0000000
  free_energy:       139.0713767
  entropy:             0.0820858
  heat_capacity:       0.2543251
  energy:            139.0758093

- temperature:        56.0000000
  free_energy:       139.0712028
  entropy:             0.0918920
  heat_capacity:       0.2855922
  energy:            139.0763488

- temperature:        58.0000000
  free_energy:       139.0710086
  entropy:             0.1024991
  heat_capacity:       0.3196240
  energy:            139.0769535

- temperature:        60.0000000
  free_energy:       139.0707923
  entropy:             0.1139495
  heat_capacity:       0.3566028
  energy:            139.0776292

- temperature:        62.0000000
  free_energy:       139.0705522
  entropy:             0.1262878
  heat_capacity:       0.3967205
  energy:            139.0783820

- temperature:        64.0000000
  free_energy:       139.0702865
  entropy:             0.1395602
  heat_capacity:       0.4401785
  energy:            139.0792183

- temperature:        66.0000000
  free_energy:       139.0699933
  entropy:             0.1538154
  heat_capacity:       0.4871871
  energy:            139.0801451

- temperature:        68.0000000
  free_energy:       139.0696705
  entropy:             0.1691039
  heat_capacity:       0.5379641
  energy:            139.0811696

- temperature:        70.0000000
  free_energy:       139.0693161
  entropy:             0.1854782
  heat_capacity:       0.5927341
  energy:            139.0822996

- temperature:        72.0000000
  free_energy:       139.0689279
  entropy:             0.2029929
  heat_capacity:       0.6517272
  energy:            139.0835433

- temperature:        74.0000000
  free_energy:       139.0685034
  entropy:             0.2217044
  heat_capacity:       0.7151776
  energy:            139.0849095

- temperature:        76.0000000
  free_energy:       139.0680402
  entropy:             0.2416708
  heat_capacity:       0.7833218
  energy:            139.0864072

- temperature:        78.0000000
  free_energy:       139.0675358
  entropy:             0.2629520
  heat_capacity:       0.8563977
  energy:            139.0880461

- temperature:        80.0000000
  free_energy:       139.0669875
  entropy:             0.2856093
  heat_capacity:       0.9346428
  energy:            139.0898362

- temperature:        82.0000000
  free_energy:       139.0663924
  entropy:             0.3097052
  heat_capacity:       1.0182926
  energy:            139.0917882

- temperature:        84.0000000
  free_energy:       139.0657477
  entropy:             0.3353035
  heat_capacity:       1.1075796
  energy:            139.0939132

- temperature:        86.0000000
  free_energy:       139.0650501
  entropy:             0.3624688
  heat_capacity:       1.2027317
  energy:            139.0962225

- temperature:        88.0000000
  free_energy:       139.0642967
  entropy:             0.3912664
  heat_capacity:       1.3039708
  energy:            139.0987281

- temperature:        90.0000000
  free_energy:       139.0634840
  entropy:             0.4217622
  heat_capacity:       1.4115122
  energy:            139.1014426

- temperature:        92.0000000
  free_energy:       139.0626085
  entropy:             0.4540224
  heat_capacity:       1.5255632
  energy:            139.1043785

- temperature:        94.0000000
  free_energy:       139.0616666
  entropy:             0.4881131
  heat_capacity:       1.6463222
  energy:            139.1075493

- temperature:        96.0000000
  free_energy:       139.0606547
  entropy:             0.5241007
  heat_capacity:       1.7739784
  energy:            139.1109684

- temperature:        98.0000000
  free_energy:       139.0595689
  entropy:             0.5620508
  heat_capacity:       1.9087109
  energy:            139.1146499

- temperature:       100.0000000
  free_energy:       139.0584052
  entropy:             0.6020289
  heat_capacity:       2.0506882
  energy:            139.1186081

- temperature:       102.0000000
  free_energy:       139.0571594
  entropy:             0.6440998
  heat_capacity:       2.2000681
  energy:            139.1228576

- temperature:       104.0000000
  free_energy:       139.0558274
  entropy:             0.6883273
  heat_capacity:       2.3569971
  energy:            139.1274134

- temperature:       106.0000000
  free_energy:       139.0544046
  entropy:             0.7347743
  heat_capacity:       2.5216109
  energy:            139.1322907

- temperature:       108.0000000
  free_energy:       139.0528867
  entropy:             0.7835028
  heat_capacity:       2.6940335
  energy:            139.1375050

- temperature:       110.0000000
  free_energy:       139.0512691
  entropy:             0.8345733
  heat_capacity:       2.8743782
  energy:            139.1430721

- temperature:       112.0000000
  free_energy:       139.0495468
  entropy:             0.8880452
  heat_capacity:       3.0627470
  energy:            139.1490079

- temperature:       114.0000000
  free_energy:       139.0477152
  entropy:             0.9439762
  heat_capacity:       3.2592312
  energy:            139.1553285

- temperature:       116.0000000
  free_energy:       139.0457693
  entropy:             1.0024227
  heat_capacity:       3.4639115
  energy:            139.1620503

- temperature:       118.0000000
  free_energy:       139.0437038
  entropy:             1.0634394
  heat_capacity:       3.6768583
  energy:            139.1691897

- temperature:       120.0000000
  free_energy:       139.0415138
  entropy:             1.1270793
  heat_capacity:       3.8981321
  energy:            139.1767633

- temperature:       122.0000000
  free_energy:       139.0391937
  entropy:             1.1933939
  heat_capacity:       4.1277840
  energy:            139.1847878

- temperature:       124.0000000
  free_energy:       139.0367384
  entropy:             1.2624328
  heat_capacity:       4.3658555
  energy:            139.1932800

- temperature:       126.0000000
  free_energy:       139.0341422
  entropy:             1.3342436
  heat_capacity:       4.6123795
  energy:            139.2022569

- temperature:       128.0000000
  free_energy:       139.0313995
  entropy:             1.4088725
  heat_capacity:       4.8673805
  energy:            139.2117352

- temperature:       130.0000000
  free_energy:       139.0285048
  entropy:             1.4863637
  heat_capacity:       5.1308747
  energy:            139.2217320

- temperature:       132.0000000
  free_energy:       139.0254521
  entropy:             1.5667594
  heat_capacity:       5.4028710
  energy:            139.2322644

- temperature:       134.0000000
  free_energy:       139.0222358
  entropy:             1.6501002
  heat_capacity:       5.6833706
  energy:            139.2433492

- temperature:       136.0000000
  free_energy:       139.0188497
  entropy:             1.7364249
  heat_capacity:       5.9723680
  energy:            139.2550035

- temperature:       138.0000000
  free_energy:       139.0152880
  entropy:             1.8257701
  heat_capacity:       6.2698510
  energy:            139.2672443

- temperature:       140.0000000
  free_energy:       139.0115446
  entropy:             1.9181711
  heat_capacity:       6.5758012
  energy:            139.2800886

- temperature:       142.0000000
  free_energy:       139.0076133
  entropy:             2.0136609
  heat_capacity:       6.8901942
  energy:            139.2935532

- temperature:       144.0000000
  free_energy:       139.0034879
  entropy:             2.1122712
  heat_capacity:       7.2129998
  energy:            139.3076549

- temperature:       146.0000000
  free_energy:       138.9991621
  entropy:             2.2140317
  heat_capacity:       7.5441828
  energy:            139.3224107

- temperature:       148.0000000
  free_energy:       138.9946296
  entropy:             2.3189702
  heat_capacity:       7.8837026
  energy:            139.3378372

- temperature:       150.0000000
  free_energy:       138.9898841
  entropy:             2.4271132
  heat_capacity:       8.2315137
  energy:            139.3539511

- temperature:       152.0000000
  free_energy:       138.9849190
  entropy:             2.5384852
  heat_capacity:       8.5875662
  energy:            139.3707688

- temperature:       154.0000000
  free_energy:       138.9797280
  entropy:             2.6531092
  heat_capacity:       8.9518056
  energy:            139.3883068

- temperature:       156.0000000
  free_energy:       138.9743044
  entropy:             2.7710065
  heat_capacity:       9.3241731
  energy:            139.4065814

- temperature:       158.0000000
  free_energy:       138.9686418
  entropy:             2.8921968
  heat_capacity:       9.7046061
  energy:            139.4256089

- temperature:       160.0000000
  free_energy:       138.9627334
  entropy:             3.0166985
  heat_capacity:      10.0930381
  energy:            139.4454052

- temperature:       162.0000000
  free_energy:       138.9565728
  entropy:             3.1445281
  heat_capacity:      10.4893986
  energy:            139.4659863

- temperature:       164.0000000
  free_energy:       138.9501531
  entropy:             3.2757008
  heat_capacity:      10.8936139
  energy:            139.4873680

- temperature:       166.0000000
  free_energy:       138.9434677
  entropy:             3.4102303
  heat_capacity:      11.3056067
  energy:            139.5095659

- temperature:       168.0000000
  free_energy:       138.9365099
  entropy:             3.5481289
  heat_capacity:      11.7252965
  energy:            139.5325956

- temperature:       170.0000000
  free_energy:       138.9292729
  entropy:             3.6894074
  heat_capacity:      12.1525995
  energy:            139.5564722

- temperature:       172.0000000
  free_energy:       138.9217500
  entropy:             3.8340754
  heat_capacity:      12.5874290
  energy:            139.5812110

- temperature:       174.0000000
  free_energy:       138.9139344
  entropy:             3.9821408
  heat_capacity:      13.0296954
  energy:            139.6068269

- temperature:       176.0000000
  free_energy:       138.9058192
  entropy:             4.1336106
  heat_capacity:      13.4793062
  energy:            139.6333347

- temperature:       178.0000000
  free_energy:       138.8973977
  entropy:             4.2884903
  heat_capacity:      13.9361662
  energy:            139.6607489

- temperature:       180.0000000
  free_energy:       138.8886630
  entropy:             4.4467841
  heat_capacity:      14.4001776
  energy:            139.6890841

- temperature:       182.0000000
  free_energy:       138.8796082
  entropy:             4.6084951
  heat_capacity:      14.8712403
  energy:            139.7183543

- temperature:       184.0000000
  free_energy:       138.8702267
  entropy:             4.7736250
  heat_capacity:      15.3492514
  energy:            139.7485737

- temperature:       186.0000000
  free_energy:       138.8605115
  entropy:             4.9421745
  heat_capacity:      15.8341061
  energy:            139.7797559

- temperature:       188.0000000
  free_energy:       138.8504557
  entropy:             5.1141430
  heat_capacity:      16.3256971
  energy:            139.8119146

- temperature:       190.0000000
  free_energy:       138.8400526
  entropy:             5.2895290
  heat_capacity:      16.8239152
  energy:            139.8450631

- temperature:       192.0000000
  free_energy:       138.8292953
  entropy:             5.4683296
  heat_capacity:      17.3286490
  energy:            139.8792146

- temperature:       194.0000000
  free_energy:       138.8181770
  entropy:             5.6505411
  heat_capacity:      17.8397854
  energy:            139.9143820

- temperature:       196.0000000
  free_energy:       138.8066909
  entropy:             5.8361584
  heat_capacity:      18.3572093
  energy:            139.9505779

- temperature:       198.0000000
  free_energy:       138.7948301
  entropy:             6.0251758
  heat_capacity:      18.8808040
  energy:            139.9878149

- temperature:       200.0000000
  free_energy:       138.7825879
  entropy:             6.2175863
  heat_capacity:      19.4104511
  energy:            140.0261052

- temperature:       202.0000000
  free_energy:       138.7699575
  entropy:             6.4133821
  heat_capacity:      19.9460307
  energy:            140.0654607

- temperature:       204.0000000
  free_energy:       138.7569321
  entropy:             6.6125541
  heat_capacity:      20.4874216
  energy:            140.1058932

- temperature:       206.0000000
  free_energy:       138.7435051
  entropy:             6.8150928
  heat_capacity:      21.0345011
  energy:            140.1474142

- temperature:       208.0000000
  free_energy:       138.7296695
  entropy:             7.0209873
  heat_capacity:      21.5871453
  energy:            140.1900349

- temperature:       210.0000000
  free_energy:       138.7154189
  entropy:             7.2302262
  heat_capacity:      22.1452293
  energy:            140.2337664

- temperature:       212.0000000
  free_energy:       138.7007464
  entropy:             7.4427970
  heat_capacity:      22.7086272
  energy:            140.2786194

- temperature:       214.0000000
  free_energy:       138.6856455
  entropy:             7.6586863
  heat_capacity:      23.2772119
  energy:            140.3246044

- temperature:       216.0000000
  free_energy:       138.6701095
  entropy:             7.8778802
  heat_capacity:      23.8508557
  energy:            140.3717316

- temperature:       218.0000000
  free_energy:       138.6541318
  entropy:             8.1003637
  heat_capacity:      24.4294303
  energy:            140.4200111

- temperature:       220.0000000
  free_energy:       138.6377058
  entropy:             8.3261213
  heat_capacity:      25.0128065
  energy:            140.4694525

- temperature:       222.0000000
  free_energy:       138.6208251
  entropy:             8.5551365
  heat_capacity:      25.6008547
  energy:            140.5200654

- temperature:       224.0000000
  free_energy:       138.6034831
  entropy:             8.7873921
  heat_capacity:      26.1934449
  energy:            140.5718590

- temperature:       226.0000000
  free_energy:       138.5856734
  entropy:             9.0228705
  heat_capacity:      26.7904468
  energy:            140.6248421

- temperature:       228.0000000
  free_energy:       138.5673895
  entropy:             9.2615531
  heat_capacity:      27.3917297
  energy:            140.6790236

- temperature:       230.0000000
  free_energy:       138.5486251
  entropy:             9.5034207
  heat_capacity:      27.9971629
  energy:            140.7344118

- temperature:       232.0000000
  free_energy:       138.5293737
  entropy:             9.7484535
  heat_capacity:      28.6066156
  energy:            140.7910149

- temperature:       234.0000000
  free_energy:       138.5096291
  entropy:             9.9966313
  heat_capacity:      29.2199572
  energy:            140.8488409

- temperature:       236.0000000
  free_energy:       138.4893851
  entropy:            10.2479329
  heat_capacity:      29.8370570
  energy:            140.9078973

- temperature:       238.0000000
  free_energy:       138.4686353
  entropy:            10.5023368
  heat_capacity:      30.4577846
  energy:            140.9681915

- temperature:       240.0000000
  free_energy:       138.4473737
  entropy:            10.7598210
  heat_capacity:      31.0820100
  energy:            141.0297307

- temperature:       242.0000000
  free_energy:       138.4255940
  entropy:            11.0203627
  heat_capacity:      31.7096035
  energy:            141.0925218

- temperature:       244.0000000
  free_energy:       138.4032902
  entropy:            11.2839389
  heat_capacity:      32.3404360
  energy:            141.1565713

- temperature:       246.0000000
  free_energy:       138.3804563
  entropy:            11.5505258
  heat_capacity:      32.9743787
  energy:            141.2218856

- temperature:       248.0000000
  free_energy:       138.3570861
  entropy:            11.8200995
  heat_capacity:      33.6113037
  energy:            141.2884708

- temperature:       250.0000000
  free_energy:       138.3331739
  entropy:            12.0926354
  heat_capacity:      34.2510837
  energy:            141.3563327

- temperature:       252.0000000
  free_energy:       138.3087136
  entropy:            12.3681085
  heat_capacity:      34.8935921
  energy:            141.4254770

- temperature:       254.0000000
  free_energy:       138.2836995
  entropy:            12.6464934
  heat_capacity:      35.5387033
  energy:            141.4959088

- temperature:       256.0000000
  free_energy:       138.2581257
  entropy:            12.9277644
  heat_capacity:      36.1862925
  energy:            141.5676334

- temperature:       258.0000000
  free_energy:       138.2319865
  entropy:            13.2118954
  heat_capacity:      36.8362359
  energy:            141.6406556

- temperature:       260.0000000
  free_energy:       138.2052763
  entropy:            13.4988600
  heat_capacity:      37.4884107
  energy:            141.7149799

- temperature:       262.0000000
  free_energy:       138.1779892
  entropy:            13.7886312
  heat_capacity:      38.1426954
  energy:            141.7906106

- temperature:       264.0000000
  free_energy:       138.1501199
  entropy:            14.0811821
  heat_capacity:      38.7989694
  energy:            141.8675520

- temperature:       266.0000000
  free_energy:       138.1216627
  entropy:            14.3764852
  heat_capacity:      39.4571134
  energy:            141.9458077

- temperature:       268.0000000
  free_energy:       138.0926121
  entropy:            14.6745129
  heat_capacity:      40.1170094
  energy:            142.0253816

- temperature:       270.0000000
  free_energy:       138.0629628
  entropy:            14.9752372
  heat_capacity:      40.7785407
  energy:            142.1062769

- temperature:       272.0000000
  free_energy:       138.0327094
  entropy:            15.2786300
  heat_capacity:      41.4415919
  energy:            142.1884968

- temperature:       274.0000000
  free_energy:       138.0018465
  entropy:            15.5846629
  heat_capacity:      42.1060490
  energy:            142.2720442

- temperature:       276.0000000
  free_energy:       137.9703690
  entropy:            15.8933073
  heat_capacity:      42.7717995
  energy:            142.3569218

- temperature:       278.0000000
  free_energy:       137.9382716
  entropy:            16.2045344
  heat_capacity:      43.4387323
  energy:            142.4431322

- temperature:       280.0000000
  free_energy:       137.9055492
  entropy:            16.5183154
  heat_capacity:      44.1067378
  energy:            142.5306775

- temperature:       282.0000000
  free_energy:       137.8721966
  entropy:            16.8346210
  heat_capacity:      44.7757081
  energy:            142.6195598

- temperature:       284.0000000
  free_energy:       137.8382090
  entropy:            17.1534220
  heat_capacity:      45.4455366
  energy:            142.7097809

- temperature:       286.0000000
  free_energy:       137.8035813
  entropy:            17.4746891
  heat_capacity:      46.1161184
  energy:            142.8013424

- temperature:       288.0000000
  free_energy:       137.7683086
  entropy:            17.7983928
  heat_capacity:      46.7873504
  energy:            142.8942458

- temperature:       290.0000000
  free_energy:       137.7323861
  entropy:            18.1245036
  heat_capacity:      47.4591309
  energy:            142.9884922

- temperature:       292.0000000
  free_energy:       137.6958090
  entropy:            18.4529916
  heat_capacity:      48.1313600
  energy:            143.0840826

- temperature:       294.0000000
  free_energy:       137.6585726
  entropy:            18.7838273
  heat_capacity:      48.8039393
  energy:            143.1810178

- temperature:       296.0000000
  free_energy:       137.6206722
  entropy:            19.1169809
  heat_capacity:      49.4767723
  energy:            143.2792985

- temperature:       298.0000000
  free_energy:       137.5821032
  entropy:            19.4524224
  heat_capacity:      50.1497642
  energy:            143.3789250

- temperature:       300.0000000
  free_energy:       137.5428610
  entropy:            19.7901221
  heat_capacity:      50.8228217
  energy:            143.4798976

- temperature:       302.0000000
  free_energy:       137.5029412
  entropy:            20.1300501
  heat_capacity:      51.4958536
  energy:            143.5822163

- temperature:       304.0000000
  free_energy:       137.4623393
  entropy:            20.4721764
  heat_capacity:      52.1687699
  energy:            143.6858810

- temperature:       306.0000000
  free_energy:       137.4210510
  entropy:            20.8164713
  heat_capacity:      52.8414830
  energy:            143.7908913

- temperature:       308.0000000
  free_energy:       137.3790720
  entropy:            21.1629048
  heat_capacity:      53.5139064
  energy:            143.8972467

- temperature:       310.0000000
  free_energy:       137.3363980
  entropy:            21.5114472
  heat_capacity:      54.1859559
  energy:            144.0049466

- temperature:       312.0000000
  free_energy:       137.2930248
  entropy:            21.8620685
  heat_capacity:      54.8575486
  energy:            144.1139902

- temperature:       314.0000000
  free_energy:       137.2489484
  entropy:            22.2147392
  heat_capacity:      55.5286037
  energy:            144.2243765

- temperature:       316.0000000
  free_energy:       137.2041645
  entropy:            22.5694294
  heat_capacity:      56.1990419
  energy:            144.3361042

- temperature:       318.0000000
  free_energy:       137.1586693
  entropy:            22.9261096
  heat_capacity:      56.8687857
  energy:            144.4491722

- temperature:       320.0000000
  free_energy:       137.1124588
  entropy:            23.2847502
  heat_capacity:      57.5377595
  energy:            144.5635789

- temperature:       322.0000000
  free_energy:       137.0655290
  entropy:            23.6453218
  heat_capacity:      58.2058893
  energy:            144.6793227

- temperature:       324.0000000
  free_energy:       137.0178762
  entropy:            24.0077950
  heat_capacity:      58.8731027
  energy:            144.7964018

- temperature:       326.0000000
  free_energy:       136.9694966
  entropy:            24.3721405
  heat_capacity:      59.5393292
  energy:            144.9148144

- temperature:       328.0000000
  free_energy:       136.9203864
  entropy:            24.7383292
  heat_capacity:      60.2045000
  energy:            145.0345584

- temperature:       330.0000000
  free_energy:       136.8705421
  entropy:            25.1063320
  heat_capacity:      60.8685478
  energy:            145.1556317

- temperature:       332.0000000
  free_energy:       136.8199599
  entropy:            25.4761201
  heat_capacity:      61.5314073
  energy:            145.2780318

- temperature:       334.0000000
  free_energy:       136.7686364
  entropy:            25.8476647
  heat_capacity:      62.1930145
  energy:            145.4017564

- temperature:       336.0000000
  free_energy:       136.7165681
  entropy:            26.2209371
  heat_capacity:      62.8533074
  energy:            145.5268030

- temperature:       338.0000000
  free_energy:       136.6637516
  entropy:            26.5959089
  heat_capacity:      63.5122253
  energy:            145.6531688

- temperature:       340.0000000
  free_energy:       136.6101834
  entropy:            26.9725517
  heat_capacity:      64.1697095
  energy:            145.7808509

- temperature:       342.0000000
  free_energy:       136.5558602
  entropy:            27.3508373
  heat_capacity:      64.8257025
  energy:            145.9098466

- temperature:       344.0000000
  free_energy:       136.5007789
  entropy:            27.7307377
  heat_capacity:      65.4801487
  energy:            146.0401527

- temperature:       346.0000000
  free_energy:       136.4449362
  entropy:            28.1122251
  heat_capacity:      66.1329939
  energy:            146.1717661

- temperature:       348.0000000
  free_energy:       136.3883290
  entropy:            28.4952718
  heat_capacity:      66.7841856
  energy:            146.3046836

- temperature:       350.0000000
  free_energy:       136.3309541
  entropy:            28.8798503
  heat_capacity:      67.4336728
  energy:            146.4389017

- temperature:       352.0000000
  free_energy:       136.2728086
  entropy:            29.2659333
  heat_capacity:      68.0814058
  energy:            146.5744171

- temperature:       354.0000000
  free_energy:       136.2138894
  entropy:            29.6534936
  heat_capacity:      68.7273366
  energy:            146.7112262

- temperature:       356.0000000
  free_energy:       136.1541937
  entropy:            30.0425044