<?xml version="1.0" encoding="ISO-8859-1"?>
<modeling>
 <generator>
  <i name="program" type="string">vasp </i>
  <i name="version" type="string">5.4.4.18Apr17-6-g9f103f2a35  </i>
  <i name="subversion" type="string">(build Mar 12 2022 03:36:41) complex            parallel </i>
  <i name="platform" type="string">IFC19.0.3.199_CrayMPICH7.7.19 </i>
  <i name="date" type="string">2022 12 02 </i>
  <i name="time" type="string">03:19:43 </i>
 </generator>
 <incar>
  <i type="string" name="PREC">accurate</i>
  <i type="int" name="IALGO">    38</i>
  <i type="logical" name="ADDGRID"> T  </i>
  <i type="int" name="IBRION">     8</i>
  <i name="EDIFF">      0.00000001</i>
  <i type="logical" name="LREAL"> F  </i>
  <i type="int" name="ISMEAR">     0</i>
  <i name="SIGMA">      0.06000000</i>
  <i type="logical" name="LWAVE"> F  </i>
  <i type="logical" name="LCHARG"> F  </i>
  <v type="int" name="KPOINT_BSE">    -1     0     0     0</v>
 </incar>
 <structure name="primitive_cell" >
  <crystal>
   <varray name="basis" >
    <v>       0.00000000      -1.77695882       1.79499968 </v>
    <v>       0.00000000       1.77695882       1.79499968 </v>
    <v>      -1.77695882       0.00000000      -1.79499968 </v>
   </varray>
   <i name="volume">     11.33571969 </i>
   <varray name="rec_basis" >
    <v>      -0.28137962      -0.28137962       0.27855158 </v>
    <v>      -0.28137962       0.28137962       0.27855158 </v>
    <v>      -0.56275924       0.00000000       0.00000000 </v>
   </varray>
  </crystal>
  <varray name="positions" >
   <v>       0.25000000      -0.25000000      -0.50000000 </v>
   <v>      -0.50000000      -0.50000000       0.00000000 </v>
  </varray>
 </structure>
 <varray name="primitive_index" >
  <v type="int" >        1 </v>
  <v type="int" >       11 </v>
 </varray>
 <kpoints>
  <generation param="Gamma">
   <v type="int" name="divisions">       6        6        6 </v>
   <v name="usershift">      0.00000000       0.00000000       0.00000000 </v>
   <v name="genvec1">      0.16666667       0.00000000       0.00000000 </v>
   <v name="genvec2">      0.00000000       0.16666667       0.00000000 </v>
   <v name="genvec3">      0.00000000       0.00000000       0.16666667 </v>
   <v name="shift">      0.00000000       0.00000000       0.00000000 </v>
  </generation>
  <varray name="kpointlist" >
   <v>       0.00000000       0.00000000       0.00000000 </v>
   <v>       0.16666667       0.00000000       0.00000000 </v>
   <v>       0.33333333       0.00000000       0.00000000 </v>
   <v>       0.50000000       0.00000000       0.00000000 </v>
   <v>       0.16666667       0.16666667       0.00000000 </v>
   <v>       0.33333333       0.16666667       0.00000000 </v>
   <v>       0.50000000       0.16666667       0.00000000 </v>
   <v>       0.33333333       0.33333333       0.00000000 </v>
   <v>       0.50000000       0.33333333       0.00000000 </v>
   <v>       0.50000000       0.50000000       0.00000000 </v>
   <v>       0.00000000       0.00000000       0.16666667 </v>
   <v>       0.16666667       0.00000000       0.16666667 </v>
   <v>       0.33333333       0.00000000       0.16666667 </v>
   <v>       0.50000000       0.00000000       0.16666667 </v>
   <v>       0.16666667       0.16666667       0.16666667 </v>
   <v>       0.33333333       0.16666667       0.16666667 </v>
   <v>       0.50000000       0.16666667       0.16666667 </v>
   <v>       0.33333333       0.33333333       0.16666667 </v>
   <v>       0.50000000       0.33333333       0.16666667 </v>
   <v>       0.50000000       0.50000000       0.16666667 </v>
   <v>       0.00000000       0.00000000       0.33333333 </v>
   <v>       0.16666667       0.00000000       0.33333333 </v>
   <v>       0.33333333       0.00000000       0.33333333 </v>
   <v>       0.50000000       0.00000000       0.33333333 </v>
   <v>       0.16666667       0.16666667       0.33333333 </v>
   <v>       0.33333333       0.16666667       0.33333333 </v>
   <v>       0.50000000       0.16666667       0.33333333 </v>
   <v>       0.33333333       0.33333333       0.33333333 </v>
   <v>       0.50000000       0.33333333       0.33333333 </v>
   <v>       0.50000000       0.50000000       0.33333333 </v>
   <v>       0.00000000       0.00000000       0.50000000 </v>
   <v>       0.16666667       0.00000000       0.50000000 </v>
   <v>       0.33333333       0.00000000       0.50000000 </v>
   <v>       0.50000000       0.00000000       0.50000000 </v>
   <v>       0.16666667       0.16666667       0.50000000 </v>
   <v>       0.33333333       0.16666667       0.50000000 </v>
   <v>       0.50000000       0.16666667       0.50000000 </v>
   <v>       0.33333333       0.33333333       0.50000000 </v>
   <v>       0.50000000       0.33333333       0.50000000 </v>
   <v>       0.50000000       0.50000000       0.50000000 </v>
  </varray>
  <varray name="weights" >
   <v>       0.00462963 </v>
   <v>       0.01851852 </v>
   <v>       0.01851852 </v>
   <v>       0.00925926 </v>
   <v>       0.01851852 </v>
   <v>       0.03703704 </v>
   <v>       0.01851852 </v>
   <v>       0.01851852 </v>
   <v>       0.01851852 </v>
   <v>       0.00462963 </v>
   <v>       0.00925926 </v>
   <v>       0.03703704 </v>
   <v>       0.03703704 </v>
   <v>       0.01851852 </v>
   <v>       0.03703704 </v>
   <v>       0.07407407 </v>
   <v>       0.03703704 </v>
   <v>       0.03703704 </v>
   <v>       0.03703704 </v>
   <v>       0.00925926 </v>
   <v>       0.00925926 </v>
   <v>       0.03703704 </v>
   <v>       0.03703704 </v>
   <v>       0.01851852 </v>
   <v>       0.03703704 </v>
   <v>       0.07407407 </v>
   <v>       0.03703704 </v>
   <v>       0.03703704 </v>
   <v>       0.03703704 </v>
   <v>       0.00925926 </v>
   <v>       0.00462963 </v>
   <v>       0.01851852 </v>
   <v>       0.01851852 </v>
   <v>       0.00925926 </v>
   <v>       0.01851852 </v>
   <v>       0.03703704 </v>
   <v>       0.01851852 </v>
   <v>       0.01851852 </v>
   <v>       0.01851852 </v>
   <v>       0.00462963 </v>
  </varray>
 </kpoints>
 <parameters>
  <separator name="general" >
   <i type="string" name="SYSTEM">unknown system</i>
   <i type="logical" name="LCOMPAT"> F  </i>
  </separator>
  <separator name="electronic" >
   <i type="string" name="PREC">accura</i>
   <i name="ENMAX">    400.00000000</i>
   <i name="ENAUG">    644.87300000</i>
   <i name="EDIFF">      0.00000001</i>
   <i type="int" name="IALGO">    38</i>
   <i type="int" name="IWAVPR">    11</i>
   <i type="int" name="NBANDS">   192</i>
   <i name="NELECT">    256.00000000</i>
   <i type="int" name="TURBO">     0</i>
   <i type="int" name="IRESTART">     0</i>
   <i type="int" name="NREBOOT">     0</i>
   <i type="int" name="NMIN">     0</i>
   <i name="EREF">      0.00000000</i>
   <separator name="electronic smearing" >
    <i type="int" name="ISMEAR">     0</i>
    <i name="SIGMA">      0.06000000</i>
    <i name="KSPACING">      0.50000000</i>
    <i type="logical" name="KGAMMA"> T  </i>
   </separator>
   <separator name="electronic projectors" >
    <i type="logical" name="LREAL"> F  </i>
    <v name="ROPT">      0.00000000</v>
    <i type="int" name="LMAXPAW">  -100</i>
    <i type="int" name="LMAXMIX">     2</i>
    <i type="logical" name="NLSPLINE"> F  </i>
   </separator>
   <separator name="electronic startup" >
    <i type="int" name="ISTART">     0</i>
    <i type="int" name="ICHARG">     2</i>
    <i type="int" name="INIWAV">     1</i>
   </separator>
   <separator name="electronic spin" >
    <i type="int" name="ISPIN">     1</i>
    <i type="logical" name="LNONCOLLINEAR"> F  </i>
    <v name="MAGMOM">      1.00000000      1.00000000      1.00000000      1.00000000      1.00000000      1.00000000      1.00000000      1.00000000      1.00000000      1.00000000      1.00000000      1.00000000      1.00000000      1.00000000      1.00000000      1.00000000      1.00000000      1.00000000      1.00000000      1.00000000
      1.00000000      1.00000000      1.00000000      1.00000000      1.00000000      1.00000000      1.00000000      1.00000000      1.00000000      1.00000000      1.00000000      1.00000000      1.00000000      1.00000000      1.00000000      1.00000000      1.00000000      1.00000000      1.00000000      1.00000000
      1.00000000      1.00000000      1.00000000      1.00000000      1.00000000      1.00000000      1.00000000      1.00000000      1.00000000      1.00000000      1.00000000      1.00000000      1.00000000      1.00000000      1.00000000      1.00000000      1.00000000      1.00000000      1.00000000      1.00000000
      1.00000000      1.00000000      1.00000000      1.00000000</v>
    <i name="NUPDOWN">     -1.00000000</i>
    <i type="logical" name="LSORBIT"> F  </i>
    <v name="SAXIS">      0.00000000      0.00000000      1.00000000</v>
    <i type="logical" name="LSPIRAL"> F  </i>
    <v name="QSPIRAL">      0.00000000      0.00000000      0.00000000</v>
    <i type="logical" name="LZEROZ"> F  </i>
   </separator>
   <separator name="electronic exchange-correlation" >
    <i type="logical" name="LASPH"> F  </i>
    <i type="logical" name="LMETAGGA"> F  </i>
   </separator>
   <separator name="electronic convergence" >
    <i type="int" name="NELM">    60</i>
    <i type="int" name="NELMDL">    -5</i>
    <i type="int" name="NELMIN">     2</i>
    <i name="ENINI">    400.00000000</i>
    <separator name="electronic convergence detail" >
     <i type="logical" name="LDIAG"> T  </i>
     <i type="logical" name="LSUBROT"> F  </i>
     <i name="WEIMIN">      0.00100000</i>
     <i name="EBREAK">      0.00000000</i>
     <i name="DEPER">      0.30000000</i>
     <i type="int" name="NRMM">     4</i>
     <i name="TIME">      0.40000000</i>
    </separator>
   </separator>
   <separator name="electronic mixer" >
    <i name="AMIX">      0.40000000</i>
    <i name="BMIX">      1.00000000</i>
    <i name="AMIN">      0.10000000</i>
    <i name="AMIX_MAG">      1.60000000</i>
    <i name="BMIX_MAG">      1.00000000</i>
    <separator name="electronic mixer details" >
     <i type="int" name="IMIX">     4</i>
     <i type="logical" name="MIXFIRST"> F  </i>
     <i type="int" name="MAXMIX">   -45</i>
     <i name="WC">    100.00000000</i>
     <i type="int" name="INIMIX">     1</i>
     <i type="int" name="MIXPRE">     1</i>
     <i type="int" name="MREMOVE">     5</i>
    </separator>
   </separator>
   <separator name="electronic dipolcorrection" >
    <i type="logical" name="LDIPOL"> F  </i>
    <i type="logical" name="LMONO"> F  </i>
    <i type="int" name="IDIPOL">     0</i>
    <i name="EPSILON">      1.00000000</i>
    <v name="DIPOL">   -100.00000000   -100.00000000   -100.00000000</v>
    <i name="EFIELD">      0.00000000</i>
   </separator>
  </separator>
  <separator name="grids" >
   <i type="int" name="NGX">    48</i>
   <i type="int" name="NGY">    48</i>
   <i type="int" name="NGZ">    48</i>
   <i type="int" name="NGXF">    96</i>
   <i type="int" name="NGYF">    96</i>
   <i type="int" name="NGZF">    96</i>
   <i type="logical" name="ADDGRID"> T  </i>
  </separator>
  <separator name="ionic" >
   <i type="int" name="NSW">     1</i>
   <i type="int" name="IBRION">     8</i>
   <i type="int" name="MDALGO">     0</i>
   <i type="int" name="ISIF">     2</i>
   <i name="PSTRESS">      0.00000000</i>
   <i name="EDIFFG">      0.00000010</i>
   <i type="int" name="NFREE">     0</i>
   <i name="POTIM">      0.50000000</i>
   <i name="SMASS">     -3.00000000</i>
   <i name="SCALEE">      1.00000000</i>
  </separator>
  <separator name="ionic md" >
   <i name="TEBEG">      0.00010000</i>
   <i name="TEEND">      0.00010000</i>
   <i type="int" name="NBLOCK">     1</i>
   <i type="int" name="KBLOCK">     1</i>
   <i type="int" name="NPACO">   256</i>
   <i name="APACO">     16.00000000</i>
  </separator>
  <separator name="symmetry" >
   <i type="int" name="ISYM">     2</i>
   <i name="SYMPREC">      0.00001000</i>
  </separator>
  <separator name="dos" >
   <i type="int" name="LORBIT">     0</i>
   <v name="RWIGS">     -1.00000000</v>
   <i type="int" name="NEDOS">   301</i>
   <i name="EMIN">     10.00000000</i>
   <i name="EMAX">    -10.00000000</i>
   <i name="EFERMI">      0.00000000</i>
  </separator>
  <separator name="writing" >
   <i type="int" name="NWRITE">     2</i>
   <i type="logical" name="LWAVE"> F  </i>
   <i type="logical" name="LDOWNSAMPLE"> F  </i>
   <i type="logical" name="LCHARG"> F  </i>
   <i type="logical" name="LPARD"> F  </i>
   <i type="logical" name="LVTOT"> F  </i>
   <i type="logical" name="LVHAR"> F  </i>
   <i type="logical" name="LELF"> F  </i>
   <i type="logical" name="LOPTICS"> F  </i>
   <v name="STM">      0.00000000      0.00000000      0.00000000      0.00000000      0.00000000      0.00000000      0.00000000</v>
  </separator>
  <separator name="performance" >
   <i type="int" name="NPAR">    32</i>
   <i type="int" name="NSIM">     4</i>
   <i type="int" name="NBLK">    -1</i>
   <i type="logical" name="LPLANE"> T  </i>
   <i type="logical" name="LSCALAPACK"> T  </i>
   <i type="logical" name="LSCAAWARE"> F  </i>
   <i type="logical" name="LSCALU"> F  </i>
   <i type="logical" name="LASYNC"> F  </i>
   <i type="logical" name="LORBITALREAL"> F  </i>
  </separator>
  <separator name="miscellaneous" >
   <i type="int" name="IDIOT">     3</i>
   <i type="int" name="ISPECIAL">     0</i>
   <i type="logical" name="LMUSIC"> F  </i>
   <v name="POMASS">     12.01100000</v>
   <v name="DARWINR">      0.00000000</v>
   <v name="DARWINV">      1.00000000</v>
   <i type="logical" name="LCORR"> T  </i>
  </separator>
  <i type="logical" name="GGA_COMPAT"> T  </i>
  <i type="logical" name="LBERRY"> F  </i>
  <i type="int" name="ICORELEVEL">     0</i>
  <i type="logical" name="LDAU"> F  </i>
  <i type="int" name="I_CONSTRAINED_M">     0</i>
  <separator name="electronic exchange-correlation" >
   <i type="string" name="GGA">--</i>
   <i type="int" name="VOSKOWN">     0</i>
   <i type="logical" name="LHFCALC"> F  </i>
   <i type="string" name="PRECFOCK"></i>
   <i type="logical" name="LSYMGRAD"> F  </i>
   <i type="logical" name="LHFONE"> F  </i>
   <i type="logical" name="LRHFCALC"> F  </i>
   <i type="logical" name="LTHOMAS"> F  </i>
   <i type="logical" name="LMODELHF"> F  </i>
   <i name="ENCUT4O">     -1.00000000</i>
   <i type="int" name="EXXOEP">     0</i>
   <i type="int" name="FOURORBIT">     0</i>
   <i name="AEXX">      0.00000000</i>
   <i name="HFALPHA">      0.00000000</i>
   <i name="MCALPHA">      0.00000000</i>
   <i name="ALDAX">      1.00000000</i>
   <i name="AGGAX">      1.00000000</i>
   <i name="ALDAC">      1.00000000</i>
   <i name="AGGAC">      1.00000000</i>
   <i type="int" name="NKREDX">     1</i>
   <i type="int" name="NKREDY">     1</i>
   <i type="int" name="NKREDZ">     1</i>
   <i type="logical" name="SHIFTRED"> F  </i>
   <i type="logical" name="ODDONLY"> F  </i>
   <i type="logical" name="EVENONLY"> F  </i>
   <i type="int" name="LMAXFOCK">     0</i>
   <i type="int" name="NMAXFOCKAE">     0</i>
   <i type="logical" name="LFOCKAEDFT"> F  </i>
   <i name="HFSCREEN">      0.00000000</i>
   <i name="HFSCREENC">      0.00000000</i>
   <i type="int" name="NBANDSGWLOW">     0</i>
  </separator>
  <separator name="vdW DFT" >
   <i type="logical" name="LUSE_VDW"> F  </i>
   <i name="Zab_VDW">     -0.84910000</i>
   <i name="PARAM1">      0.12340000</i>
   <i name="PARAM2">      1.00000000</i>
   <i name="PARAM3">      0.00000000</i>
  </separator>
  <separator name="model GW" >
   <i type="int" name="MODEL_GW">     0</i>
   <i name="MODEL_EPS0">      3.40071591</i>
   <i name="MODEL_ALPHA">      1.00000000</i>
  </separator>
  <separator name="linear response parameters" >
   <i type="logical" name="LEPSILON"> F  </i>
   <i type="logical" name="LRPA"> F  </i>
   <i type="logical" name="LNABLA"> F  </i>
   <i type="logical" name="LVEL"> F  </i>
   <i type="int" name="KINTER">     0</i>
   <i name="CSHIFT">      0.10000000</i>
   <i name="OMEGAMAX">     -1.00000000</i>
   <i name="DEG_THRESHOLD">      0.00200000</i>
   <i name="RTIME">     -0.10000000</i>
   <i name="WPLASMAI">      0.00000000</i>
   <v name="DFIELD">      0.00000000      0.00000000      0.00000000</v>
   <v name="WPLASMA">      0.00000000      0.00000000      0.00000000      0.00000000      0.00000000      0.00000000      0.00000000      0.00000000      0.00000000</v>
  </separator>
  <separator name="orbital magnetization" >
   <i type="logical" name="NUCIND"> F  </i>
   <v name="MAGPOS">      0.00000000      0.00000000      0.00000000</v>
   <i type="logical" name="LNICSALL"> T  </i>
   <i type="logical" name="ORBITALMAG"> F  </i>
   <i type="logical" name="LMAGBLOCH"> F  </i>
   <i type="logical" name="LCHIMAG"> F  </i>
   <i type="logical" name="LGAUGE"> T  </i>
   <i type="int" name="MAGATOM">     0</i>
   <v name="MAGDIPOL">      0.00000000      0.00000000      0.00000000</v>
   <v name="AVECCONST">      0.00000000      0.00000000      0.00000000</v>
  </separator>
  <separator name="response functions" >
   <i type="logical" name="LADDER"> F  </i>
   <i type="logical" name="LRPAFORCE"> F  </i>
   <i type="logical" name="LFXC"> F  </i>
   <i type="logical" name="LHARTREE"> T  </i>
   <i type="int" name="IBSE">     0</i>
   <v type="int" name="KPOINT">    -1     0     0     0</v>
   <i type="logical" name="LTCTE"> F  </i>
   <i type="logical" name="LTETE"> F  </i>
   <i type="logical" name="LTRIPLET"> F  </i>
   <i type="logical" name="LFXCEPS"> F  </i>
   <i type="logical" name="LFXHEG"> F  </i>
   <i type="int" name="NATURALO">     2</i>
   <i type="logical" name="L2ORDER"> F  </i>
   <i type="logical" name="LMP2LT"> F  </i>
   <i type="logical" name="LUSEW"> F  </i>
   <i name="ENCUTGW">     -2.00000000</i>
   <i name="ENCUTGWSOFT">     -2.00000000</i>
   <i name="ENCUTLF">     -1.00000000</i>
   <i type="int" name="LMAXMP2">    -1</i>
   <i name="SCISSOR">      0.00000000</i>
   <i type="int" name="NOMEGA">     0</i>
   <i type="int" name="NOMEGAR">     0</i>
   <i type="int" name="NBANDSGW">    -1</i>
   <i type="int" name="NBANDSO">    -1</i>
   <i type="int" name="NBANDSV">    -1</i>
   <i type="int" name="NELM">     1</i>
   <i type="int" name="NELMHF">     1</i>
   <i type="int" name="DIM">     3</i>
   <i type="int" name="ANTIRES">     0</i>
   <i name="OMEGAMAX">    -30.00000000</i>
   <i name="OMEGAMIN">    -30.00000000</i>
   <i name="OMEGATL">   -200.00000000</i>
   <i type="int" name="OMEGAGRID">   140</i>
   <i name="CSHIFT">     -0.10000000</i>
   <i type="logical" name="SELFENERGY"> F  </i>
   <i type="logical" name="LSPECTRAL"> F  </i>
   <i type="logical" name="LSPECTRALGW"> F  </i>
   <i type="logical" name="LSINGLES"> F  </i>
   <i type="logical" name="LFERMIGW"> F  </i>
   <i type="logical" name="ODDONLYGW"> F  </i>
   <i type="logical" name="EVENONLYGW"> F  </i>
   <i type="int" name="NKREDLFX">     1</i>
   <i type="int" name="NKREDLFY">     1</i>
   <i type="int" name="NKREDLFZ">     1</i>
   <i type="int" name="MAXMEM">  2800</i>
   <i type="int" name="TELESCOPE">     0</i>
   <i type="int" name="TAUPAR">     1</i>
   <i type="int" name="OMEGAPAR">    -1</i>
   <i name="LAMBDA">      1.00000000</i>
  </separator>
  <separator name="External order field" >
   <i name="OFIELD_KAPPA">      0.00000000</i>
   <v name="OFIELD_K">      0.00000000      0.00000000      0.00000000</v>
   <i name="OFIELD_Q6_NEAR">      0.00000000</i>
   <i name="OFIELD_Q6_FAR">      0.00000000</i>
   <i name="OFIELD_A">      0.00000000</i>
  </separator>
 </parameters>
 <atominfo>
  <atoms>      64 </atoms>
  <types>       1 </types>
  <array name="atoms" >
   <dimension dim="1">ion</dimension>
   <field type="string">element</field>
   <field type="int">atomtype</field>
   <set>
    <rc><c>C </c><c>   1</c></rc>
    <rc><c>C </c><c>   1</c></rc>
    <rc><c>C </c><c>   1</c></rc>
    <rc><c>C </c><c>   1</c></rc>
    <rc><c>C </c><c>   1</c></rc>
    <rc><c>C </c><c>   1</c></rc>
    <rc><c>C </c><c>   1</c></rc>
    <rc><c>C </c><c>   1</c></rc>
    <rc><c>C </c><c>   1</c></rc>
    <rc><c>C </c><c>   1</c></rc>
    <rc><c>C </c><c>   1</c></rc>
    <rc><c>C </c><c>   1</c></rc>
    <rc><c>C </c><c>   1</c></rc>
    <rc><c>C </c><c>   1</c></rc>
    <rc><c>C </c><c>   1</c></rc>
    <rc><c>C </c><c>   1</c></rc>
    <rc><c>C </c><c>   1</c></rc>
    <rc><c>C </c><c>   1</c></rc>
    <rc><c>C </c><c>   1</c></rc>
    <rc><c>C </c><c>   1</c></rc>
    <rc><c>C </c><c>   1</c></rc>
    <rc><c>C </c><c>   1</c></rc>
    <rc><c>C </c><c>   1</c></rc>
    <rc><c>C </c><c>   1</c></rc>
    <rc><c>C </c><c>   1</c></rc>
    <rc><c>C </c><c>   1</c></rc>
    <rc><c>C </c><c>   1</c></rc>
    <rc><c>C </c><c>   1</c></rc>
    <rc><c>C </c><c>   1</c></rc>
    <rc><c>C </c><c>   1</c></rc>
    <rc><c>C </c><c>   1</c></rc>
    <rc><c>C </c><c>   1</c></rc>
    <rc><c>C </c><c>   1</c></rc>
    <rc><c>C </c><c>   1</c></rc>
    <rc><c>C </c><c>   1</c></rc>
    <rc><c>C </c><c>   1</c></rc>
    <rc><c>C </c><c>   1</c></rc>
    <rc><c>C </c><c>   1</c></rc>
    <rc><c>C </c><c>   1</c></rc>
    <rc><c>C </c><c>   1</c></rc>
    <rc><c>C </c><c>   1</c></rc>
    <rc><c>C </c><c>   1</c></rc>
    <rc><c>C </c><c>   1</c></rc>
    <rc><c>C </c><c>   1</c></rc>
    <rc><c>C </c><c>   1</c></rc>
    <rc><c>C </c><c>   1</c></rc>
    <rc><c>C </c><c>   1</c></rc>
    <rc><c>C </c><c>   1</c></rc>
    <rc><c>C </c><c>   1</c></rc>
    <rc><c>C </c><c>   1</c></rc>
    <rc><c>C </c><c>   1</c></rc>
    <rc><c>C </c><c>   1</c></rc>
    <rc><c>C </c><c>   1</c></rc>
    <rc><c>C </c><c>   1</c></rc>
    <rc><c>C </c><c>   1</c></rc>
    <rc><c>C </c><c>   1</c></rc>
    <rc><c>C </c><c>   1</c></rc>
    <rc><c>C </c><c>   1</c></rc>
    <rc><c>C </c><c>   1</c></rc>
    <rc><c>C </c><c>   1</c></rc>
    <rc><c>C </c><c>   1</c></rc>
    <rc><c>C </c><c>   1</c></rc>
    <rc><c>C </c><c>   1</c></rc>
    <rc><c>C </c><c>   1</c></rc>
   </set>
  </array>
  <array name="atomtypes" >
   <dimension dim="1">type</dimension>
   <field type="int">atomspertype</field>
   <field type="string">element</field>
   <field>mass</field>
   <field>valence</field>
   <field type="string">pseudopotential</field>
   <set>
    <rc><c>  64</c><c>C </c><c>     12.01100000</c><c>      4.00000000</c><c> PAW_PBE C 08Apr2002                    </c></rc>
   </set>
  </array>
 </atominfo>
 <structure name="initialpos" >
  <crystal>
   <varray name="basis" >
    <v>       7.10783528       0.00000000       0.00000000 </v>
    <v>       0.00000000       7.10783528       0.00000000 </v>
    <v>       0.00000000       0.00000000       7.17999872 </v>
   </varray>
   <i name="volume">    362.74302999 </i>
   <varray name="rec_basis" >
    <v>       0.14068981       0.00000000       0.00000000 </v>
    <v>       0.00000000       0.14068981       0.00000000 </v>
    <v>       0.00000000       0.00000000       0.13927579 </v>
   </varray>
  </crystal>
  <varray name="positions" >
   <v>       0.12500000       0.37500000       0.12500000 </v>
   <v>       0.62500000       0.37500000       0.12500000 </v>
   <v>       0.12500000       0.87500000       0.12500000 </v>
   <v>       0.62500000       0.87500000       0.12500000 </v>
   <v>       0.12500000       0.37500000       0.62500000 </v>
   <v>       0.62500000       0.37500000       0.62500000 </v>
   <v>       0.12500000       0.87500000       0.62500000 </v>
   <v>       0.62500000       0.87500000       0.62500000 </v>
   <v>       0.00000000       0.00000000       0.25000000 </v>
   <v>       0.50000000       0.00000000       0.25000000 </v>
   <v>       0.00000000       0.50000000       0.25000000 </v>
   <v>       0.50000000       0.50000000       0.25000000 </v>
   <v>       0.00000000       0.00000000       0.75000000 </v>
   <v>       0.50000000       0.00000000       0.75000000 </v>
   <v>       0.00000000       0.50000000       0.75000000 </v>
   <v>       0.50000000       0.50000000       0.75000000 </v>
   <v>       0.12500000       0.12500000       0.37500000 </v>
   <v>       0.62500000       0.12500000       0.37500000 </v>
   <v>       0.12500000       0.62500000       0.37500000 </v>
   <v>       0.62500000       0.62500000       0.37500000 </v>
   <v>       0.12500000       0.12500000       0.87500000 </v>
   <v>       0.62500000       0.12500000       0.87500000 </v>
   <v>       0.12500000       0.62500000       0.87500000 </v>
   <v>       0.62500000       0.62500000       0.87500000 </v>
   <v>       0.00000000       0.25000000       0.00000000 </v>
   <v>       0.50000000       0.25000000       0.00000000 </v>
   <v>       0.00000000       0.75000000       0.00000000 </v>
   <v>       0.50000000       0.75000000       0.00000000 </v>
   <v>       0.00000000       0.25000000       0.50000000 </v>
   <v>       0.50000000       0.25000000       0.50000000 </v>
   <v>       0.00000000       0.75000000       0.50000000 </v>
   <v>       0.50000000       0.75000000       0.50000000 </v>
   <v>       0.37500000       0.37500000       0.37500000 </v>
   <v>       0.87500000       0.37500000       0.37500000 </v>
   <v>       0.37500000       0.87500000       0.37500000 </v>
   <v>       0.87500000       0.87500000       0.37500000 </v>
   <v>       0.37500000       0.37500000       0.87500000 </v>
   <v>       0.87500000       0.37500000       0.87500000 </v>
   <v>       0.37500000       0.87500000       0.87500000 </v>
   <v>       0.87500000       0.87500000       0.87500000 </v>
   <v>       0.25000000       0.00000000       0.00000000 </v>
   <v>       0.75000000       0.00000000       0.00000000 </v>
   <v>       0.25000000       0.50000000       0.00000000 </v>
   <v>       0.75000000       0.50000000       0.00000000 </v>
   <v>       0.25000000       0.00000000       0.50000000 </v>
   <v>       0.75000000       0.00000000       0.50000000 </v>
   <v>       0.25000000       0.50000000       0.50000000 </v>
   <v>       0.75000000       0.50000000       0.50000000 </v>
   <v>       0.37500000       0.12500000       0.12500000 </v>
   <v>       0.87500000       0.12500000       0.12500000 </v>
   <v>       0.37500000       0.62500000       0.12500000 </v>
   <v>       0.87500000       0.62500000       0.12500000 </v>
   <v>       0.37500000       0.12500000       0.62500000 </v>
   <v>       0.87500000       0.12500000       0.62500000 </v>
   <v>       0.37500000       0.62500000       0.62500000 </v>
   <v>       0.87500000       0.62500000       0.62500000 </v>
   <v>       0.25000000       0.25000000       0.25000000 </v>
   <v>       0.75000000       0.25000000       0.25000000 </v>
   <v>       0.25000000       0.75000000       0.25000000 </v>
   <v>       0.75000000       0.75000000       0.25000000 </v>
   <v>       0.25000000       0.25000000       0.75000000 </v>
   <v>       0.75000000       0.25000000       0.75000000 </v>
   <v>       0.25000000       0.75000000       0.75000000 </v>
   <v>       0.75000000       0.75000000       0.75000000 </v>
  </varray>
 </structure>
 <calculation>
  <scstep>
   <time name="dav">   26.57   26.58</time>
   <time name="total">   26.69   26.71</time>
   <energy>
    <i name="alphaZ">    920.05283120 </i>
    <i name="ewald"> -11137.65801093 </i>
    <i name="hartreedc">   -563.06065341 </i>
    <i name="XCdc">    915.21926259 </i>
    <i name="pawpsdc">   2421.21235816 </i>
    <i name="pawaedc">  -2494.84305711 </i>
    <i name="eentropy">     -0.01161034 </i>
    <i name="bandstr">   1027.73667809 </i>
    <i name="atom">   9416.14232778 </i>
    <i name="e_fr_energy">    504.79012603 </i>
    <i name="e_wo_entrp">    504.80173637 </i>
    <i name="e_0_energy">    504.79593120 </i>
   </energy>
  </scstep>
  <scstep>
   <time name="dav">   33.98   33.98</time>
   <time name="total">   33.98   33.98</time>
   <energy>
    <i name="e_fr_energy">   -561.35982960 </i>
    <i name="e_wo_entrp">   -561.35982960 </i>
    <i name="e_0_energy">   -561.35982960 </i>
   </energy>
  </scstep>
  <scstep>
   <time name="dav">   34.59   34.60</time>
   <time name="total">   34.60   34.60</time>
   <energy>
    <i name="e_fr_energy">   -601.77908320 </i>
    <i name="e_wo_entrp">   -601.77908320 </i>
    <i name="e_0_energy">   -601.77908320 </i>
   </energy>
  </scstep>
  <scstep>
   <time name="dav">   34.82   34.83</time>
   <time name="total">   34.83   34.83</time>
   <energy>
    <i name="e_fr_energy">   -602.20879467 </i>
    <i name="e_wo_entrp">   -602.20879467 </i>
    <i name="e_0_energy">   -602.20879467 </i>
   </energy>
  </scstep>
  <scstep>
   <time name="dav">   31.86   31.86</time>
   <time name="total">   32.63   32.63</time>
   <energy>
    <i name="e_fr_energy">   -602.21798879 </i>
    <i name="e_wo_entrp">   -602.21798879 </i>
    <i name="e_0_energy">   -602.21798879 </i>
   </energy>
  </scstep>
  <scstep>
   <time name="dav">   30.31   30.31</time>
   <time name="total">   31.18   31.19</time>
   <energy>
    <i name="e_fr_energy">   -586.98864790 </i>
    <i name="e_wo_entrp">   -586.98864790 </i>
    <i name="e_0_energy">   -586.98864790 </i>
   </energy>
  </scstep>
  <scstep>
   <time name="dav">   31.85   31.86</time>
   <time name="total">   32.75   32.76</time>
   <energy>
    <i name="e_fr_energy">   -581.84591677 </i>
    <i name="e_wo_entrp">   -581.84591677 </i>
    <i name="e_0_energy">   -581.84591677 </i>
   </energy>
  </scstep>
  <scstep>
   <time name="dav">   32.13   32.13</time>
   <time name="total">   33.01   33.01</time>
   <energy>
    <i name="e_fr_energy">   -581.90676096 </i>
    <i name="e_wo_entrp">   -581.90676096 </i>
    <i name="e_0_energy">   -581.90676096 </i>
   </energy>
  </scstep>
  <scstep>
   <time name="dav">   33.22   33.23</time>
   <time name="total">   34.10   34.19</time>
   <energy>
    <i name="e_fr_energy">   -581.90887906 </i>
    <i name="e_wo_entrp">   -581.90887906 </i>
    <i name="e_0_energy">   -581.90887906 </i>
   </energy>
  </scstep>
  <scstep>
   <time name="dav">   31.97   31.97</time>
   <time name="total">   32.86   32.86</time>
   <energy>
    <i name="e_fr_energy">   -581.90933106 </i>
    <i name="e_wo_entrp">   -581.90933106 </i>
    <i name="e_0_energy">   -581.90933106 </i>
   </energy>
  </scstep>
  <scstep>
   <time name="dav">   34.69   34.69</time>
   <time name="total">   35.57   35.57</time>
   <energy>
    <i name="e_fr_energy">   -581.90933617 </i>
    <i name="e_wo_entrp">   -581.90933617 </i>
    <i name="e_0_energy">   -581.90933617 </i>
   </energy>
  </scstep>
  <scstep>
   <time name="dav">   34.03   34.04</time>
   <time name="total">   34.90   34.90</time>
   <energy>
    <i name="e_fr_energy">   -581.90933617 </i>
    <i name="e_wo_entrp">   -581.90933617 </i>
    <i name="e_0_energy">   -581.90933617 </i>
   </energy>
  </scstep>
  <scstep>
   <time name="dav">   27.42   27.42</time>
   <time name="total">   28.29   28.29</time>
   <energy>
    <i name="e_fr_energy">   -581.90933625 </i>
    <i name="e_wo_entrp">   -581.90933625 </i>
    <i name="e_0_energy">   -581.90933625 </i>
   </energy>
  </scstep>
  <scstep>
   <time name="dav">   25.97   25.97</time>
   <time name="total">   26.85   26.85</time>
   <energy>
    <i name="e_fr_energy">   -581.90933627 </i>
    <i name="e_wo_entrp">   -581.90933627 </i>
    <i name="e_0_energy">   -581.90933627 </i>
   </energy>
  </scstep>
  <scstep>
   <time name="dav">   23.98   23.98</time>
   <time name="total">   24.08   24.08</time>
   <energy>
    <i name="alphaZ">    920.05283120 </i>
    <i name="ewald"> -11137.65801093 </i>
    <i name="hartreedc">   -843.37578002 </i>
    <i name="XCdc">    941.67455433 </i>
    <i name="pawpsdc">   4218.79282662 </i>
    <i name="pawaedc">  -4299.77238117 </i>
    <i name="eentropy">     -0.00000000 </i>
    <i name="bandstr">    202.23429591 </i>
    <i name="atom">   9416.14232778 </i>
    <i name="e_fr_energy">   -581.90933627 </i>
    <i name="e_wo_entrp">   -581.90933627 </i>
    <i name="e_0_energy">   -581.90933627 </i>
   </energy>
  </scstep>
  <structure>
   <crystal>
    <varray name="basis" >
     <v>       7.10783528       0.00000000       0.00000000 </v>
     <v>       0.00000000       7.10783528       0.00000000 </v>
     <v>       0.00000000       0.00000000       7.17999872 </v>
    </varray>
    <i name="volume">    362.74302999 </i>
    <varray name="rec_basis" >
     <v>       0.14068981       0.00000000       0.00000000 </v>
     <v>       0.00000000       0.14068981       0.00000000 </v>
     <v>       0.00000000       0.00000000       0.13927579 </v>
    </varray>
   </crystal>
   <varray name="positions" >
    <v>       0.12500000       0.37500000       0.12500000 </v>
    <v>       0.62500000       0.37500000       0.12500000 </v>
    <v>       0.12500000       0.87500000       0.12500000 </v>
    <v>       0.62500000       0.87500000       0.12500000 </v>
    <v>       0.12500000       0.37500000       0.62500000 </v>
    <v>       0.62500000       0.37500000       0.62500000 </v>
    <v>       0.12500000       0.87500000       0.62500000 </v>
    <v>       0.62500000       0.87500000       0.62500000 </v>
    <v>       0.00000000       0.00000000       0.25000000 </v>
    <v>       0.50000000       0.00000000       0.25000000 </v>
    <v>       0.00000000       0.50000000       0.25000000 </v>
    <v>       0.50000000       0.50000000       0.25000000 </v>
    <v>       0.00000000       0.00000000       0.75000000 </v>
    <v>       0.50000000       0.00000000       0.75000000 </v>
    <v>       0.00000000       0.50000000       0.75000000 </v>
    <v>       0.50000000       0.50000000       0.75000000 </v>
    <v>       0.12500000       0.12500000       0.37500000 </v>
    <v>       0.62500000       0.12500000       0.37500000 </v>
    <v>       0.12500000       0.62500000       0.37500000 </v>
    <v>       0.62500000       0.62500000       0.37500000 </v>
    <v>       0.12500000       0.12500000       0.87500000 </v>
    <v>       0.62500000       0.12500000       0.87500000 </v>
    <v>       0.12500000       0.62500000       0.87500000 </v>
    <v>       0.62500000       0.62500000       0.87500000 </v>
    <v>       0.00000000       0.25000000       0.00000000 </v>
    <v>       0.50000000       0.25000000       0.00000000 </v>
    <v>       0.00000000       0.75000000       0.00000000 </v>
    <v>       0.50000000       0.75000000       0.00000000 </v>
    <v>       0.00000000       0.25000000       0.50000000 </v>
    <v>       0.50000000       0.25000000       0.50000000 </v>
    <v>       0.00000000       0.75000000       0.50000000 </v>
    <v>       0.50000000       0.75000000       0.50000000 </v>
    <v>       0.37500000       0.37500000       0.37500000 </v>
    <v>       0.87500000       0.37500000       0.37500000 </v>
    <v>       0.37500000       0.87500000       0.37500000 </v>
    <v>       0.87500000       0.87500000       0.37500000 </v>
    <v>       0.37500000       0.37500000       0.87500000 </v>
    <v>       0.87500000       0.37500000       0.87500000 </v>
    <v>       0.37500000       0.87500000       0.87500000 </v>
    <v>       0.87500000       0.87500000       0.87500000 </v>
    <v>       0.25000000       0.00000000       0.00000000 </v>
    <v>       0.75000000       0.00000000       0.00000000 </v>
    <v>       0.25000000       0.50000000       0.00000000 </v>
    <v>       0.75000000       0.50000000       0.00000000 </v>
    <v>       0.25000000       0.00000000       0.50000000 </v>
    <v>       0.75000000       0.00000000       0.50000000 </v>
    <v>       0.25000000       0.50000000       0.50000000 </v>
    <v>       0.75000000       0.50000000       0.50000000 </v>
    <v>       0.37500000       0.12500000       0.12500000 </v>
    <v>       0.87500000       0.12500000       0.12500000 </v>
    <v>       0.37500000       0.62500000       0.12500000 </v>
    <v>       0.87500000       0.62500000       0.12500000 </v>
    <v>       0.37500000       0.12500000       0.62500000 </v>
    <v>       0.87500000       0.12500000       0.62500000 </v>
    <v>       0.37500000       0.62500000       0.62500000 </v>
    <v>       0.87500000       0.62500000       0.62500000 </v>
    <v>       0.25000000       0.25000000       0.25000000 </v>
    <v>       0.75000000       0.25000000       0.25000000 </v>
    <v>       0.25000000       0.75000000       0.25000000 </v>
    <v>       0.75000000       0.75000000       0.25000000 </v>
    <v>       0.25000000       0.25000000       0.75000000 </v>
    <v>       0.75000000       0.25000000       0.75000000 </v>
    <v>       0.25000000       0.75000000       0.75000000 </v>
    <v>       0.75000000       0.75000000       0.75000000 </v>
   </varray>
  </structure>
  <varray name="forces" >
   <v>      -0.00000000       0.00000000       0.00000000 </v>
   <v>       0.00000000      -0.00000000      -0.00000000 </v>
   <v>      -0.00000000      -0.00000000      -0.00000000 </v>
   <v>       0.00000000       0.00000000       0.00000000 </v>
   <v>      -0.00000000       0.00000000       0.00000000 </v>
   <v>       0.00000000      -0.00000000      -0.00000000 </v>
   <v>      -0.00000000       0.00000000      -0.00000000 </v>
   <v>       0.00000000      -0.00000000       0.00000000 </v>
   <v>       0.00000000      -0.00000000      -0.00000000 </v>
   <v>       0.00000000       0.00000000      -0.00000000 </v>
   <v>      -0.00000000      -0.00000000       0.00000000 </v>
   <v>       0.00000000       0.00000000       0.00000000 </v>
   <v>      -0.00000000      -0.00000000      -0.00000000 </v>
   <v>       0.00000000       0.00000000       0.00000000 </v>
   <v>      -0.00000000      -0.00000000       0.00000000 </v>
   <v>       0.00000000      -0.00000000      -0.00000000 </v>
   <v>      -0.00000000       0.00000000      -0.00000000 </v>
   <v>       0.00000000      -0.00000000      -0.00000000 </v>
   <v>      -0.00000000       0.00000000      -0.00000000 </v>
   <v>       0.00000000      -0.00000000      -0.00000000 </v>
   <v>      -0.00000000       0.00000000      -0.00000000 </v>
   <v>       0.00000000      -0.00000000       0.00000000 </v>
   <v>      -0.00000000       0.00000000      -0.00000000 </v>
   <v>       0.00000000      -0.00000000      -0.00000000 </v>
   <v>       0.00000000      -0.00000000       0.00000000 </v>
   <v>       0.00000000       0.00000000       0.00000000 </v>
   <v>      -0.00000000      -0.00000000      -0.00000000 </v>
   <v>       0.00000000      -0.00000000       0.00000000 </v>
   <v>      -0.00000000      -0.00000000       0.00000000 </v>
   <v>       0.00000000       0.00000000      -0.00000000 </v>
   <v>      -0.00000000      -0.00000000      -0.00000000 </v>
   <v>       0.00000000       0.00000000       0.00000000 </v>
   <v>      -0.00000000      -0.00000000      -0.00000000 </v>
   <v>      -0.00000000       0.00000000       0.00000000 </v>
   <v>       0.00000000      -0.00000000      -0.00000000 </v>
   <v>       0.00000000       0.00000000      -0.00000000 </v>
   <v>       0.00000000      -0.00000000      -0.00000000 </v>
   <v>       0.00000000       0.00000000       0.00000000 </v>
   <v>       0.00000000      -0.00000000       0.00000000 </v>
   <v>      -0.00000000       0.00000000      -0.00000000 </v>
   <v>       0.00000000       0.00000000      -0.00000000 </v>
   <v>      -0.00000000      -0.00000000      -0.00000000 </v>
   <v>       0.00000000       0.00000000       0.00000000 </v>
   <v>      -0.00000000      -0.00000000       0.00000000 </v>
   <v>      -0.00000000       0.00000000       0.00000000 </v>
   <v>       0.00000000      -0.00000000       0.00000000 </v>
   <v>       0.00000000       0.00000000      -0.00000000 </v>
   <v>      -0.00000000      -0.00000000       0.00000000 </v>
   <v>       0.00000000      -0.00000000       0.00000000 </v>
   <v>      -0.00000000       0.00000000       0.00000000 </v>
   <v>      -0.00000000      -0.00000000       0.00000000 </v>
   <v>      -0.00000000       0.00000000      -0.00000000 </v>
   <v>       0.00000000      -0.00000000      -0.00000000 </v>
   <v>      -0.00000000       0.00000000       0.00000000 </v>
   <v>      -0.00000000      -0.00000000      -0.00000000 </v>
   <v>       0.00000000       0.00000000      -0.00000000 </v>
   <v>      -0.00000000       0.00000000       0.00000000 </v>
   <v>      -0.00000000      -0.00000000      -0.00000000 </v>
   <v>       0.00000000       0.00000000      -0.00000000 </v>
   <v>      -0.00000000      -0.00000000      -0.00000000 </v>
   <v>       0.00000000       0.00000000      -0.00000000 </v>
   <v>       0.00000000      -0.00000000      -0.00000000 </v>
   <v>       0.00000000       0.00000000       0.00000000 </v>
   <v>      -0.00000000      -0.00000000       0.00000000 </v>
  </varray>
  <varray name="stress" >
   <v>      17.16170980       0.00000000       0.00000000 </v>
   <v>       0.00000000      17.16170980       0.00000000 </v>
   <v>       0.00000000       0.00000000     -77.87331496 </v>
  </varray>
  <energy>
   <i name="e_fr_energy">   -581.90933627 </i>
   <i name="e_wo_entrp">   -581.90933627 </i>
   <i name="e_0_energy">     -0.00000000 </i>
  </energy>
  <kpoints>
   <generation param="Gamma">
    <v type="int" name="divisions">       6        6        6 </v>
    <v name="usershift">      0.00000000       0.00000000       0.00000000 </v>
    <v name="genvec1">      0.16666667       0.00000000       0.00000000 </v>
    <v name="genvec2">      0.00000000       0.16666667       0.00000000 </v>
    <v name="genvec3">      0.00000000       0.00000000       0.16666667 </v>
    <v name="shift">      0.00000000       0.00000000       0.00000000 </v>
   </generation>
   <varray name="kpointlist" >
    <v>       0.00000000       0.00000000       0.00000000 </v>
    <v>       0.16666667       0.00000000       0.00000000 </v>
    <v>       0.33333333       0.00000000       0.00000000 </v>
    <v>       0.50000000       0.00000000       0.00000000 </v>
    <v>       0.00000000       0.16666667       0.00000000 </v>
    <v>       0.16666667       0.16666667       0.00000000 </v>
    <v>       0.33333333       0.16666667       0.00000000 </v>
    <v>       0.50000000       0.16666667       0.00000000 </v>
    <v>       0.00000000       0.33333333       0.00000000 </v>
    <v>       0.16666667       0.33333333       0.00000000 </v>
    <v>       0.33333333       0.33333333       0.00000000 </v>
    <v>       0.50000000       0.33333333       0.00000000 </v>
    <v>       0.00000000       0.50000000       0.00000000 </v>
    <v>       0.16666667       0.50000000       0.00000000 </v>
    <v>       0.33333333       0.50000000       0.00000000 </v>
    <v>       0.50000000       0.50000000       0.00000000 </v>
    <v>       0.00000000       0.00000000       0.16666667 </v>
    <v>       0.16666667       0.00000000       0.16666667 </v>
    <v>       0.33333333       0.00000000       0.16666667 </v>
    <v>       0.50000000       0.00000000       0.16666667 </v>
    <v>       0.00000000       0.16666667       0.16666667 </v>
    <v>       0.16666667       0.16666667       0.16666667 </v>
    <v>       0.33333333       0.16666667       0.16666667 </v>
    <v>       0.50000000       0.16666667       0.16666667 </v>
    <v>       0.00000000       0.33333333       0.16666667 </v>
    <v>       0.16666667       0.33333333       0.16666667 </v>
    <v>       0.33333333       0.33333333       0.16666667 </v>
    <v>       0.50000000       0.33333333       0.16666667 </v>
    <v>       0.00000000       0.50000000       0.16666667 </v>
    <v>       0.16666667       0.50000000       0.16666667 </v>
    <v>       0.33333333       0.50000000       0.16666667 </v>
    <v>       0.50000000       0.50000000       0.16666667 </v>
    <v>       0.00000000      -0.33333333       0.16666667 </v>
    <v>       0.16666667      -0.33333333       0.16666667 </v>
    <v>       0.33333333      -0.33333333       0.16666667 </v>
    <v>       0.50000000      -0.33333333       0.16666667 </v>
    <v>       0.00000000      -0.16666667       0.16666667 </v>
    <v>       0.16666667      -0.16666667       0.16666667 </v>
    <v>       0.33333333      -0.16666667       0.16666667 </v>
    <v>       0.50000000      -0.16666667       0.16666667 </v>
    <v>       0.00000000       0.00000000       0.33333333 </v>
    <v>       0.16666667       0.00000000       0.33333333 </v>
    <v>       0.33333333       0.00000000       0.33333333 </v>
    <v>       0.50000000       0.00000000       0.33333333 </v>
    <v>       0.00000000       0.16666667       0.33333333 </v>
    <v>       0.16666667       0.16666667       0.33333333 </v>
    <v>       0.33333333       0.16666667       0.33333333 </v>
    <v>       0.50000000       0.16666667       0.33333333 </v>
    <v>       0.00000000       0.33333333       0.33333333 </v>
    <v>       0.16666667       0.33333333       0.33333333 </v>
    <v>       0.33333333       0.33333333       0.33333333 </v>
    <v>       0.50000000       0.33333333       0.33333333 </v>
    <v>       0.00000000       0.50000000       0.33333333 </v>
    <v>       0.16666667       0.50000000       0.33333333 </v>
    <v>       0.33333333       0.50000000       0.33333333 </v>
    <v>       0.50000000       0.50000000       0.33333333 </v>
    <v>       0.00000000      -0.33333333       0.33333333 </v>
    <v>       0.16666667      -0.33333333       0.33333333 </v>
    <v>       0.33333333      -0.33333333       0.33333333 </v>
    <v>       0.50000000      -0.33333333       0.33333333 </v>
    <v>       0.00000000      -0.16666667       0.33333333 </v>
    <v>       0.16666667      -0.16666667       0.33333333 </v>
    <v>       0.33333333      -0.16666667       0.33333333 </v>
    <v>       0.50000000      -0.16666667       0.33333333 </v>
    <v>       0.00000000       0.00000000       0.50000000 </v>
    <v>       0.16666667       0.00000000       0.50000000 </v>
    <v>       0.33333333       0.00000000       0.50000000 </v>
    <v>       0.50000000       0.00000000       0.50000000 </v>
    <v>       0.00000000       0.16666667       0.50000000 </v>
    <v>       0.16666667       0.16666667       0.50000000 </v>
    <v>       0.33333333       0.16666667       0.50000000 </v>
    <v>       0.50000000       0.16666667       0.50000000 </v>
    <v>       0.00000000       0.33333333       0.50000000 </v>
    <v>       0.16666667       0.33333333       0.50000000 </v>
    <v>       0.33333333       0.33333333       0.50000000 </v>
    <v>       0.50000000       0.33333333       0.50000000 </v>
    <v>       0.00000000       0.50000000       0.50000000 </v>
    <v>       0.16666667       0.50000000       0.50000000 </v>
    <v>       0.33333333       0.50000000       0.50000000 </v>
    <v>       0.50000000       0.50000000       0.50000000 </v>
   </varray>
   <varray name="weights" >
    <v>       0.00462963 </v>
    <v>       0.00925926 </v>
    <v>       0.00925926 </v>
    <v>       0.00462963 </v>
    <v>       0.00925926 </v>
    <v>       0.01851852 </v>
    <v>       0.01851852 </v>
    <v>       0.00925926 </v>
    <v>       0.00925926 </v>
    <v>       0.01851852 </v>
    <v>       0.01851852 </v>
    <v>       0.00925926 </v>
    <v>       0.00462963 </v>
    <v>       0.00925926 </v>
    <v>       0.00925926 </v>
    <v>       0.00462963 </v>
    <v>       0.00925926 </v>
    <v>       0.01851852 </v>
    <v>       0.01851852 </v>
    <v>       0.00925926 </v>
    <v>       0.00925926 </v>
    <v>       0.01851852 </v>
    <v>       0.01851852 </v>
    <v>       0.00925926 </v>
    <v>       0.00925926 </v>
    <v>       0.01851852 </v>
    <v>       0.01851852 </v>
    <v>       0.00925926 </v>
    <v>       0.00925926 </v>
    <v>       0.01851852 </v>
    <v>       0.01851852 </v>
    <v>       0.00925926 </v>
    <v>       0.00925926 </v>
    <v>       0.01851852 </v>
    <v>       0.01851852 </v>
    <v>       0.00925926 </v>
    <v>       0.00925926 </v>
    <v>       0.01851852 </v>
    <v>       0.01851852 </v>
    <v>       0.00925926 </v>
    <v>       0.00925926 </v>
    <v>       0.01851852 </v>
    <v>       0.01851852 </v>
    <v>       0.00925926 </v>
    <v>       0.00925926 </v>
    <v>       0.01851852 </v>
    <v>       0.01851852 </v>
    <v>       0.00925926 </v>
    <v>       0.00925926 </v>
    <v>       0.01851852 </v>
    <v>       0.01851852 </v>
    <v>       0.00925926 </v>
    <v>       0.00925926 </v>
    <v>       0.01851852 </v>
    <v>       0.01851852 </v>
    <v>       0.00925926 </v>
    <v>       0.00925926 </v>
    <v>       0.01851852 </v>
    <v>       0.01851852 </v>
    <v>       0.00925926 </v>
    <v>       0.00925926 </v>
    <v>       0.01851852 </v>
    <v>       0.01851852 </v>
    <v>       0.00925926 </v>
    <v>       0.00462963 </v>
    <v>       0.00925926 </v>
    <v>       0.00925926 </v>
    <v>       0.00462963 </v>
    <v>       0.00925926 </v>
    <v>       0.01851852 </v>
    <v>       0.01851852 </v>
    <v>       0.00925926 </v>
    <v>       0.00925926 </v>
    <v>       0.01851852 </v>
    <v>       0.01851852 </v>
    <v>       0.00925926 </v>
    <v>       0.00462963 </v>
    <v>       0.00925926 </v>
    <v>       0.00925926 </v>
    <v>       0.00462963 </v>
   </varray>
  </kpoints>
  <scstep>
   <time name="total">   66.35   66.36</time>
   <energy>
    <i name="e_fr_energy">   -365.44434622 </i>
    <i name="e_wo_entrp">   -365.44434622 </i>
    <i name="e_0_energy">   -365.44434622 </i>
   </energy>
  </scstep>
  <scstep>
   <time name="total">   49.28   49.28</time>
   <energy>
    <i name="e_fr_energy">   -310.64369720 </i>
    <i name="e_wo_entrp">   -310.64369720 </i>
    <i name="e_0_energy">   -310.64369720 </i>
   </energy>
  </scstep>
  <scstep>
   <time name="total">   48.99   48.99</time>
   <energy>
    <i name="e_fr_energy">   -310.24935132 </i>
    <i name="e_wo_entrp">   -310.24935132 </i>
    <i name="e_0_energy">   -310.24935132 </i>
   </energy>
  </scstep>
  <scstep>
   <time name="total">   49.64   49.64</time>
   <energy>
    <i name="e_fr_energy">   -310.93968582 </i>
    <i name="e_wo_entrp">   -310.93968582 </i>
    <i name="e_0_energy">   -310.93968582 </i>
   </energy>
  </scstep>
  <scstep>
   <time name="total">   49.70   49.70</time>
   <energy>
    <i name="e_fr_energy">   -311.15432141 </i>
    <i name="e_wo_entrp">   -311.15432141 </i>
    <i name="e_0_energy">   -311.15432141 </i>
   </energy>
  </scstep>
  <scstep>
   <time name="total">   50.53   50.53</time>
   <energy>
    <i name="e_fr_energy">   -311.11344609 </i>
    <i name="e_wo_entrp">   -311.11344609 </i>
    <i name="e_0_energy">   -311.11344609 </i>
   </energy>
  </scstep>
  <scstep>
   <time name="total">   51.11   51.11</time>
   <energy>
    <i name="e_fr_energy">   -311.09183917 </i>
    <i name="e_wo_entrp">   -311.09183917 </i>
    <i name="e_0_energy">   -311.09183917 </i>
   </energy>
  </scstep>
  <scstep>
   <time name="total">   50.92   50.92</time>
   <energy>
    <i name="e_fr_energy">   -311.09038671 </i>
    <i name="e_wo_entrp">   -311.09038671 </i>
    <i name="e_0_energy">   -311.09038671 </i>
   </energy>
  </scstep>
  <scstep>
   <time name="total">   52.27   52.27</time>
   <energy>
    <i name="e_fr_energy">   -311.08982244 </i>
    <i name="e_wo_entrp">   -311.08982244 </i>
    <i name="e_0_energy">   -311.08982244 </i>
   </energy>
  </scstep>
  <scstep>
   <time name="total">   53.37   53.37</time>
   <energy>
    <i name="e_fr_energy">   -311.09002145 </i>
    <i name="e_wo_entrp">   -311.09002145 </i>
    <i name="e_0_energy">   -311.09002145 </i>
   </energy>
  </scstep>
  <scstep>
   <time name="total">   53.85   53.85</time>
   <energy>
    <i name="e_fr_energy">   -311.09004753 </i>
    <i name="e_wo_entrp">   -311.09004753 </i>
    <i name="e_0_energy">   -311.09004753 </i>
   </energy>
  </scstep>
  <kpoints>
   <generation param="Gamma">
    <v type="int" name="divisions">       6        6        6 </v>
    <v name="usershift">      0.00000000       0.00000000       0.00000000 </v>
    <v name="genvec1">      0.16666667       0.00000000       0.00000000 </v>
    <v name="genvec2">      0.00000000       0.16666667       0.00000000 </v>
    <v name="genvec3">      0.00000000       0.00000000       0.16666667 </v>
    <v name="shift">      0.00000000       0.00000000       0.00000000 </v>
   </generation>
   <varray name="kpointlist" >
    <v>       0.00000000       0.00000000       0.00000000 </v>
    <v>       0.16666667       0.00000000       0.00000000 </v>
    <v>       0.33333333       0.00000000       0.00000000 </v>
    <v>       0.50000000       0.00000000       0.00000000 </v>
    <v>       0.16666667       0.16666667       0.00000000 </v>
    <v>       0.33333333       0.16666667       0.00000000 </v>
    <v>       0.50000000       0.16666667       0.00000000 </v>
    <v>      -0.33333333       0.16666667       0.00000000 </v>
    <v>      -0.16666667       0.16666667       0.00000000 </v>
    <v>       0.33333333       0.33333333       0.00000000 </v>
    <v>       0.50000000       0.33333333       0.00000000 </v>
    <v>      -0.33333333       0.33333333       0.00000000 </v>
    <v>       0.50000000       0.50000000       0.00000000 </v>
    <v>       0.00000000       0.00000000       0.16666667 </v>
    <v>       0.16666667       0.00000000       0.16666667 </v>
    <v>       0.33333333       0.00000000       0.16666667 </v>
    <v>       0.50000000       0.00000000       0.16666667 </v>
    <v>       0.16666667       0.16666667       0.16666667 </v>
    <v>       0.33333333       0.16666667       0.16666667 </v>
    <v>       0.50000000       0.16666667       0.16666667 </v>
    <v>      -0.33333333       0.16666667       0.16666667 </v>
    <v>      -0.16666667       0.16666667       0.16666667 </v>
    <v>       0.33333333       0.33333333       0.16666667 </v>
    <v>       0.50000000       0.33333333       0.16666667 </v>
    <v>      -0.33333333       0.33333333       0.16666667 </v>
    <v>       0.50000000       0.50000000       0.16666667 </v>
    <v>       0.00000000       0.00000000       0.33333333 </v>
    <v>       0.16666667       0.00000000       0.33333333 </v>
    <v>       0.33333333       0.00000000       0.33333333 </v>
    <v>       0.50000000       0.00000000       0.33333333 </v>
    <v>       0.16666667       0.16666667       0.33333333 </v>
    <v>       0.33333333       0.16666667       0.33333333 </v>
    <v>       0.50000000       0.16666667       0.33333333 </v>
    <v>      -0.33333333       0.16666667       0.33333333 </v>
    <v>      -0.16666667       0.16666667       0.33333333 </v>
    <v>       0.33333333       0.33333333       0.33333333 </v>
    <v>       0.50000000       0.33333333       0.33333333 </v>
    <v>      -0.33333333       0.33333333       0.33333333 </v>
    <v>       0.50000000       0.50000000       0.33333333 </v>
    <v>       0.00000000       0.00000000       0.50000000 </v>
    <v>       0.16666667       0.00000000       0.50000000 </v>
    <v>       0.33333333       0.00000000       0.50000000 </v>
    <v>       0.50000000       0.00000000       0.50000000 </v>
    <v>       0.16666667       0.16666667       0.50000000 </v>
    <v>       0.33333333       0.16666667       0.50000000 </v>
    <v>       0.50000000       0.16666667       0.50000000 </v>
    <v>      -0.33333333       0.16666667       0.50000000 </v>
    <v>      -0.16666667       0.16666667       0.50000000 </v>
    <v>       0.33333333       0.33333333       0.50000000 </v>
    <v>       0.50000000       0.33333333       0.50000000 </v>
    <v>      -0.33333333       0.33333333       0.50000000 </v>
    <v>       0.50000000       0.50000000       0.50000000 </v>
   </varray>
   <varray name="weights" >
    <v>       0.00462963 </v>
    <v>       0.01851852 </v>
    <v>       0.01851852 </v>
    <v>       0.00925926 </v>
    <v>       0.00925926 </v>
    <v>       0.01851852 </v>
    <v>       0.01851852 </v>
    <v>       0.01851852 </v>
    <v>       0.00925926 </v>
    <v>       0.00925926 </v>
    <v>       0.01851852 </v>
    <v>       0.00925926 </v>
    <v>       0.00462963 </v>
    <v>       0.00925926 </v>
    <v>       0.03703704 </v>
    <v>       0.03703704 </v>
    <v>       0.01851852 </v>
    <v>       0.01851852 </v>
    <v>       0.03703704 </v>
    <v>       0.03703704 </v>
    <v>       0.03703704 </v>
    <v>       0.01851852 </v>
    <v>       0.01851852 </v>
    <v>       0.03703704 </v>
    <v>       0.01851852 </v>
    <v>       0.00925926 </v>
    <v>       0.00925926 </v>
    <v>       0.03703704 </v>
    <v>       0.03703704 </v>
    <v>       0.01851852 </v>
    <v>       0.01851852 </v>
    <v>       0.03703704 </v>
    <v>       0.03703704 </v>
    <v>       0.03703704 </v>
    <v>       0.01851852 </v>
    <v>       0.01851852 </v>
    <v>       0.03703704 </v>
    <v>       0.01851852 </v>
    <v>       0.00925926 </v>
    <v>       0.00462963 </v>
    <v>       0.01851852 </v>
    <v>       0.01851852 </v>
    <v>       0.00925926 </v>
    <v>       0.00925926 </v>
    <v>       0.01851852 </v>
    <v>       0.01851852 </v>
    <v>       0.01851852 </v>
    <v>       0.00925926 </v>
    <v>       0.00925926 </v>
    <v>       0.01851852 </v>
    <v>       0.00925926 </v>
    <v>       0.00462963 </v>
   </varray>
  </kpoints>
  <scstep>
   <time name="total">   43.17   43.17</time>
   <energy>
    <i name="e_fr_energy">   -366.34929515 </i>
    <i name="e_wo_entrp">   -366.34929515 </i>
    <i name="e_0_energy">   -366.34929515 </i>
   </energy>
  </scstep>
  <scstep>
   <time name="total">   31.48   31.48</time>
   <energy>
    <i name="e_fr_energy">   -310.60278725 </i>
    <i name="e_wo_entrp">   -310.60278725 </i>
    <i name="e_0_energy">   -310.60278725 </i>
   </energy>
  </scstep>
  <scstep>
   <time name="total">   32.17   32.17</time>
   <energy>
    <i name="e_fr_energy">   -310.14994408 </i>
    <i name="e_wo_entrp">   -310.14994408 </i>
    <i name="e_0_energy">   -310.14994408 </i>
   </energy>
  </scstep>
  <scstep>
   <time name="total">   32.60   32.60</time>
   <energy>
    <i name="e_fr_energy">   -310.82763889 </i>
    <i name="e_wo_entrp">   -310.82763889 </i>
    <i name="e_0_energy">   -310.82763889 </i>
   </energy>
  </scstep>
  <scstep>
   <time name="total">   32.92   32.92</time>
   <energy>
    <i name="e_fr_energy">   -311.04858260 </i>
    <i name="e_wo_entrp">   -311.04858260 </i>
    <i name="e_0_energy">   -311.04858260 </i>
   </energy>
  </scstep>
  <scstep>
   <time name="total">   33.13   33.13</time>
   <energy>
    <i name="e_fr_energy">   -311.00618838 </i>
    <i name="e_wo_entrp">   -311.00618838 </i>
    <i name="e_0_energy">   -311.00618838 </i>
   </energy>
  </scstep>
  <scstep>
   <time name="total">   33.54   33.54</time>
   <energy>
    <i name="e_fr_energy">   -310.98516204 </i>
    <i name="e_wo_entrp">   -310.98516204 </i>
    <i name="e_0_energy">   -310.98516204 </i>
   </energy>
  </scstep>
  <scstep>
   <time name="total">   34.99   34.99</time>
   <energy>
    <i name="e_fr_energy">   -310.98365535 </i>
    <i name="e_wo_entrp">   -310.98365535 </i>
    <i name="e_0_energy">   -310.98365535 </i>
   </energy>
  </scstep>
  <scstep>
   <time name="total">   34.46   34.46</time>
   <energy>
    <i name="e_fr_energy">   -310.98308742 </i>
    <i name="e_wo_entrp">   -310.98308742 </i>
    <i name="e_0_energy">   -310.98308742 </i>
   </energy>
  </scstep>
  <scstep>
   <time name="total">   35.25   35.25</time>
   <energy>
    <i name="e_fr_energy">   -310.98329231 </i>
    <i name="e_wo_entrp">   -310.98329231 </i>
    <i name="e_0_energy">   -310.98329231 </i>
   </energy>
  </scstep>
  <scstep>
   <time name="total">   35.50   35.50</time>
   <energy>
    <i name="e_fr_energy">   -310.98332555 </i>
    <i name="e_wo_entrp">   -310.98332555 </i>
    <i name="e_0_energy">   -310.98332555 </i>
   </energy>
  </scstep>
  <kpoints>
   <generation param="Gamma">
    <v type="int" name="divisions">       6        6        6 </v>
    <v name="usershift">      0.00000000       0.00000000       0.00000000 </v>
    <v name="genvec1">      0.16666667       0.00000000       0.00000000 </v>
    <v name="genvec2">      0.00000000       0.16666667       0.00000000 </v>
    <v name="genvec3">      0.00000000       0.00000000       0.16666667 </v>
    <v name="shift">      0.00000000       0.00000000       0.00000000 </v>
   </generation>
   <varray name="kpointlist" >
    <v>       0.00000000       0.00000000       0.00000000 </v>
    <v>       0.16666667       0.00000000       0.00000000 </v>
    <v>       0.33333333       0.00000000       0.00000000 </v>
    <v>       0.50000000       0.00000000       0.00000000 </v>
    <v>       0.16666667       0.16666667       0.00000000 </v>
    <v>       0.33333333       0.16666667       0.00000000 </v>
    <v>       0.50000000       0.16666667       0.00000000 </v>
    <v>       0.33333333       0.33333333       0.00000000 </v>
    <v>       0.50000000       0.33333333       0.00000000 </v>
    <v>       0.50000000       0.50000000       0.00000000 </v>
    <v>       0.00000000       0.00000000       0.16666667 </v>
    <v>       0.16666667       0.00000000       0.16666667 </v>
    <v>       0.33333333       0.00000000       0.16666667 </v>
    <v>       0.50000000       0.00000000       0.16666667 </v>
    <v>       0.16666667       0.16666667       0.16666667 </v>
    <v>       0.33333333       0.16666667       0.16666667 </v>
    <v>       0.50000000       0.16666667       0.16666667 </v>
    <v>       0.33333333       0.33333333       0.16666667 </v>
    <v>       0.50000000       0.33333333       0.16666667 </v>
    <v>       0.50000000       0.50000000       0.16666667 </v>
    <v>       0.00000000       0.00000000       0.33333333 </v>
    <v>       0.16666667       0.00000000       0.33333333 </v>
    <v>       0.33333333       0.00000000       0.33333333 </v>
    <v>       0.50000000       0.00000000       0.33333333 </v>
    <v>       0.16666667       0.16666667       0.33333333 </v>
    <v>       0.33333333       0.16666667       0.33333333 </v>
    <v>       0.50000000       0.16666667       0.33333333 </v>
    <v>       0.33333333       0.33333333       0.33333333 </v>
    <v>       0.50000000       0.33333333       0.33333333 </v>
    <v>       0.50000000       0.50000000       0.33333333 </v>
    <v>       0.00000000       0.00000000       0.50000000 </v>
    <v>       0.16666667       0.00000000       0.50000000 </v>
    <v>       0.33333333       0.00000000       0.50000000 </v>
    <v>       0.50000000       0.00000000       0.50000000 </v>
    <v>       0.16666667       0.16666667       0.50000000 </v>
    <v>       0.33333333       0.16666667       0.50000000 </v>
    <v>       0.50000000       0.16666667       0.50000000 </v>
    <v>       0.33333333       0.33333333       0.50000000 </v>
    <v>       0.50000000       0.33333333       0.50000000 </v>
    <v>       0.50000000       0.50000000       0.50000000 </v>
   </varray>
   <varray name="weights" >
    <v>       0.00462963 </v>
    <v>       0.01851852 </v>
    <v>       0.01851852 </v>
    <v>       0.00925926 </v>
    <v>       0.01851852 </v>
    <v>       0.03703704 </v>
    <v>       0.01851852 </v>
    <v>       0.01851852 </v>
    <v>       0.01851852 </v>
    <v>       0.00462963 </v>
    <v>       0.00925926 </v>
    <v>       0.03703704 </v>
    <v>       0.03703704 </v>
    <v>       0.01851852 </v>
    <v>       0.03703704 </v>
    <v>       0.07407407 </v>
    <v>       0.03703704 </v>
    <v>       0.03703704 </v>
    <v>       0.03703704 </v>
    <v>       0.00925926 </v>
    <v>       0.00925926 </v>
    <v>       0.03703704 </v>
    <v>       0.03703704 </v>
    <v>       0.01851852 </v>
    <v>       0.03703704 </v>
    <v>       0.07407407 </v>
    <v>       0.03703704 </v>
    <v>       0.03703704 </v>
    <v>       0.03703704 </v>
    <v>       0.00925926 </v>
    <v>       0.00462963 </v>
    <v>       0.01851852 </v>
    <v>       0.01851852 </v>
    <v>       0.00925926 </v>
    <v>       0.01851852 </v>
    <v>       0.03703704 </v>
    <v>       0.01851852 </v>
    <v>       0.01851852 </v>
    <v>       0.01851852 </v>
    <v>       0.00462963 </v>
   </varray>
  </kpoints>
  <dynmat>
   <varray name="hessian" >
    <v>      -3.72075338       0.00000000      -0.00000000       0.01374496      -0.00000000       0.00000000       0.00785888       0.00000000      -0.00000000       0.01024700       0.00000000      -0.00000000       0.00824137       0.00000000       0.00000000       0.00982882      -0.00000000      -0.00000000      -0.04800685       0.00000000       0.00000000       0.00441182       0.00000000       0.00000000      -0.01326176      -0.00767349       0.00212097       0.00785570      -0.00991137      -0.01820668       0.77101749      -0.18162315      -0.18504204      -0.00515784      -0.00767349      -0.00756493       0.02907455      -0.01804576      -0.01826984      -0.00281298      -0.00249181      -0.00262776      -0.01336881       0.00278995      -0.00834998       0.00684405      -0.01804576      -0.00857218      -0.11690390       0.06103071      -0.05984871      -0.00507233       0.00317023      -0.00322178      -0.11690390       0.06103071       0.05984871      -0.00507233       0.00317023       0.00322178      -0.11690390      -0.06103071      -0.05984871      -0.00507233      -0.00317023      -0.00322178      -0.11690390      -0.06103071       0.05984871      -0.00507233      -0.00317023       0.00322178       0.77101749       0.18162315       0.18504204      -0.00515784       0.00767349       0.00756493      -0.01326176       0.00767349      -0.00212097       0.00785570       0.00991137       0.01820668      -0.01336881      -0.00278995       0.00834998       0.00684405       0.01804576       0.00857218       0.02907455       0.01804576       0.01826984      -0.00281298       0.00249181       0.00262776       0.12648098      -0.06103071       0.13164259       0.12648098      -0.06103071      -0.13164259       0.00700972      -0.00317023      -0.00626707       0.00700972      -0.00317023       0.00626707       0.12648098       0.06103071      -0.13164259       0.12648098       0.06103071       0.13164259       0.00700972       0.00317023       0.00626707       0.00700972       0.00317023      -0.00626707      -0.01326176       0.00767349       0.00212097       0.00785570       0.00991137      -0.01820668       0.77101749       0.18162315      -0.18504204      -0.00515784       0.00767349      -0.00756493       0.02907455       0.01804576      -0.01826984      -0.00281298       0.00249181      -0.00262776      -0.01336881      -0.00278995      -0.00834998       0.00684405       0.01804576      -0.00857218       0.12999318      -0.13640663       0.06045292       0.12999318       0.13640663       0.06045292       0.12999318       0.13640663      -0.06045292       0.12999318      -0.13640663      -0.06045292       0.00690880       0.00605703       0.00327667       0.00690880      -0.00605703       0.00327667       0.00690880      -0.00605703      -0.00327667       0.00690880       0.00605703      -0.00327667       0.77101749      -0.18162315       0.18504204      -0.00515784      -0.00767349       0.00756493      -0.01326176      -0.00767349      -0.00212097       0.00785570      -0.00991137       0.01820668      -0.01336881       0.00278995       0.00834998       0.00684405      -0.01804576       0.00857218       0.02907455      -0.01804576       0.01826984      -0.00281298      -0.00249181       0.00262776 </v>
    <v>       0.00000000      -3.72075338       0.00000000      -0.00000000       0.00785888       0.00000000       0.00000000       0.01374496       0.00000000       0.00000000       0.01024700      -0.00000000       0.00000000       0.00824137       0.00000000      -0.00000000      -0.04800685       0.00000000       0.00000000       0.00982882       0.00000000       0.00000000       0.00441182      -0.00000000      -0.00767349      -0.00515784       0.00756493      -0.00991137       0.00785570       0.01820668      -0.18162315       0.77101749       0.18504204      -0.00767349      -0.01326176      -0.00212097      -0.01804576       0.00684405       0.00857218      -0.00249181      -0.00281298       0.00262776       0.00278995      -0.01336881       0.00834998      -0.01804576       0.02907455       0.01826984      -0.06103071       0.12648098      -0.13164259      -0.00317023       0.00700972       0.00626707      -0.06103071       0.12648098       0.13164259      -0.00317023       0.00700972      -0.00626707       0.06103071       0.12648098       0.13164259       0.00317023       0.00700972      -0.00626707       0.06103071       0.12648098      -0.13164259       0.00317023       0.00700972       0.00626707       0.18162315       0.77101749       0.18504204       0.00767349      -0.01326176      -0.00212097       0.00767349      -0.00515784       0.00756493       0.00991137       0.00785570       0.01820668      -0.00278995      -0.01336881       0.00834998       0.01804576       0.02907455       0.01826984       0.01804576       0.00684405       0.00857218       0.00249181      -0.00281298       0.00262776       0.06103071      -0.11690390       0.05984871       0.06103071      -0.11690390      -0.05984871       0.00317023      -0.00507233       0.00322178       0.00317023      -0.00507233      -0.00322178      -0.06103071      -0.11690390       0.05984871      -0.06103071      -0.11690390      -0.05984871      -0.00317023      -0.00507233       0.00322178      -0.00317023      -0.00507233      -0.00322178       0.00767349      -0.00515784      -0.00756493       0.00991137       0.00785570      -0.01820668       0.18162315       0.77101749      -0.18504204       0.00767349      -0.01326176       0.00212097       0.01804576       0.00684405      -0.00857218       0.00249181      -0.00281298      -0.00262776      -0.00278995      -0.01336881      -0.00834998       0.01804576       0.02907455      -0.01826984      -0.13640663       0.12999318      -0.06045292       0.13640663       0.12999318       0.06045292       0.13640663       0.12999318      -0.06045292      -0.13640663       0.12999318       0.06045292       0.00605703       0.00690880      -0.00327667      -0.00605703       0.00690880       0.00327667      -0.00605703       0.00690880      -0.00327667       0.00605703       0.00690880       0.00327667      -0.18162315       0.77101749      -0.18504204      -0.00767349      -0.01326176       0.00212097      -0.00767349      -0.00515784      -0.00756493      -0.00991137       0.00785570      -0.01820668       0.00278995      -0.01336881      -0.00834998      -0.01804576       0.02907455      -0.01826984      -0.01804576       0.00684405      -0.00857218      -0.00249181      -0.00281298      -0.00262776 </v>
    <v>      -0.00000000       0.00000000      -3.69131828       0.00000000       0.00000000       0.00738322      -0.00000000       0.00000000       0.00738322      -0.00000000      -0.00000000      -0.04716753       0.00000000       0.00000000       0.01410980      -0.00000000       0.00000000       0.00967870       0.00000000       0.00000000       0.00967870       0.00000000      -0.00000000       0.00430634       0.00212097       0.00756493      -0.01276419      -0.01820668       0.01820668       0.02835748      -0.18504204       0.18504204       0.76490415      -0.00756493      -0.00212097      -0.01276419      -0.01826984       0.00857218       0.00655895      -0.00262776       0.00262776      -0.00278151      -0.00834998       0.00834998      -0.00623313      -0.00857218       0.01826984       0.00655895       0.05984871      -0.13164259       0.12784564       0.00322178       0.00626707       0.00705911      -0.05984871       0.13164259       0.12784564      -0.00322178      -0.00626707       0.00705911       0.05984871       0.13164259       0.12784564       0.00322178      -0.00626707       0.00705911      -0.05984871      -0.13164259       0.12784564      -0.00322178       0.00626707       0.00705911       0.18504204       0.18504204       0.76490415       0.00756493      -0.00212097      -0.01276419      -0.00212097       0.00756493      -0.01276419       0.01820668       0.01820668       0.02835748       0.00834998       0.00834998      -0.00623313       0.00857218       0.01826984       0.00655895       0.01826984       0.00857218       0.00655895       0.00262776       0.00262776      -0.00278151       0.13164259      -0.05984871       0.12784564      -0.13164259       0.05984871       0.12784564      -0.00626707      -0.00322178       0.00705911       0.00626707       0.00322178       0.00705911      -0.13164259      -0.05984871       0.12784564       0.13164259       0.05984871       0.12784564       0.00626707      -0.00322178       0.00705911      -0.00626707       0.00322178       0.00705911       0.00212097      -0.00756493      -0.01276419      -0.01820668      -0.01820668       0.02835748      -0.18504204      -0.18504204       0.76490415      -0.00756493       0.00212097      -0.01276419      -0.01826984      -0.00857218       0.00655895      -0.00262776      -0.00262776      -0.00278151      -0.00834998      -0.00834998      -0.00623313      -0.00857218      -0.01826984       0.00655895      -0.06045292       0.06045292      -0.11556597      -0.06045292      -0.06045292      -0.11556597       0.06045292       0.06045292      -0.11556597       0.06045292      -0.06045292      -0.11556597      -0.00327667       0.00327667      -0.00459359      -0.00327667      -0.00327667      -0.00459359       0.00327667       0.00327667      -0.00459359       0.00327667      -0.00327667      -0.00459359       0.18504204      -0.18504204       0.76490415       0.00756493       0.00212097      -0.01276419      -0.00212097      -0.00756493      -0.01276419       0.01820668      -0.01820668       0.02835748       0.00834998      -0.00834998      -0.00623313       0.00857218      -0.01826984       0.00655895       0.01826984      -0.00857218       0.00655895       0.00262776      -0.00262776      -0.00278151 </v>
    <v>       0.01374496      -0.00000000       0.00000000      -3.72075338       0.00000000      -0.00000000       0.01024700       0.00000000      -0.00000000       0.00785888       0.00000000      -0.00000000       0.00982882      -0.00000000      -0.00000000       0.00824137       0.00000000       0.00000000       0.00441182       0.00000000       0.00000000      -0.04800685       0.00000000       0.00000000       0.00785570      -0.00991137      -0.01820668      -0.01326176      -0.00767349       0.00212097      -0.00515784      -0.00767349      -0.00756493       0.77101749      -0.18162315      -0.18504204      -0.00281298      -0.00249181      -0.00262776       0.02907455      -0.01804576      -0.01826984       0.00684405      -0.01804576      -0.00857218      -0.01336881       0.00278995      -0.00834998      -0.00507233       0.00317023      -0.00322178      -0.11690390       0.06103071      -0.05984871      -0.00507233       0.00317023       0.00322178      -0.11690390       0.06103071       0.05984871      -0.00507233      -0.00317023      -0.00322178      -0.11690390      -0.06103071      -0.05984871      -0.00507233      -0.00317023       0.00322178      -0.11690390      -0.06103071       0.05984871      -0.00515784       0.00767349       0.00756493       0.77101749       0.18162315       0.18504204       0.00785570       0.00991137       0.01820668      -0.01326176       0.00767349      -0.00212097       0.00684405       0.01804576       0.00857218      -0.01336881      -0.00278995       0.00834998      -0.00281298       0.00249181       0.00262776       0.02907455       0.01804576       0.01826984       0.12648098      -0.06103071      -0.13164259       0.12648098      -0.06103071       0.13164259       0.00700972      -0.00317023       0.00626707       0.00700972      -0.00317023      -0.00626707       0.12648098       0.06103071       0.13164259       0.12648098       0.06103071      -0.13164259       0.00700972       0.00317023      -0.00626707       0.00700972       0.00317023       0.00626707       0.00785570       0.00991137      -0.01820668      -0.01326176       0.00767349       0.00212097      -0.00515784       0.00767349      -0.00756493       0.77101749       0.18162315      -0.18504204      -0.00281298       0.00249181      -0.00262776       0.02907455       0.01804576      -0.01826984       0.00684405       0.01804576      -0.00857218      -0.01336881      -0.00278995      -0.00834998       0.12999318       0.13640663       0.06045292       0.12999318      -0.13640663       0.06045292       0.12999318      -0.13640663      -0.06045292       0.12999318       0.13640663      -0.06045292       0.00690880      -0.00605703       0.00327667       0.00690880       0.00605703       0.00327667       0.00690880       0.00605703      -0.00327667       0.00690880      -0.00605703      -0.00327667      -0.00515784      -0.00767349       0.00756493       0.77101749      -0.18162315       0.18504204       0.00785570      -0.00991137       0.01820668      -0.01326176      -0.00767349      -0.00212097       0.00684405      -0.01804576       0.00857218      -0.01336881       0.00278995       0.00834998      -0.00281298      -0.00249181       0.00262776       0.02907455      -0.01804576       0.01826984 </v>
[...]
      </set>
     </set>
    </set>
   </array>
  </eigenvalues>
  <separator name="orbital magnetization" >
   <v name="MAGDIPOLOUT">      0.00000000      0.00000000      0.00000000</v>
  </separator>
  <dos>
   <i name="efermi">     10.15020659 </i>
   <total>
    <array>
     <dimension dim="1">gridpoints</dimension>
     <dimension dim="2">spin</dimension>
     <field>energy</field>
     <field>total</field>
     <field>integrated</field>
     <set>
      <set comment="spin 1">
       <r>   -13.3830     0.0000     0.0000 </r>
       <r>   -13.2611     0.0000     0.0000 </r>
       <r>   -13.1392     0.0000     0.0000 </r>
       <r>   -13.0173     0.0000     0.0000 </r>
       <r>   -12.8954     0.0000     0.0000 </r>
       <r>   -12.7735     0.0000     0.0000 </r>
       <r>   -12.6516     0.0000     0.0000 </r>
       <r>   -12.5297     0.0000     0.0000 </r>
       <r>   -12.4078     0.0000     0.0000 </r>
       <r>   -12.2860     0.0000     0.0000 </r>
       <r>   -12.1641     0.0000     0.0000 </r>
       <r>   -12.0422     0.0000     0.0000 </r>
       <r>   -11.9203     0.0000     0.0000 </r>
       <r>   -11.7984     0.0028     0.0003 </r>
       <r>   -11.6765     0.2297     0.0283 </r>
       <r>   -11.5546     1.2088     0.1757 </r>
       <r>   -11.4327     1.3816     0.3441 </r>
       <r>   -11.3108     2.8065     0.6862 </r>
       <r>   -11.1889     1.4917     0.8680 </r>
       <r>   -11.0670     3.5088     1.2957 </r>
       <r>   -10.9451     2.8130     1.6386 </r>
       <r>   -10.8232     3.7928     2.1009 </r>
       <r>   -10.7013     2.2726     2.3780 </r>
       <r>   -10.5794     4.5757     2.9357 </r>
       <r>   -10.4575     4.2769     3.4570 </r>
       <r>   -10.3356     4.9489     4.0603 </r>
       <r>   -10.2138     2.3302     4.3443 </r>
       <r>   -10.0919     4.5956     4.9045 </r>
       <r>    -9.9700     6.2466     5.6659 </r>
       <r>    -9.8481     5.4760     6.3334 </r>
       <r>    -9.7262     4.3203     6.8600 </r>
       <r>    -9.6043     4.0141     7.3493 </r>
       <r>    -9.4824     6.7908     8.1771 </r>
       <r>    -9.3605     5.0261     8.7898 </r>
       <r>    -9.2386     5.4978     9.4599 </r>
       <r>    -9.1167     6.5080    10.2532 </r>
       <r>    -8.9948     7.3887    11.1538 </r>
       <r>    -8.8729     5.9346    11.8772 </r>
       <r>    -8.7510     5.4628    12.5431 </r>
       <r>    -8.6291     3.7231    12.9969 </r>
       <r>    -8.5072     9.1210    14.1087 </r>
       <r>    -8.3853     7.3288    15.0021 </r>
       <r>    -8.2634     9.0709    16.1078 </r>
       <r>    -8.1415     5.9525    16.8333 </r>
       <r>    -8.0197     6.1684    17.5852 </r>
       <r>    -7.8978     7.0208    18.4410 </r>
       <r>    -7.7759     8.0018    19.4164 </r>
       <r>    -7.6540     6.1248    20.1630 </r>
       <r>    -7.5321    10.5853    21.4533 </r>
       <r>    -7.4102     8.8901    22.5369 </r>
       <r>    -7.2883     6.7350    23.3579 </r>
       <r>    -7.1664     6.6034    24.1628 </r>
       <r>    -7.0445    12.6206    25.7012 </r>
       <r>    -6.9226     9.0897    26.8091 </r>
       <r>    -6.8007     5.1663    27.4389 </r>
       <r>    -6.6788     8.5210    28.4775 </r>
       <r>    -6.5569     9.7730    29.6688 </r>
       <r>    -6.4350    10.7067    30.9739 </r>
       <r>    -6.3131    11.0034    32.3152 </r>
       <r>    -6.1912    12.1065    33.7909 </r>
       <r>    -6.0693    11.3711    35.1769 </r>
       <r>    -5.9475     9.5210    36.3375 </r>
       <r>    -5.8256    10.2798    37.5905 </r>
       <r>    -5.7037     9.5181    38.7507 </r>
       <r>    -5.5818    15.5702    40.6487 </r>
       <r>    -5.4599    12.3081    42.1489 </r>
       <r>    -5.3380    10.4261    43.4198 </r>
       <r>    -5.2161     9.4972    44.5775 </r>
       <r>    -5.0942    12.2434    46.0699 </r>
       <r>    -4.9723    12.6497    47.6118 </r>
       <r>    -4.8504     8.9806    48.7065 </r>
       <r>    -4.7285     8.8910    49.7903 </r>
       <r>    -4.6066    10.1061    51.0221 </r>
       <r>    -4.4847     8.4728    52.0549 </r>
       <r>    -4.3628     4.8587    52.6472 </r>
       <r>    -4.2409    11.6364    54.0656 </r>
       <r>    -4.1190    10.7948    55.3814 </r>
       <r>    -3.9971     4.5095    55.9311 </r>
       <r>    -3.8753     7.8853    56.8922 </r>
       <r>    -3.7534    10.9522    58.2273 </r>
       <r>    -3.6315     9.2627    59.3563 </r>
       <r>    -3.5096     8.6040    60.4051 </r>
       <r>    -3.3877     3.9291    60.8841 </r>
       <r>    -3.2658     7.1118    61.7509 </r>
       <r>    -3.1439     8.2257    62.7536 </r>
       <r>    -3.0220     6.7740    63.5793 </r>
       <r>    -2.9001     7.8472    64.5358 </r>
       <r>    -2.7782    13.7479    66.2116 </r>
       <r>    -2.6563    11.4091    67.6023 </r>
       <r>    -2.5344     9.2191    68.7261 </r>
       <r>    -2.4125     5.9987    69.4573 </r>
       <r>    -2.2906    10.5614    70.7447 </r>
       <r>    -2.1687    13.2734    72.3626 </r>
       <r>    -2.0468     7.9498    73.3317 </r>
       <r>    -1.9249    10.9035    74.6607 </r>
       <r>    -1.8030    13.1214    76.2602 </r>
       <r>    -1.6812    21.6116    78.8945 </r>
       <r>    -1.5593    23.1935    81.7216 </r>
       <r>    -1.4374    24.7101    84.7337 </r>
       <r>    -1.3155    18.1006    86.9400 </r>
       <r>    -1.1936    11.6229    88.3568 </r>
       <r>    -1.0717    11.7903    89.7939 </r>
       <r>    -0.9498     6.6996    90.6106 </r>
       <r>    -0.8279    10.1190    91.8440 </r>
       <r>    -0.7060    12.5333    93.3718 </r>
       <r>    -0.5841    10.1195    94.6053 </r>
       <r>    -0.4622     6.8839    95.4444 </r>
       <r>    -0.3403    12.2859    96.9420 </r>
       <r>    -0.2184    14.7271    98.7371 </r>
       <r>    -0.0965    14.0658   100.4516 </r>
       <r>     0.0254     7.7724   101.3991 </r>
       <r>     0.1473     3.3661   101.8094 </r>
       <r>     0.2692     2.0494   102.0592 </r>
       <r>     0.3910    11.8534   103.5040 </r>
       <r>     0.5129    16.9875   105.5747 </r>
       <r>     0.6348     8.1511   106.5683 </r>
       <r>     0.7567     7.6460   107.5003 </r>
       <r>     0.8786    11.5422   108.9072 </r>
       <r>     1.0005    21.0513   111.4733 </r>
       <r>     1.1224    23.0194   114.2792 </r>
       <r>     1.2443    19.6610   116.6758 </r>
       <r>     1.3662    10.9899   118.0154 </r>
       <r>     1.4881    10.5175   119.2974 </r>
       <r>     1.6100    14.2735   121.0372 </r>
       <r>     1.7319    13.8454   122.7249 </r>
       <r>     1.8538    27.5088   126.0781 </r>
       <r>     1.9757    20.2810   128.5502 </r>
       <r>     2.0976     9.3780   129.6933 </r>
       <r>     2.2195    13.3229   131.3173 </r>
       <r>     2.3414    16.5096   133.3297 </r>
       <r>     2.4633    20.8097   135.8663 </r>
       <r>     2.5851    22.2884   138.5831 </r>
       <r>     2.7070    17.6241   140.7314 </r>
       <r>     2.8289    14.3021   142.4748 </r>
       <r>     2.9508    18.6383   144.7467 </r>
       <r>     3.0727    20.4929   147.2446 </r>
       <r>     3.1946    18.0167   149.4408 </r>
       <r>     3.3165    23.7369   152.3341 </r>
       <r>     3.4384    28.4765   155.8053 </r>
       <r>     3.5603    27.7755   159.1909 </r>
       <r>     3.6822    21.5787   161.8212 </r>
       <r>     3.8041    16.7594   163.8641 </r>
       <r>     3.9260    23.0928   166.6790 </r>
       <r>     4.0479    25.4521   169.7815 </r>
       <r>     4.1698    33.2504   173.8345 </r>
       <r>     4.2917    30.9109   177.6024 </r>
       <r>     4.4136    17.6676   179.7560 </r>
       <r>     4.5355    21.1795   182.3376 </r>
       <r>     4.6573    23.2321   185.1695 </r>
       <r>     4.7792    21.8330   187.8308 </r>
       <r>     4.9011    19.6573   190.2269 </r>
       <r>     5.0230    24.8050   193.2505 </r>
       <r>     5.1449    30.1964   196.9313 </r>
       <r>     5.2668    22.1969   199.6370 </r>
       <r>     5.3887    19.1766   201.9745 </r>
       <r>     5.5106    23.4236   204.8297 </r>
       <r>     5.6325    17.5284   206.9663 </r>
       <r>     5.7544    26.5770   210.2059 </r>
       <r>     5.8763    19.7041   212.6077 </r>
       <r>     5.9982    15.6223   214.5119 </r>
       <r>     6.1201    24.9625   217.5547 </r>
       <r>     6.2420    24.0288   220.4837 </r>
       <r>     6.3639    21.6416   223.1217 </r>
       <r>     6.4858    22.3788   225.8495 </r>
       <r>     6.6077    17.9255   228.0345 </r>
       <r>     6.7295    14.6110   229.8155 </r>
       <r>     6.8514    16.3216   231.8051 </r>
       <r>     6.9733    24.3141   234.7688 </r>
       <r>     7.0952    25.4915   237.8761 </r>
       <r>     7.2171    14.1944   239.6063 </r>
       <r>     7.3390     7.1621   240.4793 </r>
       <r>     7.4609    11.0072   241.8210 </r>
       <r>     7.5828    13.5448   243.4720 </r>
       <r>     7.7047     9.7109   244.6558 </r>
       <r>     7.8266    14.0903   246.3733 </r>
       <r>     7.9485     8.1344   247.3648 </r>
       <r>     8.0704     7.8281   248.3190 </r>
       <r>     8.1923     7.2461   249.2023 </r>
       <r>     8.3142     6.4778   249.9919 </r>
       <r>     8.4361     7.4826   250.9040 </r>
       <r>     8.5580     7.6405   251.8353 </r>
       <r>     8.6799     4.5388   252.3885 </r>
       <r>     8.8018     3.9766   252.8733 </r>
       <r>     8.9236     6.7290   253.6935 </r>
       <r>     9.0455     4.7163   254.2684 </r>
       <r>     9.1674     2.7120   254.5990 </r>
       <r>     9.2893     2.5312   254.9075 </r>
       <r>     9.4112     3.4546   255.3286 </r>
       <r>     9.5331     3.0148   255.6961 </r>
       <r>     9.6550     1.2387   255.8471 </r>
       <r>     9.7769     0.9707   255.9654 </r>
       <r>     9.8988     0.2699   255.9983 </r>
       <r>    10.0207     0.0140   256.0000 </r>
       <r>    10.1426     0.0000   256.0000 </r>
       <r>    10.2645     0.0000   256.0000 </r>
       <r>    10.3864     0.0000   256.0000 </r>
       <r>    10.5083     0.0000   256.0000 </r>
       <r>    10.6302     0.0000   256.0000 </r>
       <r>    10.7521     0.0000   256.0000 </r>
       <r>    10.8740     0.0000   256.0000 </r>
       <r>    10.9958     0.0000   256.0000 </r>
       <r>    11.1177     0.0000   256.0000 </r>
       <r>    11.2396     0.0000   256.0000 </r>
       <r>    11.3615     0.0000   256.0000 </r>
       <r>    11.4834     0.0000   256.0000 </r>
       <r>    11.6053     0.0000   256.0000 </r>
       <r>    11.7272     0.0000   256.0000 </r>
       <r>    11.8491     0.0000   256.0000 </r>
       <r>    11.9710     0.0000   256.0000 </r>
       <r>    12.0929     0.0000   256.0000 </r>
       <r>    12.2148     0.0000   256.0000 </r>
       <r>    12.3367     0.0000   256.0000 </r>
       <r>    12.4586     0.0000   256.0000 </r>
       <r>    12.5805     0.0000   256.0000 </r>
       <r>    12.7024     0.0000   256.0000 </r>
       <r>    12.8243     0.0000   256.0000 </r>
       <r>    12.9462     0.0000   256.0000 </r>
       <r>    13.0681     0.0000   256.0000 </r>
       <r>    13.1899     0.0000   256.0000 </r>
       <r>    13.3118     0.0000   256.0000 </r>
       <r>    13.4337     0.0000   256.0000 </r>
       <r>    13.5556     0.0000   256.0000 </r>
       <r>    13.6775     0.0001   256.0000 </r>
       <r>    13.7994     0.1222   256.0149 </r>
       <r>    13.9213     0.7156   256.1021 </r>
       <r>    14.0432     0.5910   256.1742 </r>
       <r>    14.1651     3.2786   256.5738 </r>
       <r>    14.2870     3.2113   256.9653 </r>
       <r>    14.4089     6.2424   257.7262 </r>
       <r>    14.5308     5.3471   258.3779 </r>
       <r>    14.6527     4.3530   258.9085 </r>
       <r>    14.7746     4.4703   259.4534 </r>
       <r>    14.8965     9.8830   260.6581 </r>
       <r>    15.0184    13.2039   262.2676 </r>
       <r>    15.1403    10.4839   263.5455 </r>
       <r>    15.2621    12.1890   265.0313 </r>
       <r>    15.3840    11.5928   266.4444 </r>
       <r>    15.5059    12.4522   267.9623 </r>
       <r>    15.6278    12.0588   269.4322 </r>
       <r>    15.7497    12.8083   270.9934 </r>
       <r>    15.8716    18.0032   273.1879 </r>
       <r>    15.9935    15.1890   275.0393 </r>
       <r>    16.1154    20.2134   277.5032 </r>
       <r>    16.2373    16.1797   279.4754 </r>
       <r>    16.3592    17.1223   281.5626 </r>
       <r>    16.4811    15.0768   283.4003 </r>
       <r>    16.6030    22.2460   286.1120 </r>
       <r>    16.7249    22.2760   288.8273 </r>
       <r>    16.8468    18.7297   291.1104 </r>
       <r>    16.9687    19.0473   293.4321 </r>
       <r>    17.0906    23.8112   296.3346 </r>
       <r>    17.2125    15.5561   298.2308 </r>
       <r>    17.3343    18.0273   300.4282 </r>
       <r>    17.4562    20.9143   302.9775 </r>
       <r>    17.5781    37.5869   307.5591 </r>
       <r>    17.7000    38.5899   312.2630 </r>
       <r>    17.8219    34.3025   316.4443 </r>
       <r>    17.9438    26.5333   319.6786 </r>
       <r>    18.0657    25.6326   322.8030 </r>
       <r>    18.1876    29.1942   326.3616 </r>
       <r>    18.3095    28.1090   329.7880 </r>
       <r>    18.4314    33.8988   333.9200 </r>
       <r>    18.5533    33.5752   338.0127 </r>
       <r>    18.6752    34.1080   342.1702 </r>
       <r>    18.7971    31.8296   346.0501 </r>
       <r>    18.9190    32.1301   349.9666 </r>
       <r>    19.0409    32.7008   353.9526 </r>
       <r>    19.1628    25.3277   357.0399 </r>
       <r>    19.2847    22.1144   359.7355 </r>
       <r>    19.4066    25.4950   362.8432 </r>
       <r>    19.5284    24.0754   365.7779 </r>
       <r>    19.6503    22.3626   368.5037 </r>
       <r>    19.7722    30.3161   372.1991 </r>
       <r>    19.8941    27.6648   375.5713 </r>
       <r>    20.0160    18.4293   377.8177 </r>
       <r>    20.1379    15.9465   379.7615 </r>
       <r>    20.2598     9.2687   380.8913 </r>
       <r>    20.3817     4.2767   381.4126 </r>
       <r>    20.5036     5.7842   382.1176 </r>
       <r>    20.6255     4.7258   382.6937 </r>
       <r>    20.7474     3.4124   383.1096 </r>
       <r>    20.8693     2.7597   383.4460 </r>
       <r>    20.9912     0.5582   383.5141 </r>
       <r>    21.1131     1.1692   383.6566 </r>
       <r>    21.2350     0.9187   383.7686 </r>
       <r>    21.3569     0.5573   383.8365 </r>
       <r>    21.4788     0.5329   383.9015 </r>
       <r>    21.6006     0.7926   383.9981 </r>
       <r>    21.7225     0.0158   384.0000 </r>
       <r>    21.8444     0.0000   384.0000 </r>
       <r>    21.9663     0.0000   384.0000 </r>
       <r>    22.0882     0.0000   384.0000 </r>
       <r>    22.2101     0.0000   384.0000 </r>
       <r>    22.3320     0.0000   384.0000 </r>
       <r>    22.4539     0.0000   384.0000 </r>
       <r>    22.5758     0.0000   384.0000 </r>
       <r>    22.6977     0.0000   384.0000 </r>
       <r>    22.8196     0.0000   384.0000 </r>
       <r>    22.9415     0.0000   384.0000 </r>
       <r>    23.0634     0.0000   384.0000 </r>
       <r>    23.1853     0.0000   384.0000 </r>
      </set>
     </set>
    </array>
   </total>
  </dos>
 </calculation>
 <structure name="finalpos" >
  <crystal>
   <varray name="basis" >
    <v>       7.10783528       0.00000000       0.00000000 </v>
    <v>       0.00000000       7.10783528       0.00000000 </v>
    <v>       0.00000000       0.00000000       7.17999872 </v>
   </varray>
   <i name="volume">    362.74302999 </i>
   <varray name="rec_basis" >
    <v>       0.14068981       0.00000000       0.00000000 </v>
    <v>       0.00000000       0.14068981       0.00000000 </v>
    <v>       0.00000000       0.00000000       0.13927579 </v>
   </varray>
  </crystal>
  <varray name="positions" >
   <v>       0.12500000       0.37500000       0.12500000 </v>
   <v>       0.62500000       0.37500000       0.12500000 </v>
   <v>       0.12500000       0.87500000       0.12500000 </v>
   <v>       0.62500000       0.87500000       0.12500000 </v>
   <v>       0.12500000       0.37500000       0.62500000 </v>
   <v>       0.62500000       0.37500000       0.62500000 </v>
   <v>       0.12500000       0.87500000       0.62500000 </v>
   <v>       0.62500000       0.87500000       0.62500000 </v>
   <v>       0.00000000       0.00000000       0.25000000 </v>
   <v>       0.50000000       0.00000000       0.25000000 </v>
   <v>       0.00000000       0.50000000       0.25000000 </v>
   <v>       0.50000000       0.50000000       0.25000000 </v>
   <v>       0.00000000       0.00000000       0.75000000 </v>
   <v>       0.50000000       0.00000000       0.75000000 </v>
   <v>       0.00000000       0.50000000       0.75000000 </v>
   <v>       0.50000000       0.50000000       0.75000000 </v>
   <v>       0.12500000       0.12500000       0.37500000 </v>
   <v>       0.62500000       0.12500000       0.37500000 </v>
   <v>       0.12500000       0.62500000       0.37500000 </v>
   <v>       0.62500000       0.62500000       0.37500000 </v>
   <v>       0.12500000       0.12500000       0.87500000 </v>
   <v>       0.62500000       0.12500000       0.87500000 </v>
   <v>       0.12500000       0.62500000       0.87500000 </v>
   <v>       0.62500000       0.62500000       0.87500000 </v>
   <v>       0.00000000       0.25000000       0.00000000 </v>
   <v>       0.50000000       0.25000000       0.00000000 </v>
   <v>       0.00000000       0.75000000       0.00000000 </v>
   <v>       0.50000000       0.75000000       0.00000000 </v>
   <v>       0.00000000       0.25000000       0.50000000 </v>
   <v>       0.50000000       0.25000000       0.50000000 </v>
   <v>       0.00000000       0.75000000       0.50000000 </v>
   <v>       0.50000000       0.75000000       0.50000000 </v>
   <v>       0.37500000       0.37500000       0.37500000 </v>
   <v>       0.87500000       0.37500000       0.37500000 </v>
   <v>       0.37500000       0.87500000       0.37500000 </v>
   <v>       0.87500000       0.87500000       0.37500000 </v>
   <v>       0.37500000       0.37500000       0.87500000 </v>
   <v>       0.87500000       0.37500000       0.87500000 </v>
   <v>       0.37500000       0.87500000       0.87500000 </v>
   <v>       0.87500000       0.87500000       0.87500000 </v>
   <v>       0.25000000       0.00000000       0.00000000 </v>
   <v>       0.75000000       0.00000000       0.00000000 </v>
   <v>       0.25000000       0.50000000       0.00000000 </v>
   <v>       0.75000000       0.50000000       0.00000000 </v>
   <v>       0.25000000       0.00000000       0.50000000 </v>
   <v>       0.75000000       0.00000000       0.50000000 </v>
   <v>       0.25000000       0.50000000       0.50000000 </v>
   <v>       0.75000000       0.50000000       0.50000000 </v>
   <v>       0.37500000       0.12500000       0.12500000 </v>
   <v>       0.87500000       0.12500000       0.12500000 </v>
   <v>       0.37500000       0.62500000       0.12500000 </v>
   <v>       0.87500000       0.62500000       0.12500000 </v>
   <v>       0.37500000       0.12500000       0.62500000 </v>
   <v>       0.87500000       0.12500000       0.62500000 </v>
   <v>       0.37500000       0.62500000       0.62500000 </v>
   <v>       0.87500000       0.62500000       0.62500000 </v>
   <v>       0.25000000       0.25000000       0.25000000 </v>
   <v>       0.75000000       0.25000000       0.25000000 </v>
   <v>       0.25000000       0.75000000       0.25000000 </v>
   <v>       0.75000000       0.75000000       0.25000000 </v>
   <v>       0.25000000       0.25000000       0.75000000 </v>
   <v>       0.75000000       0.25000000       0.75000000 </v>
   <v>       0.25000000       0.75000000       0.75000000 </v>
   <v>       0.75000000       0.75000000       0.75000000 </v>
  </varray>
 </structure>
</modeling>
