   8   8   0   0
  0.5103578E+01  0.3443406E-09  0.3443406E-09  0.3443406E-09  0.2000000E-16
  1.000000000000000E-004
  CAR 
 unknown system                          
     25.87498915    -13.38610466  301     11.36474323      1.00000000
    -13.386  0.0000E+00  0.0000E+00
    -13.255  0.0000E+00  0.0000E+00
    -13.124  0.0000E+00  0.0000E+00
    -12.993  0.0000E+00  0.0000E+00
    -12.863  0.0000E+00  0.0000E+00
    -12.732  0.0000E+00  0.0000E+00
    -12.601  0.0000E+00  0.0000E+00
    -12.470  0.0000E+00  0.0000E+00
    -12.339  0.0000E+00  0.0000E+00
    -12.208  0.0000E+00  0.0000E+00
    -12.077  0.0000E+00  0.0000E+00
    -11.947  0.0000E+00  0.0000E+00
    -11.816  0.0000E+00  0.0000E+00
    -11.685  0.0000E+00  0.0000E+00
    -11.554  0.3215E-01  0.5100E-03
    -11.423  0.1426E+00  0.1486E-01
    -11.292  0.2234E+00  0.3879E-01
    -11.161  0.2525E+00  0.6963E-01
    -11.030  0.2963E+00  0.1056E+00
    -10.900  0.3337E+00  0.1473E+00
    -10.769  0.3604E+00  0.1926E+00
    -10.638  0.3888E+00  0.2415E+00
    -10.507  0.4241E+00  0.2947E+00
    -10.376  0.4454E+00  0.3518E+00
    -10.245  0.4669E+00  0.4115E+00
    -10.114  0.4904E+00  0.4740E+00
     -9.983  0.5163E+00  0.5399E+00
     -9.853  0.5415E+00  0.6092E+00
     -9.722  0.5587E+00  0.6811E+00
     -9.591  0.5768E+00  0.7554E+00
     -9.460  0.5967E+00  0.8322E+00
     -9.329  0.6172E+00  0.9116E+00
     -9.198  0.6391E+00  0.9938E+00
     -9.067  0.6589E+00  0.1079E+01
     -8.937  0.6748E+00  0.1166E+01
     -8.806  0.6904E+00  0.1255E+01
     -8.675  0.7083E+00  0.1347E+01
     -8.544  0.7266E+00  0.1441E+01
     -8.413  0.7457E+00  0.1537E+01
     -8.282  0.7655E+00  0.1636E+01
     -8.151  0.7810E+00  0.1737E+01
     -8.020  0.7964E+00  0.1841E+01
     -7.890  0.8124E+00  0.1946E+01
     -7.759  0.8292E+00  0.2053E+01
     -7.628  0.8461E+00  0.2163E+01
     -7.497  0.8637E+00  0.2275E+01
     -7.366  0.9203E+00  0.2392E+01
     -7.235  0.9436E+00  0.2514E+01
     -7.104  0.9865E+00  0.2641E+01
     -6.973  0.9888E+00  0.2771E+01
     -6.843  0.9669E+00  0.2899E+01
     -6.712  0.9366E+00  0.3023E+01
     -6.581  0.9601E+00  0.3148E+01
     -6.450  0.9692E+00  0.3274E+01
     -6.319  0.9710E+00  0.3401E+01
     -6.188  0.9833E+00  0.3529E+01
     -6.057  0.1027E+01  0.3660E+01
     -5.926  0.1073E+01  0.3798E+01
     -5.796  0.1147E+01  0.3944E+01
     -5.665  0.1177E+01  0.4096E+01
     -5.534  0.1181E+01  0.4249E+01
     -5.403  0.1246E+01  0.4407E+01
     -5.272  0.1409E+01  0.4581E+01
     -5.141  0.1495E+01  0.4773E+01
     -5.010  0.1374E+01  0.4958E+01
     -4.880  0.1359E+01  0.5136E+01
     -4.749  0.1308E+01  0.5313E+01
     -4.618  0.1244E+01  0.5477E+01
     -4.487  0.1290E+01  0.5643E+01
     -4.356  0.1315E+01  0.5814E+01
     -4.225  0.1146E+01  0.5971E+01
     -4.094  0.1105E+01  0.6117E+01
     -3.963  0.1082E+01  0.6260E+01
     -3.833  0.1055E+01  0.6400E+01
     -3.702  0.1082E+01  0.6539E+01
     -3.571  0.1067E+01  0.6677E+01
     -3.440  0.1025E+01  0.6810E+01
     -3.309  0.9377E+00  0.6941E+01
     -3.178  0.9101E+00  0.7062E+01
     -3.047  0.1005E+01  0.7185E+01
     -2.916  0.1076E+01  0.7321E+01
     -2.786  0.1172E+01  0.7467E+01
     -2.655  0.1123E+01  0.7621E+01
     -2.524  0.1099E+01  0.7767E+01
     -2.393  0.1084E+01  0.7909E+01
     -2.262  0.1132E+01  0.8059E+01
     -2.131  0.1223E+01  0.8213E+01
     -2.000  0.1051E+01  0.8362E+01
     -1.870  0.1007E+01  0.8495E+01
     -1.739  0.1063E+01  0.8629E+01
     -1.608  0.1086E+01  0.8770E+01
     -1.477  0.1154E+01  0.8916E+01
     -1.346  0.1257E+01  0.9073E+01
     -1.215  0.1423E+01  0.9248E+01
     -1.084  0.1729E+01  0.9452E+01
     -0.953  0.2178E+01  0.9710E+01
     -0.823  0.2357E+01  0.1001E+02
     -0.692  0.2389E+01  0.1032E+02
     -0.561  0.2043E+01  0.1062E+02
     -0.430  0.1786E+01  0.1086E+02
     -0.299  0.1502E+01  0.1107E+02
     -0.168  0.1402E+01  0.1126E+02
     -0.037  0.1331E+01  0.1144E+02
      0.094  0.1273E+01  0.1161E+02
      0.224  0.1244E+01  0.1177E+02
      0.355  0.1222E+01  0.1194E+02
      0.486  0.1206E+01  0.1209E+02
      0.617  0.1197E+01  0.1225E+02
      0.748  0.1256E+01  0.1241E+02
      0.879  0.1269E+01  0.1258E+02
      1.010  0.1102E+01  0.1274E+02
      1.141  0.1066E+01  0.1287E+02
      1.271  0.1153E+01  0.1302E+02
      1.402  0.1346E+01  0.1318E+02
      1.533  0.1921E+01  0.1339E+02
      1.664  0.2115E+01  0.1366E+02
      1.795  0.1980E+01  0.1393E+02
      1.926  0.1846E+01  0.1418E+02
      2.057  0.1891E+01  0.1442E+02
      2.187  0.2105E+01  0.1468E+02
      2.318  0.2192E+01  0.1497E+02
      2.449  0.2083E+01  0.1525E+02
      2.580  0.1709E+01  0.1550E+02
      2.711  0.1324E+01  0.1570E+02
      2.842  0.1296E+01  0.1586E+02
      2.973  0.1744E+01  0.1606E+02
      3.104  0.1984E+01  0.1631E+02
      3.234  0.2093E+01  0.1658E+02
      3.365  0.2129E+01  0.1686E+02
      3.496  0.2194E+01  0.1714E+02
      3.627  0.2239E+01  0.1743E+02
      3.758  0.2410E+01  0.1773E+02
      3.889  0.2747E+01  0.1807E+02
      4.020  0.2731E+01  0.1844E+02
      4.151  0.2400E+01  0.1878E+02
      4.281  0.2377E+01  0.1909E+02
      4.412  0.2493E+01  0.1940E+02
      4.543  0.2802E+01  0.1974E+02
      4.674  0.2547E+01  0.2008E+02
      4.805  0.2975E+01  0.2043E+02
      4.936  0.3226E+01  0.2084E+02
      5.067  0.3336E+01  0.2128E+02
      5.197  0.2944E+01  0.2169E+02
      5.328  0.2942E+01  0.2208E+02
      5.459  0.2503E+01  0.2242E+02
      5.590  0.2518E+01  0.2275E+02
      5.721  0.2638E+01  0.2309E+02
      5.852  0.2460E+01  0.2342E+02
      5.983  0.2597E+01  0.2376E+02
      6.114  0.2713E+01  0.2410E+02
      6.244  0.2720E+01  0.2446E+02
      6.375  0.2706E+01  0.2481E+02
      6.506  0.2805E+01  0.2517E+02
      6.637  0.2777E+01  0.2554E+02
      6.768  0.2469E+01  0.2589E+02
      6.899  0.2303E+01  0.2619E+02
      7.030  0.2133E+01  0.2648E+02
      7.161  0.2154E+01  0.2676E+02
      7.291  0.2386E+01  0.2705E+02
      7.422  0.2597E+01  0.2739E+02
      7.553  0.2483E+01  0.2772E+02
      7.684  0.2500E+01  0.2804E+02
      7.815  0.2353E+01  0.2836E+02
      7.946  0.2196E+01  0.2865E+02
      8.077  0.2074E+01  0.2894E+02
      8.207  0.2482E+01  0.2923E+02
      8.338  0.2109E+01  0.2959E+02
      8.469  0.1648E+01  0.2982E+02
      8.600  0.1500E+01  0.3003E+02
      8.731  0.1387E+01  0.3022E+02
      8.862  0.1259E+01  0.3039E+02
      8.993  0.1208E+01  0.3055E+02
      9.124  0.1144E+01  0.3071E+02
      9.254  0.1082E+01  0.3085E+02
      9.385  0.9740E+00  0.3099E+02
      9.516  0.8777E+00  0.3111E+02
      9.647  0.8052E+00  0.3122E+02
      9.778  0.7744E+00  0.3132E+02
      9.909  0.7429E+00  0.3142E+02
     10.040  0.6789E+00  0.3151E+02
     10.171  0.6060E+00  0.3160E+02
     10.301  0.5338E+00  0.3167E+02
     10.432  0.4913E+00  0.3174E+02
     10.563  0.4639E+00  0.3180E+02
     10.694  0.3580E+00  0.3186E+02
     10.825  0.3433E+00  0.3190E+02
     10.956  0.3445E+00  0.3194E+02
     11.087  0.1610E+00  0.3198E+02
     11.218  0.1373E+00  0.3199E+02
     11.348  0.4399E-03  0.3200E+02
     11.479  0.0000E+00  0.3200E+02
     11.610  0.0000E+00  0.3200E+02
     11.741  0.0000E+00  0.3200E+02
     11.872  0.0000E+00  0.3200E+02
     12.003  0.0000E+00  0.3200E+02
     12.134  0.0000E+00  0.3200E+02
     12.264  0.0000E+00  0.3200E+02
     12.395  0.0000E+00  0.3200E+02
     12.526  0.0000E+00  0.3200E+02
     12.657  0.0000E+00  0.3200E+02
     12.788  0.0000E+00  0.3200E+02
     12.919  0.0000E+00  0.3200E+02
     13.050  0.0000E+00  0.3200E+02
     13.181  0.0000E+00  0.3200E+02
     13.311  0.0000E+00  0.3200E+02
     13.442  0.0000E+00  0.3200E+02
     13.573  0.0000E+00  0.3200E+02
     13.704  0.0000E+00  0.3200E+02
     13.835  0.0000E+00  0.3200E+02
     13.966  0.0000E+00  0.3200E+02
     14.097  0.0000E+00  0.3200E+02
     14.228  0.0000E+00  0.3200E+02
     14.358  0.0000E+00  0.3200E+02
     14.489  0.0000E+00  0.3200E+02
     14.620  0.0000E+00  0.3200E+02
     14.751  0.0000E+00  0.3200E+02
     14.882  0.0000E+00  0.3200E+02
     15.013  0.0000E+00  0.3200E+02
     15.144  0.0000E+00  0.3200E+02
     15.274  0.0000E+00  0.3200E+02
     15.405  0.0000E+00  0.3200E+02
     15.536  0.0000E+00  0.3200E+02
     15.667  0.0000E+00  0.3200E+02
     15.798  0.3724E-01  0.3200E+02
     15.929  0.1797E+00  0.3201E+02
     16.060  0.4143E+00  0.3205E+02
     16.191  0.5593E+00  0.3212E+02
     16.321  0.5454E+00  0.3219E+02
     16.452  0.7115E+00  0.3227E+02
     16.583  0.8047E+00  0.3237E+02
     16.714  0.9111E+00  0.3248E+02
     16.845  0.1550E+01  0.3263E+02
     16.976  0.1373E+01  0.3282E+02
     17.107  0.1373E+01  0.3299E+02
     17.238  0.1449E+01  0.3318E+02
     17.368  0.1412E+01  0.3337E+02
     17.499  0.1512E+01  0.3356E+02
     17.630  0.1611E+01  0.3376E+02
     17.761  0.1714E+01  0.3398E+02
     17.892  0.1961E+01  0.3422E+02
     18.023  0.2130E+01  0.3449E+02
     18.154  0.2019E+01  0.3477E+02
     18.285  0.1933E+01  0.3503E+02
     18.415  0.1969E+01  0.3528E+02
     18.546  0.2028E+01  0.3554E+02
     18.677  0.2118E+01  0.3581E+02
     18.808  0.2285E+01  0.3610E+02
     18.939  0.2424E+01  0.3641E+02
     19.070  0.2629E+01  0.3674E+02
     19.201  0.2579E+01  0.3708E+02
     19.331  0.2685E+01  0.3742E+02
     19.462  0.2874E+01  0.3778E+02
     19.593  0.3297E+01  0.3818E+02
     19.724  0.3548E+01  0.3862E+02
     19.855  0.4231E+01  0.3914E+02
     19.986  0.3892E+01  0.3968E+02
     20.117  0.3889E+01  0.4019E+02
     20.248  0.2859E+01  0.4063E+02
     20.378  0.2512E+01  0.4096E+02
     20.509  0.2389E+01  0.4129E+02
     20.640  0.2566E+01  0.4161E+02
     20.771  0.3030E+01  0.4198E+02
     20.902  0.3084E+01  0.4238E+02
     21.033  0.2906E+01  0.4276E+02
     21.164  0.3195E+01  0.4316E+02
     21.295  0.3455E+01  0.4361E+02
     21.425  0.3294E+01  0.4405E+02
     21.556  0.3007E+01  0.4446E+02
     21.687  0.2738E+01  0.4484E+02
     21.818  0.2544E+01  0.4518E+02
     21.949  0.2476E+01  0.4550E+02
     22.080  0.2629E+01  0.4584E+02
     22.211  0.2610E+01  0.4619E+02
     22.341  0.2658E+01  0.4653E+02
     22.472  0.2649E+01  0.4687E+02
     22.603  0.2506E+01  0.4722E+02
     22.734  0.1882E+01  0.4751E+02
     22.865  0.1277E+01  0.4772E+02
     22.996  0.5848E+00  0.4783E+02
     23.127  0.3814E+00  0.4790E+02
     23.258  0.1979E+00  0.4793E+02
     23.388  0.1599E+00  0.4795E+02
     23.519  0.1220E+00  0.4797E+02
     23.650  0.8487E-01  0.4799E+02
     23.781  0.5094E-01  0.4799E+02
     23.912  0.2041E-01  0.4800E+02
     24.043  0.4104E-02  0.4800E+02
     24.174  0.0000E+00  0.4800E+02
     24.305  0.0000E+00  0.4800E+02
     24.435  0.0000E+00  0.4800E+02
     24.566  0.0000E+00  0.4800E+02
     24.697  0.0000E+00  0.4800E+02
     24.828  0.0000E+00  0.4800E+02
     24.959  0.0000E+00  0.4800E+02
     25.090  0.0000E+00  0.4800E+02
     25.221  0.0000E+00  0.4800E+02
     25.352  0.0000E+00  0.4800E+02
     25.482  0.0000E+00  0.4800E+02
     25.613  0.0000E+00  0.4800E+02
     25.744  0.0000E+00  0.4800E+02
     25.875  0.0000E+00  0.4800E+02
