       N       E                     dE             d eps       ncg     rms          rms(c)
DAV:   1     0.591248501036E+02    0.59125E+02   -0.14647E+04  4032   0.107E+03
DAV:   2    -0.713901753012E+02   -0.13052E+03   -0.12430E+03  5592   0.227E+02
DAV:   3    -0.753478940275E+02   -0.39577E+01   -0.39434E+01  5176   0.367E+01
DAV:   4    -0.753821141807E+02   -0.34220E-01   -0.34196E-01  4968   0.382E+00
DAV:   5    -0.753826994953E+02   -0.58531E-03   -0.58517E-03  5184   0.437E-01    0.108E+01
DAV:   6    -0.728065817039E+02    0.25761E+01   -0.16683E+00  4432   0.761E+00    0.582E+00
DAV:   7    -0.719401855850E+02    0.86640E+00   -0.18327E+00  4552   0.820E+00    0.723E-01
DAV:   8    -0.719488582254E+02   -0.86726E-02   -0.33695E-02  5056   0.109E+00    0.879E-02
DAV:   9    -0.719490506107E+02   -0.19239E-03   -0.42504E-04  4744   0.143E-01    0.295E-02
DAV:  10    -0.719490972784E+02   -0.46668E-04   -0.35703E-05  5072   0.471E-02    0.284E-03
DAV:  11    -0.719490980436E+02   -0.76521E-06   -0.95946E-07  3672   0.714E-03
   1 F= -.71949098E+02 E0= -.71949098E+02  d E =0.000000E+00
