 vasp.5.4.4.18Apr17-6-g9f103f2a35 (build Mar 12 2022 03:36:41) complex          
  
 executed on IFC19.0.3.199_CrayMP date 2022.12.01  10:37:07
 running on   16 total cores
 distrk:  each k-point on   16 cores,    1 groups
 distr:  one band on NCORES_PER_BAND=   4 cores,    4 groups


--------------------------------------------------------------------------------------------------------


 INCAR:
 POTCAR:   PAW_PBE C 08Apr2002                    
 POTCAR:   PAW_PBE C 08Apr2002                    
   VRHFIN =C: s2p2                                                              
   LEXCH  = PE                                                                  
   EATOM  =   147.1560 eV,   10.8157 Ry                                         
                                                                                
   TITEL  = PAW_PBE C 08Apr2002                                                 
   LULTRA =        F    use ultrasoft PP ?                                      
   IUNSCR =        0    unscreen: 0-lin 1-nonlin 2-no                           
   RPACOR =     .000    partial core radius                                     
   POMASS =   12.011; ZVAL   =    4.000    mass and valenz                      
   RCORE  =    1.500    outmost cutoff radius                                   
   RWIGS  =    1.630; RWIGS  =     .863    wigner-seitz radius (au A)           
   ENMAX  =  400.000; ENMIN  =  300.000 eV                                      
   ICORE  =        2    local potential                                         
   LCOR   =        T    correct aug charges                                     
   LPAW   =        T    paw PP                                                  
   EAUG   =  644.873                                                            
   DEXC   =     .000                                                            
   RMAX   =    2.266    core radius for proj-oper                               
   RAUG   =    1.300    factor for augmentation sphere                          
   RDEP   =    1.501    radius for radial grids                                 
   RDEPT  =    1.300    core radius for aug-charge                              
   QCUT   =   -5.516; QGAM   =   11.032    optimization parameters              
                                                                                
   Description                                                                  
     l     E      TYP  RCUT    TYP  RCUT                                        
     0   .000     23  1.200                                                     
     0   .000     23  1.200                                                     
     1   .000     23  1.500                                                     
     1  2.500     23  1.500                                                     
     2   .000      7  1.500                                                     
  local pseudopotential read in
  atomic valenz-charges read in
  non local Contribution for L=           0  read in
    real space projection operators read in
  non local Contribution for L=           0  read in
    real space projection operators read in
  non local Contribution for L=           1  read in
    real space projection operators read in
  non local Contribution for L=           1  read in
    real space projection operators read in
    PAW grid and wavefunctions read in
 
   number of l-projection  operators is LMAX  =           4
   number of lm-projection operators is LMMAX =           8
 
 PAW_PBE C 08Apr2002                    :
 energy of atom  1       EATOM= -147.1560
 kinetic energy error for atom=    0.0288 (will be added to EATOM!!)
 
 
 POSCAR: C8                                      
  positions in direct lattice
  No initial velocities read in
 exchange correlation table for  LEXCH =        8
   RHO(1)=    0.500       N(1)  =     2000
   RHO(2)=  100.500       N(2)  =     4000
 


--------------------------------------------------------------------------------------------------------


 ion  position               nearest neighbor table
   1  0.250  0.750  0.250-   2 1.49   4 1.49   6 1.49   8 1.49
   2  0.000  0.000  0.500-   1 1.49   3 1.49   5 1.49   7 1.49
   3  0.250  0.250  0.750-   2 1.49   4 1.49   6 1.49   8 1.49
   4  0.000  0.500  0.000-   1 1.49   3 1.49   5 1.49   7 1.49
   5  0.750  0.750  0.750-   2 1.49   4 1.49   6 1.49   8 1.49
   6  0.500  0.000  0.000-   1 1.49   3 1.49   5 1.49   7 1.49
   7  0.750  0.250  0.250-   2 1.49   4 1.49   6 1.49   8 1.49
   8  0.500  0.500  0.500-   1 1.49   3 1.49   5 1.49   7 1.49
 
  LATTYP: Found a simple cubic cell.
 ALAT       =     3.4434062033
  
  Lattice vectors:
  
 A1 = (   3.4434062033,   0.0000000000,   0.0000000000)
 A2 = (   0.0000000000,   3.4434062033,   0.0000000000)
 A3 = (   0.0000000000,   0.0000000000,   3.4434062033)


Analysis of symmetry for initial positions (statically):
=====================================================================
 Subroutine PRICEL returns following result:
 
  LATTYP: Found a face centered cubic cell.
 ALAT       =     3.4434062033
  
  Lattice vectors:
  
 A1 = (   1.7217031016,   1.7217031016,   0.0000000000)
 A2 = (   1.7217031016,   0.0000000000,  -1.7217031016)
 A3 = (   0.0000000000,   1.7217031016,  -1.7217031016)
 
   4 primitive cells build up your supercell.
 

 Routine SETGRP: Setting up the symmetry group for a 
 simple cubic supercell.


 Subroutine GETGRP returns: Found 48 space group operations
 (whereof 24 operations were pure point group operations)
 out of a pool of 48 trial point group operations.


The static configuration has the point symmetry T_d .
 The point group associated with its full space group is O_h .


Analysis of symmetry for dynamics (positions and initial velocities):
=====================================================================
 Subroutine PRICEL returns following result:
 
  LATTYP: Found a face centered cubic cell.
 ALAT       =     3.4434062033
  
  Lattice vectors:
  
 A1 = (   1.7217031016,   1.7217031016,   0.0000000000)
 A2 = (   1.7217031016,   0.0000000000,  -1.7217031016)
 A3 = (   0.0000000000,   1.7217031016,  -1.7217031016)
 
   4 primitive cells build up your supercell.
 

 Routine SETGRP: Setting up the symmetry group for a 
 simple cubic supercell.


 Subroutine GETGRP returns: Found 48 space group operations
 (whereof 24 operations were pure point group operations)
 out of a pool of 48 trial point group operations.


The dynamic configuration has the point symmetry T_d .
 The point group associated with its full space group is O_h .


 Subroutine INISYM returns: Found 48 space group operations
 (whereof 24 operations are pure point group operations),
 and found     4 'primitive' translations

 
 
 KPOINTS: kpt_density=1000                        

Automatic generation of k-mesh.
Space group operators:
 irot       det(A)        alpha          n_x          n_y          n_z        tau_x        tau_y        tau_z
    1     1.000000     0.000000     1.000000     0.000000     0.000000     0.000000     0.000000     0.000000
    2     1.000000   120.000000    -0.577350    -0.577350    -0.577350     0.000000     0.000000     0.000000
    3     1.000000   120.000000     0.577350     0.577350     0.577350     0.000000     0.000000     0.000000
    4    -1.000000    90.000000     0.000000     0.000000    -1.000000     0.000000     0.000000     0.000000
    5    -1.000000   180.000000     0.000000     0.707107     0.707107     0.000000     0.000000     0.000000
    6    -1.000000    90.000000     0.000000     1.000000     0.000000     0.000000     0.000000     0.000000
    7     1.000000   180.000000     0.000000     0.000000     1.000000     0.000000     0.000000     0.000000
    8     1.000000   120.000000    -0.577350     0.577350     0.577350     0.000000     0.000000     0.000000
    9     1.000000   120.000000    -0.577350     0.577350    -0.577350     0.000000     0.000000     0.000000
   10    -1.000000    90.000000     0.000000     0.000000     1.000000     0.000000     0.000000     0.000000
   11    -1.000000    90.000000    -1.000000     0.000000     0.000000     0.000000     0.000000     0.000000
   12    -1.000000   180.000000     0.707107     0.000000     0.707107     0.000000     0.000000     0.000000
   13     1.000000   120.000000     0.577350    -0.577350     0.577350     0.000000     0.000000     0.000000
   14     1.000000   120.000000    -0.577350    -0.577350     0.577350     0.000000     0.000000     0.000000
   15     1.000000   180.000000     1.000000     0.000000     0.000000     0.000000     0.000000     0.000000
   16    -1.000000    90.000000     0.000000    -1.000000     0.000000     0.000000     0.000000     0.000000
   17    -1.000000   180.000000     0.707107     0.707107     0.000000     0.000000     0.000000     0.000000
   18    -1.000000    90.000000     1.000000     0.000000     0.000000     0.000000     0.000000     0.000000
   19     1.000000   120.000000     0.577350    -0.577350    -0.577350     0.000000     0.000000     0.000000
   20     1.000000   180.000000     0.000000     1.000000     0.000000     0.000000     0.000000     0.000000
   21     1.000000   120.000000     0.577350     0.577350    -0.577350     0.000000     0.000000     0.000000
   22    -1.000000   180.000000     0.000000    -0.707107     0.707107     0.000000     0.000000     0.000000
   23    -1.000000   180.000000     0.707107    -0.707107     0.000000     0.000000     0.000000     0.000000
   24    -1.000000   180.000000     0.707107     0.000000    -0.707107     0.000000     0.000000     0.000000
   25    -1.000000     0.000000     1.000000     0.000000     0.000000     0.750000     0.750000    -0.750000
   26    -1.000000   120.000000    -0.577350    -0.577350    -0.577350     0.750000     0.750000    -0.750000
   27    -1.000000   120.000000     0.577350     0.577350     0.577350     0.750000     0.750000    -0.750000
   28     1.000000    90.000000     0.000000     0.000000    -1.000000     0.750000     0.750000    -0.750000
   29     1.000000   180.000000     0.000000     0.707107     0.707107     0.750000     0.750000    -0.750000
   30     1.000000    90.000000     0.000000     1.000000     0.000000     0.750000     0.750000    -0.750000
   31    -1.000000   180.000000     0.000000     0.000000     1.000000     0.750000     0.750000    -0.750000
   32    -1.000000   120.000000    -0.577350     0.577350     0.577350     0.750000     0.750000    -0.750000
   33    -1.000000   120.000000    -0.577350     0.577350    -0.577350     0.750000     0.750000    -0.750000
   34     1.000000    90.000000     0.000000     0.000000     1.000000     0.750000     0.750000    -0.750000
   35     1.000000    90.000000    -1.000000     0.000000     0.000000     0.750000     0.750000    -0.750000
   36     1.000000   180.000000     0.707107     0.000000     0.707107     0.750000     0.750000    -0.750000
   37    -1.000000   120.000000     0.577350    -0.577350     0.577350     0.750000     0.750000    -0.750000
   38    -1.000000   120.000000    -0.577350    -0.577350     0.577350     0.750000     0.750000    -0.750000
   39    -1.000000   180.000000     1.000000     0.000000     0.000000     0.750000     0.750000    -0.750000
   40     1.000000    90.000000     0.000000    -1.000000     0.000000     0.750000     0.750000    -0.750000
   41     1.000000   180.000000     0.707107     0.707107     0.000000     0.750000     0.750000    -0.750000
   42     1.000000    90.000000     1.000000     0.000000     0.000000     0.750000     0.750000    -0.750000
   43    -1.000000   120.000000     0.577350    -0.577350    -0.577350     0.750000     0.750000    -0.750000
   44    -1.000000   180.000000     0.000000     1.000000     0.000000     0.750000     0.750000    -0.750000
   45    -1.000000   120.000000     0.577350     0.577350    -0.577350     0.750000     0.750000    -0.750000
   46     1.000000   180.000000     0.000000    -0.707107     0.707107     0.750000     0.750000    -0.750000
   47     1.000000   180.000000     0.707107    -0.707107     0.000000     0.750000     0.750000    -0.750000
   48     1.000000   180.000000     0.707107     0.000000    -0.707107     0.750000     0.750000    -0.750000
 
 Subroutine IBZKPT returns following result:
 ===========================================
 
 Found     84 irreducible k-points:
 
 Following reciprocal coordinates:
            Coordinates               Weight
  0.000000  0.000000  0.000000      1.000000
  0.083333  0.000000  0.000000      6.000000
  0.166667  0.000000  0.000000      6.000000
  0.250000  0.000000  0.000000      6.000000
  0.333333  0.000000  0.000000      6.000000
  0.416667  0.000000  0.000000      6.000000
  0.500000  0.000000  0.000000      3.000000
  0.083333  0.083333  0.000000     12.000000
  0.166667  0.083333  0.000000     24.000000
  0.250000  0.083333  0.000000     24.000000
  0.333333  0.083333  0.000000     24.000000
  0.416667  0.083333  0.000000     24.000000
  0.500000  0.083333  0.000000     12.000000
  0.166667  0.166667  0.000000     12.000000
  0.250000  0.166667  0.000000     24.000000
  0.333333  0.166667  0.000000     24.000000
  0.416667  0.166667  0.000000     24.000000
  0.500000  0.166667  0.000000     12.000000
  0.250000  0.250000  0.000000     12.000000
  0.333333  0.250000  0.000000     24.000000
  0.416667  0.250000  0.000000     24.000000
  0.500000  0.250000  0.000000     12.000000
  0.333333  0.333333  0.000000     12.000000
  0.416667  0.333333  0.000000     24.000000
  0.500000  0.333333  0.000000     12.000000
  0.416667  0.416667  0.000000     12.000000
  0.500000  0.416667  0.000000     12.000000
  0.500000  0.500000  0.000000      3.000000
  0.083333  0.083333  0.083333      8.000000
  0.166667  0.083333  0.083333     24.000000
  0.250000  0.083333  0.083333     24.000000
  0.333333  0.083333  0.083333     24.000000
  0.416667  0.083333  0.083333     24.000000
  0.500000  0.083333  0.083333     12.000000
  0.166667  0.166667  0.083333     24.000000
  0.250000  0.166667  0.083333     48.000000
  0.333333  0.166667  0.083333     48.000000
  0.416667  0.166667  0.083333     48.000000
  0.500000  0.166667  0.083333     24.000000
  0.250000  0.250000  0.083333     24.000000
  0.333333  0.250000  0.083333     48.000000
  0.416667  0.250000  0.083333     48.000000
  0.500000  0.250000  0.083333     24.000000
  0.333333  0.333333  0.083333     24.000000
  0.416667  0.333333  0.083333     48.000000
  0.500000  0.333333  0.083333     24.000000
  0.416667  0.416667  0.083333     24.000000
  0.500000  0.416667  0.083333     24.000000
  0.500000  0.500000  0.083333      6.000000
  0.166667  0.166667  0.166667      8.000000
  0.250000  0.166667  0.166667     24.000000
  0.333333  0.166667  0.166667     24.000000
  0.416667  0.166667  0.166667     24.000000
  0.500000  0.166667  0.166667     12.000000
  0.250000  0.250000  0.166667     24.000000
  0.333333  0.250000  0.166667     48.000000
  0.416667  0.250000  0.166667     48.000000
  0.500000  0.250000  0.166667     24.000000
  0.333333  0.333333  0.166667     24.000000
  0.416667  0.333333  0.166667     48.000000
  0.500000  0.333333  0.166667     24.000000
  0.416667  0.416667  0.166667     24.000000
  0.500000  0.416667  0.166667     24.000000
  0.500000  0.500000  0.166667      6.000000
  0.250000  0.250000  0.250000      8.000000
  0.333333  0.250000  0.250000     24.000000
  0.416667  0.250000  0.250000     24.000000
  0.500000  0.250000  0.250000     12.000000
  0.333333  0.333333  0.250000     24.000000
  0.416667  0.333333  0.250000     48.000000
  0.500000  0.333333  0.250000     24.000000
  0.416667  0.416667  0.250000     24.000000
  0.500000  0.416667  0.250000     24.000000
  0.500000  0.500000  0.250000      6.000000
  0.333333  0.333333  0.333333      8.000000
  0.416667  0.333333  0.333333     24.000000
  0.500000  0.333333  0.333333     12.000000
  0.416667  0.416667  0.333333     24.000000
  0.500000  0.416667  0.333333     24.000000
  0.500000  0.500000  0.333333      6.000000
  0.416667  0.416667  0.416667      8.000000
  0.500000  0.416667  0.416667     12.000000
  0.500000  0.500000  0.416667      6.000000
  0.500000  0.500000  0.500000      1.000000
 
 Following cartesian coordinates:
            Coordinates               Weight
  0.000000  0.000000  0.000000      1.000000
  0.024311  0.000000  0.000000      6.000000
  0.048622  0.000000  0.000000      6.000000
  0.072933  0.000000  0.000000      6.000000
  0.097245  0.000000  0.000000      6.000000
  0.121556  0.000000  0.000000      6.000000
  0.145867  0.000000  0.000000      3.000000
  0.024311  0.024311  0.000000     12.000000
  0.048622  0.024311  0.000000     24.000000
  0.072933  0.024311  0.000000     24.000000
  0.097245  0.024311  0.000000     24.000000
  0.121556  0.024311  0.000000     24.000000
  0.145867  0.024311  0.000000     12.000000
  0.048622  0.048622  0.000000     12.000000
  0.072933  0.048622  0.000000     24.000000
  0.097245  0.048622  0.000000     24.000000
  0.121556  0.048622  0.000000     24.000000
  0.145867  0.048622  0.000000     12.000000
  0.072933  0.072933  0.000000     12.000000
  0.097245  0.072933  0.000000     24.000000
  0.121556  0.072933  0.000000     24.000000
  0.145867  0.072933  0.000000     12.000000
  0.097245  0.097245  0.000000     12.000000
  0.121556  0.097245  0.000000     24.000000
  0.145867  0.097245  0.000000     12.000000
  0.121556  0.121556  0.000000     12.000000
  0.145867  0.121556  0.000000     12.000000
  0.145867  0.145867  0.000000      3.000000
  0.024311  0.024311  0.024311      8.000000
  0.048622  0.024311  0.024311     24.000000
  0.072933  0.024311  0.024311     24.000000
  0.097245  0.024311  0.024311     24.000000
  0.121556  0.024311  0.024311     24.000000
  0.145867  0.024311  0.024311     12.000000
  0.048622  0.048622  0.024311     24.000000
  0.072933  0.048622  0.024311     48.000000
  0.097245  0.048622  0.024311     48.000000
  0.121556  0.048622  0.024311     48.000000
  0.145867  0.048622  0.024311     24.000000
  0.072933  0.072933  0.024311     24.000000
  0.097245  0.072933  0.024311     48.000000
  0.121556  0.072933  0.024311     48.000000
  0.145867  0.072933  0.024311     24.000000
  0.097245  0.097245  0.024311     24.000000
  0.121556  0.097245  0.024311     48.000000
  0.145867  0.097245  0.024311     24.000000
  0.121556  0.121556  0.024311     24.000000
  0.145867  0.121556  0.024311     24.000000
  0.145867  0.145867  0.024311      6.000000
  0.048622  0.048622  0.048622      8.000000
  0.072933  0.048622  0.048622     24.000000
  0.097245  0.048622  0.048622     24.000000
  0.121556  0.048622  0.048622     24.000000
  0.145867  0.048622  0.048622     12.000000
  0.072933  0.072933  0.048622     24.000000
  0.097245  0.072933  0.048622     48.000000
  0.121556  0.072933  0.048622     48.000000
  0.145867  0.072933  0.048622     24.000000
  0.097245  0.097245  0.048622     24.000000
  0.121556  0.097245  0.048622     48.000000
  0.145867  0.097245  0.048622     24.000000
  0.121556  0.121556  0.048622     24.000000
  0.145867  0.121556  0.048622     24.000000
  0.145867  0.145867  0.048622      6.000000
  0.072933  0.072933  0.072933      8.000000
  0.097245  0.072933  0.072933     24.000000
  0.121556  0.072933  0.072933     24.000000
  0.145867  0.072933  0.072933     12.000000
  0.097245  0.097245  0.072933     24.000000
  0.121556  0.097245  0.072933     48.000000
  0.145867  0.097245  0.072933     24.000000
  0.121556  0.121556  0.072933     24.000000
  0.145867  0.121556  0.072933     24.000000
  0.145867  0.145867  0.072933      6.000000
  0.097245  0.097245  0.097245      8.000000
  0.121556  0.097245  0.097245     24.000000
  0.145867  0.097245  0.097245     12.000000
  0.121556  0.121556  0.097245     24.000000
  0.145867  0.121556  0.097245     24.000000
  0.145867  0.145867  0.097245      6.000000
  0.121556  0.121556  0.121556      8.000000
  0.145867  0.121556  0.121556     12.000000
  0.145867  0.145867  0.121556      6.000000
  0.145867  0.145867  0.145867      1.000000
 
 TETIRR: Found    854 inequivalent tetrahedra from    10368


--------------------------------------------------------------------------------------------------------




 Dimension of arrays:
   k-points           NKPTS =     84   k-points in BZ     NKDIM =     84   number of bands    NBANDS=     24
   number of dos      NEDOS =    301   number of ions     NIONS =      8
   non local maximal  LDIM  =      4   non local SUM 2l+1 LMDIM =      8
   total plane-waves  NPLWV =  13824
   max r-space proj   IRMAX =      1   max aug-charges    IRDMAX=   4195
   dimension x,y,z NGX =    24 NGY =   24 NGZ =   24
   dimension x,y,z NGXF=    48 NGYF=   48 NGZF=   48
   support grid    NGXF=    48 NGYF=   48 NGZF=   48
   ions per type =               8
   NGX,Y,Z   is equivalent  to a cutoff of  11.59, 11.59, 11.59 a.u.
   NGXF,Y,Z  is equivalent  to a cutoff of  23.17, 23.17, 23.17 a.u.

 SYSTEM =  unknown system                          
 POSCAR =  C8                                      

 Startparameter for this run:
   NWRITE =      2    write-flag & timer
   PREC   = accura    normal or accurate (medium, high low for compatibility)
   ISTART =      0    job   : 0-new  1-cont  2-samecut
   ICHARG =      2    charge: 1-file 2-atom 10-const
   ISPIN  =      1    spin polarized calculation?
   LNONCOLLINEAR =      F non collinear calculations
   LSORBIT =      F    spin-orbit coupling
   INIWAV =      1    electr: 0-lowe 1-rand  2-diag
   LASPH  =      F    aspherical Exc in radial PAW
   METAGGA=      F    non-selfconsistent MetaGGA calc.

 Electronic Relaxation 1
   ENCUT  =  400.0 eV  29.40 Ry    5.42 a.u.   5.62  5.62  5.62*2*pi/ulx,y,z
   ENINI  =  400.0     initial cutoff
   ENAUG  =  644.9 eV  augmentation charge cutoff
   NELM   =     60;   NELMIN=  2; NELMDL= -5     # of ELM steps 
   EDIFF  = 0.1E-05   stopping-criterion for ELM
   LREAL  =      F    real-space projection
   NLSPLINE    = F    spline interpolate recip. space projectors
   LCOMPAT=      F    compatible to vasp.4.4
   GGA_COMPAT  = T    GGA compatible to vasp.4.4-vasp.4.6
   LMAXPAW     = -100 max onsite density
   LMAXMIX     =    2 max onsite mixed and CHGCAR
   VOSKOWN=      0    Vosko Wilk Nusair interpolation
   ROPT   =    0.00000
 Ionic relaxation
   EDIFFG = 0.1E-04   stopping-criterion for IOM
   NSW    =      0    number of steps for IOM
   NBLOCK =      1;   KBLOCK =      1    inner block; outer block 
   IBRION =     -1    ionic relax: 0-MD 1-quasi-New 2-CG
   NFREE  =      0    steps in history (QN), initial steepest desc. (CG)
   ISIF   =      2    stress and relaxation
   IWAVPR =     10    prediction:  0-non 1-charg 2-wave 3-comb
   ISYM   =      2    0-nonsym 1-usesym 2-fastsym
   LCORR  =      T    Harris-Foulkes like correction to forces

   POTIM  = 0.0200    time-step for ionic-motion
   TEIN   =    0.0    initial temperature
   TEBEG  =    0.0;   TEEND  =   0.0 temperature during run
   SMASS  =  -3.00    Nose mass-parameter (am)
   estimated Nose-frequenzy (Omega)   =  0.10E-29 period in steps =****** mass=  -0.271E-27a.u.
   SCALEE = 1.0000    scale energy and forces
   NPACO  =    256;   APACO  = 16.0  distance and # of slots for P.C.
   PSTRESS=    0.0 pullay stress

  Mass of Ions in am
   POMASS =  12.01
  Ionic Valenz
   ZVAL   =   4.00
  Atomic Wigner-Seitz radii
   RWIGS  =  -1.00
  virtual crystal weights 
   VCA    =   1.00
   NELECT =      32.0000    total number of electrons
   NUPDOWN=      -1.0000    fix difference up-down

 DOS related values:
   EMIN   =  10.00;   EMAX   =-10.00  energy-range for DOS
   EFERMI =   0.00
   ISMEAR =    -5;   SIGMA  =   0.06  broadening in eV -4-tet -1-fermi 0-gaus

 Electronic relaxation 2 (details)
   IALGO  =     38    algorithm
   LDIAG  =      T    sub-space diagonalisation (order eigenvalues)
   LSUBROT=      F    optimize rotation matrix (better conditioning)
   TURBO    =      0    0=normal 1=particle mesh
   IRESTART =      0    0=no restart 2=restart with 2 vectors
   NREBOOT  =      0    no. of reboots
   NMIN     =      0    reboot dimension
   EREF     =   0.00    reference energy to select bands
   IMIX   =      4    mixing-type and parameters
     AMIX     =   0.40;   BMIX     =  1.00
     AMIX_MAG =   1.60;   BMIX_MAG =  1.00
     AMIN     =   0.10
     WC   =   100.;   INIMIX=   1;  MIXPRE=   1;  MAXMIX= -45

 Intra band minimization:
   WEIMIN = 0.0000     energy-eigenvalue tresh-hold
   EBREAK =  0.10E-07  absolut break condition
   DEPER  =   0.30     relativ break condition  

   TIME   =   0.40     timestep for ELM

  volume/ion in A,a.u.               =       5.10        34.44
  Fermi-wavevector in a.u.,A,eV,Ry     =   1.509396  2.852345 30.997836  2.278277
  Thomas-Fermi vector in A             =   2.619724
 
 Write flags
   LWAVE        =      F    write WAVECAR
   LDOWNSAMPLE  =      F    k-point downsampling of WAVECAR
   LCHARG       =      F    write CHGCAR
   LVTOT        =      F    write LOCPOT, total local potential
   LVHAR        =      F    write LOCPOT, Hartree potential only
   LELF         =      F    write electronic localiz. function (ELF)
   LORBIT       =      0    0 simple, 1 ext, 2 COOP (PROOUT), +10 PAW based schemes


 Dipole corrections
   LMONO  =      F    monopole corrections only (constant potential shift)
   LDIPOL =      F    correct potential (dipole corrections)
   IDIPOL =      0    1-x, 2-y, 3-z, 4-all directions 
   EPSILON=  1.0000000 bulk dielectric constant

 Exchange correlation treatment:
   GGA     =    --    GGA type
   LEXCH   =     8    internal setting for exchange type
   VOSKOWN=      0    Vosko Wilk Nusair interpolation
   LHFCALC =     F    Hartree Fock is set to
   LHFONE  =     F    Hartree Fock one center treatment
   AEXX    =    0.0000 exact exchange contribution

 Linear response parameters
   LEPSILON=     F    determine dielectric tensor
   LRPA    =     F    only Hartree local field effects (RPA)
   LNABLA  =     F    use nabla operator in PAW spheres
   LVEL    =     F    velocity operator in full k-point grid
   LINTERFAST=   F  fast interpolation
   KINTER  =     0    interpolate to denser k-point grid
   CSHIFT  =0.1000    complex shift for real part using Kramers Kronig
   OMEGAMAX=  -1.0    maximum frequency
   DEG_THRESHOLD= 0.2000000E-02 threshold for treating states as degnerate
   RTIME   =   -0.100 relaxation time in fs
  (WPLASMAI=    0.000 imaginary part of plasma frequency in eV, 0.658/RTIME)
   DFIELD  = 0.0000000 0.0000000 0.0000000 field for delta impulse in time
 
 Orbital magnetization related:
   ORBITALMAG=     F  switch on orbital magnetization
   LCHIMAG   =     F  perturbation theory with respect to B field
   DQ        =  0.001000  dq finite difference perturbation B field
   LLRAUG    =     F  two centre corrections for induced B field



--------------------------------------------------------------------------------------------------------


 Static calculation
 charge density and potential will be updated during run
 non-spin polarized calculation
 Variant of blocked Davidson
 Davidson routine will perform the subspace rotation
 perform sub-space diagonalisation
    after iterative eigenvector-optimisation
 modified Broyden-mixing scheme, WC =      100.0
 initial mixing is a Kerker type mixing with AMIX =  0.4000 and BMIX =      1.0000
 Hartree-type preconditioning will be used
 using additional bands            8
 reciprocal scheme for non local part
 calculate Harris-corrections to forces 
   (improved forces if not selfconsistent)
 use gradient corrections 
 use of overlap-Matrix (Vanderbilt PP)
 Fermi weights with tetrahedron method with Bloechl corrections


--------------------------------------------------------------------------------------------------------


  energy-cutoff  :      400.00
  volume of cell :       40.83
      direct lattice vectors                 reciprocal lattice vectors
     3.443406203  0.000000000  0.000000000     0.290410117  0.000000000  0.000000000
     0.000000000  3.443406203  0.000000000     0.000000000  0.290410117  0.000000000
     0.000000000  0.000000000  3.443406203     0.000000000  0.000000000  0.290410117

  length of vectors
     3.443406203  3.443406203  3.443406203     0.290410117  0.290410117  0.290410117


 
 k-points in units of 2pi/SCALE and weight: kpt_density=1000                        
   0.00000000  0.00000000  0.00000000       0.001
   0.02431115  0.00000000  0.00000000       0.003
   0.04862231  0.00000000  0.00000000       0.003
   0.07293346  0.00000000  0.00000000       0.003
   0.09724461  0.00000000  0.00000000       0.003
   0.12155577  0.00000000  0.00000000       0.003
   0.14586692  0.00000000  0.00000000       0.002
   0.02431115  0.02431115  0.00000000       0.007
   0.04862231  0.02431115  0.00000000       0.014
   0.07293346  0.02431115  0.00000000       0.014
   0.09724461  0.02431115  0.00000000       0.014
   0.12155577  0.02431115  0.00000000       0.014
   0.14586692  0.02431115  0.00000000       0.007
   0.04862231  0.04862231  0.00000000       0.007
   0.07293346  0.04862231  0.00000000       0.014
   0.09724461  0.04862231  0.00000000       0.014
   0.12155577  0.04862231  0.00000000       0.014
   0.14586692  0.04862231  0.00000000       0.007
   0.07293346  0.07293346  0.00000000       0.007
   0.09724461  0.07293346  0.00000000       0.014
   0.12155577  0.07293346  0.00000000       0.014
   0.14586692  0.07293346  0.00000000       0.007
   0.09724461  0.09724461  0.00000000       0.007
   0.12155577  0.09724461  0.00000000       0.014
   0.14586692  0.09724461  0.00000000       0.007
   0.12155577  0.12155577  0.00000000       0.007
   0.14586692  0.12155577  0.00000000       0.007
   0.14586692  0.14586692  0.00000000       0.002
   0.02431115  0.02431115  0.02431115       0.005
   0.04862231  0.02431115  0.02431115       0.014
   0.07293346  0.02431115  0.02431115       0.014
   0.09724461  0.02431115  0.02431115       0.014
   0.12155577  0.02431115  0.02431115       0.014
   0.14586692  0.02431115  0.02431115       0.007
   0.04862231  0.04862231  0.02431115       0.014
   0.07293346  0.04862231  0.02431115       0.028
   0.09724461  0.04862231  0.02431115       0.028
   0.12155577  0.04862231  0.02431115       0.028
   0.14586692  0.04862231  0.02431115       0.014
   0.07293346  0.07293346  0.02431115       0.014
   0.09724461  0.07293346  0.02431115       0.028
   0.12155577  0.07293346  0.02431115       0.028
   0.14586692  0.07293346  0.02431115       0.014
   0.09724461  0.09724461  0.02431115       0.014
   0.12155577  0.09724461  0.02431115       0.028
   0.14586692  0.09724461  0.02431115       0.014
   0.12155577  0.12155577  0.02431115       0.014
   0.14586692  0.12155577  0.02431115       0.014
   0.14586692  0.14586692  0.02431115       0.003
   0.04862231  0.04862231  0.04862231       0.005
   0.07293346  0.04862231  0.04862231       0.014
   0.09724461  0.04862231  0.04862231       0.014
   0.12155577  0.04862231  0.04862231       0.014
   0.14586692  0.04862231  0.04862231       0.007
   0.07293346  0.07293346  0.04862231       0.014
   0.09724461  0.07293346  0.04862231       0.028
   0.12155577  0.07293346  0.04862231       0.028
   0.14586692  0.07293346  0.04862231       0.014
   0.09724461  0.09724461  0.04862231       0.014
   0.12155577  0.09724461  0.04862231       0.028
   0.14586692  0.09724461  0.04862231       0.014
   0.12155577  0.12155577  0.04862231       0.014
   0.14586692  0.12155577  0.04862231       0.014
   0.14586692  0.14586692  0.04862231       0.003
   0.07293346  0.07293346  0.07293346       0.005
   0.09724461  0.07293346  0.07293346       0.014
   0.12155577  0.07293346  0.07293346       0.014
   0.14586692  0.07293346  0.07293346       0.007
   0.09724461  0.09724461  0.07293346       0.014
   0.12155577  0.09724461  0.07293346       0.028
   0.14586692  0.09724461  0.07293346       0.014
   0.12155577  0.12155577  0.07293346       0.014
   0.14586692  0.12155577  0.07293346       0.014
   0.14586692  0.14586692  0.07293346       0.003
   0.09724461  0.09724461  0.09724461       0.005
   0.12155577  0.09724461  0.09724461       0.014
   0.14586692  0.09724461  0.09724461       0.007
   0.12155577  0.12155577  0.09724461       0.014
   0.14586692  0.12155577  0.09724461       0.014
   0.14586692  0.14586692  0.09724461       0.003
   0.12155577  0.12155577  0.12155577       0.005
   0.14586692  0.12155577  0.12155577       0.007
   0.14586692  0.14586692  0.12155577       0.003
   0.14586692  0.14586692  0.14586692       0.001
 
 k-points in reciprocal lattice and weights: kpt_density=1000                        
   0.00000000  0.00000000  0.00000000       0.001
   0.08333333  0.00000000  0.00000000       0.003
   0.16666667  0.00000000  0.00000000       0.003
   0.25000000  0.00000000  0.00000000       0.003
   0.33333333  0.00000000  0.00000000       0.003
   0.41666667  0.00000000  0.00000000       0.003
   0.50000000  0.00000000  0.00000000       0.002
   0.08333333  0.08333333  0.00000000       0.007
   0.16666667  0.08333333  0.00000000       0.014
   0.25000000  0.08333333  0.00000000       0.014
   0.33333333  0.08333333  0.00000000       0.014
   0.41666667  0.08333333  0.00000000       0.014
   0.50000000  0.08333333  0.00000000       0.007
   0.16666667  0.16666667  0.00000000       0.007
   0.25000000  0.16666667  0.00000000       0.014
   0.33333333  0.16666667  0.00000000       0.014
   0.41666667  0.16666667  0.00000000       0.014
   0.50000000  0.16666667  0.00000000       0.007
   0.25000000  0.25000000  0.00000000       0.007
   0.33333333  0.25000000  0.00000000       0.014
   0.41666667  0.25000000  0.00000000       0.014
   0.50000000  0.25000000  0.00000000       0.007
   0.33333333  0.33333333  0.00000000       0.007
   0.41666667  0.33333333  0.00000000       0.014
   0.50000000  0.33333333  0.00000000       0.007
   0.41666667  0.41666667  0.00000000       0.007
   0.50000000  0.41666667  0.00000000       0.007
   0.50000000  0.50000000  0.00000000       0.002
   0.08333333  0.08333333  0.08333333       0.005
   0.16666667  0.08333333  0.08333333       0.014
   0.25000000  0.08333333  0.08333333       0.014
   0.33333333  0.08333333  0.08333333       0.014
   0.41666667  0.08333333  0.08333333       0.014
   0.50000000  0.08333333  0.08333333       0.007
   0.16666667  0.16666667  0.08333333       0.014
   0.25000000  0.16666667  0.08333333       0.028
   0.33333333  0.16666667  0.08333333       0.028
   0.41666667  0.16666667  0.08333333       0.028
   0.50000000  0.16666667  0.08333333       0.014
   0.25000000  0.25000000  0.08333333       0.014
   0.33333333  0.25000000  0.08333333       0.028
   0.41666667  0.25000000  0.08333333       0.028
   0.50000000  0.25000000  0.08333333       0.014
   0.33333333  0.33333333  0.08333333       0.014
   0.41666667  0.33333333  0.08333333       0.028
   0.50000000  0.33333333  0.08333333       0.014
   0.41666667  0.41666667  0.08333333       0.014
   0.50000000  0.41666667  0.08333333       0.014
   0.50000000  0.50000000  0.08333333       0.003
   0.16666667  0.16666667  0.16666667       0.005
   0.25000000  0.16666667  0.16666667       0.014
   0.33333333  0.16666667  0.16666667       0.014
   0.41666667  0.16666667  0.16666667       0.014
   0.50000000  0.16666667  0.16666667       0.007
   0.25000000  0.25000000  0.16666667       0.014
   0.33333333  0.25000000  0.16666667       0.028
   0.41666667  0.25000000  0.16666667       0.028
   0.50000000  0.25000000  0.16666667       0.014
   0.33333333  0.33333333  0.16666667       0.014
   0.41666667  0.33333333  0.16666667       0.028
   0.50000000  0.33333333  0.16666667       0.014
   0.41666667  0.41666667  0.16666667       0.014
   0.50000000  0.41666667  0.16666667       0.014
   0.50000000  0.50000000  0.16666667       0.003
   0.25000000  0.25000000  0.25000000       0.005
   0.33333333  0.25000000  0.25000000       0.014
   0.41666667  0.25000000  0.25000000       0.014
   0.50000000  0.25000000  0.25000000       0.007
   0.33333333  0.33333333  0.25000000       0.014
   0.41666667  0.33333333  0.25000000       0.028
   0.50000000  0.33333333  0.25000000       0.014
   0.41666667  0.41666667  0.25000000       0.014
   0.50000000  0.41666667  0.25000000       0.014
   0.50000000  0.50000000  0.25000000       0.003
   0.33333333  0.33333333  0.33333333       0.005
   0.41666667  0.33333333  0.33333333       0.014
   0.50000000  0.33333333  0.33333333       0.007
   0.41666667  0.41666667  0.33333333       0.014
   0.50000000  0.41666667  0.33333333       0.014
   0.50000000  0.50000000  0.33333333       0.003
   0.41666667  0.41666667  0.41666667       0.005
   0.50000000  0.41666667  0.41666667       0.007
   0.50000000  0.50000000  0.41666667       0.003
   0.50000000  0.50000000  0.50000000       0.001
 
 position of ions in fractional coordinates (direct lattice) 
   0.25000000  0.75000000  0.25000000
   0.00000000  0.00000000  0.50000000
   0.25000000  0.25000000  0.75000000
   0.00000000  0.50000000  0.00000000
   0.75000000  0.75000000  0.75000000
   0.50000000  0.00000000  0.00000000
   0.75000000  0.25000000  0.25000000
   0.50000000  0.50000000  0.50000000
 
 position of ions in cartesian coordinates  (Angst):
   0.86085155  2.58255465  0.86085155
   0.00000000  0.00000000  1.72170310
   0.86085155  0.86085155  2.58255465
   0.00000000  1.72170310  0.00000000
   2.58255465  2.58255465  2.58255465
   1.72170310  0.00000000  0.00000000
   2.58255465  0.86085155  0.86085155
   1.72170310  1.72170310  1.72170310
 


--------------------------------------------------------------------------------------------------------


 k-point  1 :   0.0000 0.0000 0.0000  plane waves:     739
 k-point  2 :   0.0833 0.0000 0.0000  plane waves:     743
 k-point  3 :   0.1667 0.0000 0.0000  plane waves:     739
 k-point  4 :   0.2500 0.0000 0.0000  plane waves:     743
 k-point  5 :   0.3333 0.0000 0.0000  plane waves:     743
 k-point  6 :   0.4167 0.0000 0.0000  plane waves:     744
 k-point  7 :   0.5000 0.0000 0.0000  plane waves:     756
 k-point  8 :   0.0833 0.0833 0.0000  plane waves:     744
 k-point  9 :   0.1667 0.0833 0.0000  plane waves:     741
 k-point 10 :   0.2500 0.0833 0.0000  plane waves:     743
 k-point 11 :   0.3333 0.0833 0.0000  plane waves:     748
 k-point 12 :   0.4167 0.0833 0.0000  plane waves:     750
 k-point 13 :   0.5000 0.0833 0.0000  plane waves:     742
 k-point 14 :   0.1667 0.1667 0.0000  plane waves:     748
 k-point 15 :   0.2500 0.1667 0.0000  plane waves:     745
 k-point 16 :   0.3333 0.1667 0.0000  plane waves:     748
 k-point 17 :   0.4167 0.1667 0.0000  plane waves:     742
 k-point 18 :   0.5000 0.1667 0.0000  plane waves:     748
 k-point 19 :   0.2500 0.2500 0.0000  plane waves:     730
 k-point 20 :   0.3333 0.2500 0.0000  plane waves:     743
 k-point 21 :   0.4167 0.2500 0.0000  plane waves:     739
 k-point 22 :   0.5000 0.2500 0.0000  plane waves:     740
 k-point 23 :   0.3333 0.3333 0.0000  plane waves:     748
 k-point 24 :   0.4167 0.3333 0.0000  plane waves:     740
 k-point 25 :   0.5000 0.3333 0.0000  plane waves:     740
 k-point 26 :   0.4167 0.4167 0.0000  plane waves:     744
 k-point 27 :   0.5000 0.4167 0.0000  plane waves:     744
 k-point 28 :   0.5000 0.5000 0.0000  plane waves:     768
 k-point 29 :   0.0833 0.0833 0.0833  plane waves:     748
 k-point 30 :   0.1667 0.0833 0.0833  plane waves:     744
 k-point 31 :   0.2500 0.0833 0.0833  plane waves:     740
 k-point 32 :   0.3333 0.0833 0.0833  plane waves:     748
 k-point 33 :   0.4167 0.0833 0.0833  plane waves:     746
 k-point 34 :   0.5000 0.0833 0.0833  plane waves:     750
 k-point 35 :   0.1667 0.1667 0.0833  plane waves:     744
 k-point 36 :   0.2500 0.1667 0.0833  plane waves:     737
 k-point 37 :   0.3333 0.1667 0.0833  plane waves:     743
 k-point 38 :   0.4167 0.1667 0.0833  plane waves:     746
 k-point 39 :   0.5000 0.1667 0.0833  plane waves:     748
 k-point 40 :   0.2500 0.2500 0.0833  plane waves:     742
 k-point 41 :   0.3333 0.2500 0.0833  plane waves:     747
 k-point 42 :   0.4167 0.2500 0.0833  plane waves:     746
 k-point 43 :   0.5000 0.2500 0.0833  plane waves:     748
 k-point 44 :   0.3333 0.3333 0.0833  plane waves:     743
 k-point 45 :   0.4167 0.3333 0.0833  plane waves:     741
 k-point 46 :   0.5000 0.3333 0.0833  plane waves:     730
 k-point 47 :   0.4167 0.4167 0.0833  plane waves:     746
 k-point 48 :   0.5000 0.4167 0.0833  plane waves:     740
 k-point 49 :   0.5000 0.5000 0.0833  plane waves:     744
 k-point 50 :   0.1667 0.1667 0.1667  plane waves:     748
 k-point 51 :   0.2500 0.1667 0.1667  plane waves:     740
 k-point 52 :   0.3333 0.1667 0.1667  plane waves:     745
 k-point 53 :   0.4167 0.1667 0.1667  plane waves:     744
 k-point 54 :   0.5000 0.1667 0.1667  plane waves:     736
 k-point 55 :   0.2500 0.2500 0.1667  plane waves:     747
 k-point 56 :   0.3333 0.2500 0.1667  plane waves:     740
 k-point 57 :   0.4167 0.2500 0.1667  plane waves:     743
 k-point 58 :   0.5000 0.2500 0.1667  plane waves:     750
 k-point 59 :   0.3333 0.3333 0.1667  plane waves:     738
 k-point 60 :   0.4167 0.3333 0.1667  plane waves:     741
 k-point 61 :   0.5000 0.3333 0.1667  plane waves:     744
 k-point 62 :   0.4167 0.4167 0.1667  plane waves:     736
 k-point 63 :   0.5000 0.4167 0.1667  plane waves:     736
 k-point 64 :   0.5000 0.5000 0.1667  plane waves:     736
 k-point 65 :   0.2500 0.2500 0.2500  plane waves:     738
 k-point 66 :   0.3333 0.2500 0.2500  plane waves:     739
 k-point 67 :   0.4167 0.2500 0.2500  plane waves:     745
 k-point 68 :   0.5000 0.2500 0.2500  plane waves:     748
 k-point 69 :   0.3333 0.3333 0.2500  plane waves:     736
 k-point 70 :   0.4167 0.3333 0.2500  plane waves:     739
 k-point 71 :   0.5000 0.3333 0.2500  plane waves:     738
 k-point 72 :   0.4167 0.4167 0.2500  plane waves:     733
 k-point 73 :   0.5000 0.4167 0.2500  plane waves:     736
 k-point 74 :   0.5000 0.5000 0.2500  plane waves:     732
 k-point 75 :   0.3333 0.3333 0.3333  plane waves:     729
 k-point 76 :   0.4167 0.3333 0.3333  plane waves:     734
 k-point 77 :   0.5000 0.3333 0.3333  plane waves:     744
 k-point 78 :   0.4167 0.4167 0.3333  plane waves:     730
 k-point 79 :   0.5000 0.4167 0.3333  plane waves:     726
 k-point 80 :   0.5000 0.5000 0.3333  plane waves:     724
 k-point 81 :   0.4167 0.4167 0.4167  plane waves:     729
 k-point 82 :   0.5000 0.4167 0.4167  plane waves:     710
 k-point 83 :   0.5000 0.5000 0.4167  plane waves:     716
 k-point 84 :   0.5000 0.5000 0.5000  plane waves:     720

 maximum and minimum number of plane-waves per node :       196      174

 maximum number of plane-waves:       768
 maximum index in each direction: 
   IXMAX=    5   IYMAX=    5   IZMAX=    5
   IXMIN=   -6   IYMIN=   -6   IZMIN=   -6


 parallel 3D FFT for wavefunctions:
    minimum data exchange during FFTs selected (reduces bandwidth)
 parallel 3D FFT for charge:
    minimum data exchange during FFTs selected (reduces bandwidth)


 total amount of memory used by VASP MPI-rank0    33565. kBytes
=======================================================================

   base      :      30000. kBytes
   nonl-proj :       1056. kBytes
   fftplans  :        345. kBytes
   grid      :        481. kBytes
   one-center:          6. kBytes
   wavefun   :       1677. kBytes
 
     INWAV:  cpu time    0.0004: real time    0.0005
 Broyden mixing: mesh for mixing (old mesh)
   NGX = 11   NGY = 11   NGZ = 11
  (NGX  = 48   NGY  = 48   NGZ  = 48)
  gives a total of   1331 points

 initial charge density was supplied:
 charge density of overlapping atoms calculated
 number of electron      32.0000000 magnetization 
 keeping initial charge density in first step


--------------------------------------------------------------------------------------------------------


 Maximum index for augmentation-charges          293 (set IRDMAX)


--------------------------------------------------------------------------------------------------------


 First call to EWALD:  gamma=   0.515
 Maximum number of real-space cells 3x 3x 3
 Maximum number of reciprocal cells 3x 3x 3

    FEWALD:  cpu time    0.0053: real time    0.0053


--------------------------------------- Iteration      1(   1)  ---------------------------------------


    POTLOK:  cpu time    0.0244: real time    0.0285
    SETDIJ:  cpu time    0.0066: real time    0.0066
     EDDAV:  cpu time    3.7574: real time    3.7690
 BZINTS: Fermi energy: 20.146669; 32.000000 electrons
         Band energy: 149.649955;  BLOECHL correction: -0.174449
       DOS:  cpu time    0.1356: real time    0.1356
    --------------------------------------------
      LOOP:  cpu time    3.9241: real time    3.9399

 eigenvalue-minimisations  :  4032
 total energy-change (2. order) : 0.5912485E+02  (-0.1464677E+04)
 number of electron      32.0000000 magnetization 
 augmentation part       32.0000000 magnetization 

 Free energy of the ion-electron system (eV)
  ---------------------------------------------------
  alpha Z        PSCENC =       127.72240743
  Ewald energy   TEWEN  =     -1441.71196968
  -Hartree energ DENC   =       -61.51704065
  -exchange      EXHF   =         0.00000000
  -V(xc)+E(xc)   XCENC  =       117.16754405
  PAW double counting   =       302.65154477     -311.85538214
  entropy T*S    EENTRO =         0.00000000
  eigenvalues    EBANDS =       149.64995535
  atomic energy  EATOM  =      1177.01779097
  Solvation  Ediel_sol  =         0.00000000
  ---------------------------------------------------
  free energy    TOTEN  =        59.12485010 eV

  energy without entropy =       59.12485010  energy(sigma->0) =       59.12485010


--------------------------------------------------------------------------------------------------------




--------------------------------------- Iteration      1(   2)  ---------------------------------------


     EDDAV:  cpu time    4.6595: real time    5.6371
 BZINTS: Fermi energy: 10.204371; 32.000000 electrons
         Band energy:  19.134930;  BLOECHL correction:  0.000000
       DOS:  cpu time    0.0366: real time    0.0366
    --------------------------------------------
      LOOP:  cpu time    4.6961: real time    5.6737

 eigenvalue-minimisations  :  5592
 total energy-change (2. order) :-0.1305150E+03  (-0.1243027E+03)
 number of electron      32.0000000 magnetization 
 augmentation part       32.0000000 magnetization 

 Free energy of the ion-electron system (eV)
  ---------------------------------------------------
  alpha Z        PSCENC =       127.72240743
  Ewald energy   TEWEN  =     -1441.71196968
  -Hartree energ DENC   =       -61.51704065
  -exchange      EXHF   =         0.00000000
  -V(xc)+E(xc)   XCENC  =       117.16754405
  PAW double counting   =       302.65154477     -311.85538214
  entropy T*S    EENTRO =         0.00000000
  eigenvalues    EBANDS =        19.13492995
  atomic energy  EATOM  =      1177.01779097
  Solvation  Ediel_sol  =         0.00000000
  ---------------------------------------------------
  free energy    TOTEN  =       -71.39017530 eV

  energy without entropy =      -71.39017530  energy(sigma->0) =      -71.39017530


--------------------------------------------------------------------------------------------------------




--------------------------------------- Iteration      1(   3)  ---------------------------------------


     EDDAV:  cpu time    4.4356: real time    4.4391
 BZINTS: Fermi energy:  9.804556; 32.000000 electrons
         Band energy:  15.177211;  BLOECHL correction:  0.000000
       DOS:  cpu time    0.0361: real time    0.0361
    --------------------------------------------
      LOOP:  cpu time    4.4717: real time    4.4752

 eigenvalue-minimisations  :  5176
 total energy-change (2. order) :-0.3957719E+01  (-0.3943380E+01)
 number of electron      32.0000000 magnetization 
 augmentation part       32.0000000 magnetization 

 Free energy of the ion-electron system (eV)
  ---------------------------------------------------
  alpha Z        PSCENC =       127.72240743
  Ewald energy   TEWEN  =     -1441.71196968
  -Hartree energ DENC   =       -61.51704065
  -exchange      EXHF   =         0.00000000
  -V(xc)+E(xc)   XCENC  =       117.16754405
  PAW double counting   =       302.65154477     -311.85538214
  entropy T*S    EENTRO =         0.00000000
  eigenvalues    EBANDS =        15.17721122
  atomic energy  EATOM  =      1177.01779097
  Solvation  Ediel_sol  =         0.00000000
  ---------------------------------------------------
  free energy    TOTEN  =       -75.34789403 eV

  energy without entropy =      -75.34789403  energy(sigma->0) =      -75.34789403


--------------------------------------------------------------------------------------------------------




--------------------------------------- Iteration      1(   4)  ---------------------------------------


     EDDAV:  cpu time    4.2923: real time    4.2929
 BZINTS: Fermi energy:  9.733474; 32.000000 electrons
         Band energy:  15.142991;  BLOECHL correction:  0.000000
       DOS:  cpu time    0.0364: real time    0.0364
    --------------------------------------------
      LOOP:  cpu time    4.3287: real time    4.3293

 eigenvalue-minimisations  :  4968
 total energy-change (2. order) :-0.3422015E-01  (-0.3419613E-01)
 number of electron      32.0000000 magnetization 
 augmentation part       32.0000000 magnetization 

 Free energy of the ion-electron system (eV)
  ---------------------------------------------------
  alpha Z        PSCENC =       127.72240743
  Ewald energy   TEWEN  =     -1441.71196968
  -Hartree energ DENC   =       -61.51704065
  -exchange      EXHF   =         0.00000000
  -V(xc)+E(xc)   XCENC  =       117.16754405
  PAW double counting   =       302.65154477     -311.85538214
  entropy T*S    EENTRO =         0.00000000
  eigenvalues    EBANDS =        15.14299107
  atomic energy  EATOM  =      1177.01779097
  Solvation  Ediel_sol  =         0.00000000
  ---------------------------------------------------
  free energy    TOTEN  =       -75.38211418 eV

  energy without entropy =      -75.38211418  energy(sigma->0) =      -75.38211418


--------------------------------------------------------------------------------------------------------




--------------------------------------- Iteration      1(   5)  ---------------------------------------


     EDDAV:  cpu time    4.4354: real time    4.4360
 BZINTS: Fermi energy:  9.717982; 32.000000 electrons
         Band energy:  15.142406;  BLOECHL correction:  0.000000
       DOS:  cpu time    0.0362: real time    0.0362
    CHARGE:  cpu time    0.1129: real time    0.1129
    MIXING:  cpu time    0.0016: real time    0.0016
    --------------------------------------------
      LOOP:  cpu time    4.5862: real time    4.5868

 eigenvalue-minimisations  :  5184
 total energy-change (2. order) :-0.5853147E-03  (-0.5851713E-03)
 number of electron      31.9999964 magnetization 
 augmentation part        0.8773920 magnetization 

 Broyden mixing:
  rms(total) = 0.10790E+01    rms(broyden)= 0.10788E+01
  rms(prec ) = 0.26084E+01
  weight for this iteration     100.00

 Free energy of the ion-electron system (eV)
  ---------------------------------------------------
  alpha Z        PSCENC =       127.72240743
  Ewald energy   TEWEN  =     -1441.71196968
  -Hartree energ DENC   =       -61.51704065
  -exchange      EXHF   =         0.00000000
  -V(xc)+E(xc)   XCENC  =       117.16754405
  PAW double counting   =       302.65154477     -311.85538214
  entropy T*S    EENTRO =         0.00000000
  eigenvalues    EBANDS =        15.14240576
  atomic energy  EATOM  =      1177.01779097
  Solvation  Ediel_sol  =         0.00000000
  ---------------------------------------------------
  free energy    TOTEN  =       -75.38269950 eV

  energy without entropy =      -75.38269950  energy(sigma->0) =      -75.38269950


--------------------------------------------------------------------------------------------------------




--------------------------------------- Iteration      1(   6)  ---------------------------------------


    POTLOK:  cpu time    0.0190: real time    0.0196
    SETDIJ:  cpu time    0.0057: real time    0.0057
     EDDAV:  cpu time    3.9819: real time    3.9821
 BZINTS: Fermi energy: 10.541815; 32.000000 electrons
         Band energy:  33.373321;  BLOECHL correction:  0.000000
       DOS:  cpu time    0.0366: real time    0.0366
    CHARGE:  cpu time    0.1150: real time    0.1150
    MIXING:  cpu time    0.0018: real time    0.0018
    --------------------------------------------
      LOOP:  cpu time    4.1600: real time    4.1608

 eigenvalue-minimisations  :  4432
 total energy-change (2. order) : 0.2576118E+01  (-0.1668327E+00)
 number of electron      31.9999965 magnetization 
 augmentation part        0.8557160 magnetization 

 Broyden mixing:
  rms(total) = 0.58210E+00    rms(broyden)= 0.58209E+00
  rms(prec ) = 0.13934E+01
  weight for this iteration     100.00

 eigenvalues of (default mixing * dielectric matrix)
  average eigenvalue GAMMA=   2.1328
  2.1328

 Free energy of the ion-electron system (eV)
  ---------------------------------------------------
  alpha Z        PSCENC =       127.72240743
  Ewald energy   TEWEN  =     -1441.71196968
  -Hartree energ DENC   =       -78.03938110
  -exchange      EXHF   =         0.00000000
  -V(xc)+E(xc)   XCENC  =       118.73109419
  PAW double counting   =       415.53151551     -425.43136035
  entropy T*S    EENTRO =         0.00000000
  eigenvalues    EBANDS =        33.37332132
  atomic energy  EATOM  =      1177.01779097
  Solvation  Ediel_sol  =         0.00000000
  ---------------------------------------------------
  free energy    TOTEN  =       -72.80658170 eV

  energy without entropy =      -72.80658170  energy(sigma->0) =      -72.80658170


--------------------------------------------------------------------------------------------------------




--------------------------------------- Iteration      1(   7)  ---------------------------------------


    POTLOK:  cpu time    0.0198: real time    0.0201
    SETDIJ:  cpu time    0.0058: real time    0.0058
     EDDAV:  cpu time    4.0102: real time    4.0104
 BZINTS: Fermi energy: 11.438113; 32.000000 electrons
         Band energy:  54.010693;  BLOECHL correction:  0.000000
       DOS:  cpu time    0.0364: real time    0.0364
    CHARGE:  cpu time    0.1110: real time    0.1110
    MIXING:  cpu time    0.0018: real time    0.0018
    --------------------------------------------
      LOOP:  cpu time    4.1849: real time    4.1854

 eigenvalue-minimisations  :  4552
 total energy-change (2. order) : 0.8663961E+00  (-0.1832704E+00)
 number of electron      31.9999966 magnetization 
 augmentation part        0.8322333 magnetization 

 Broyden mixing:
  rms(total) = 0.72265E-01    rms(broyden)= 0.71937E-01
  rms(prec ) = 0.12629E+00
  weight for this iteration     100.00

 eigenvalues of (default mixing * dielectric matrix)
  average eigenvalue GAMMA=   2.2690
  2.0019  2.5360

 Free energy of the ion-electron system (eV)
  ---------------------------------------------------
  alpha Z        PSCENC =       127.72240743
  Ewald energy   TEWEN  =     -1441.71196968
  -Hartree energ DENC   =       -99.15569505
  -exchange      EXHF   =         0.00000000
  -V(xc)+E(xc)   XCENC  =       120.74279621
  PAW double counting   =       572.28919553     -582.85540445
  entropy T*S    EENTRO =         0.00000000
  eigenvalues    EBANDS =        54.01069346
  atomic energy  EATOM  =      1177.01779097
  Solvation  Ediel_sol  =         0.00000000
  ---------------------------------------------------
  free energy    TOTEN  =       -71.94018559 eV

  energy without entropy =      -71.94018559  energy(sigma->0) =      -71.94018559


--------------------------------------------------------------------------------------------------------




--------------------------------------- Iteration      1(   8)  ---------------------------------------


    POTLOK:  cpu time    0.0194: real time    0.0200
    SETDIJ:  cpu time    0.0059: real time    0.0059
     EDDAV:  cpu time    4.3224: real time    4.3227
 BZINTS: Fermi energy: 11.446456; 32.000000 electrons
         Band energy:  54.419817;  BLOECHL correction:  0.000000
       DOS:  cpu time    0.0373: real time    0.0373
    CHARGE:  cpu time    0.1140: real time    0.1140
    MIXING:  cpu time    0.0020: real time    0.0020
    --------------------------------------------
      LOOP:  cpu time    4.5010: real time    4.5019

 eigenvalue-minimisations  :  5056
 total energy-change (2. order) :-0.8672640E-02  (-0.3369521E-02)
 number of electron      31.9999966 magnetization 
 augmentation part        0.8321550 magnetization 

 Broyden mixing:
  rms(total) = 0.87949E-02    rms(broyden)= 0.86839E-02
  rms(prec ) = 0.15445E-01
  weight for this iteration     100.00

 eigenvalues of (default mixing * dielectric matrix)
  average eigenvalue GAMMA=   2.0961
  1.4362  2.6952  2.1570

 Free energy of the ion-electron system (eV)
  ---------------------------------------------------
  alpha Z        PSCENC =       127.72240743
  Ewald energy   TEWEN  =     -1441.71196968
  -Hartree energ DENC   =       -99.77075416
  -exchange      EXHF   =         0.00000000
  -V(xc)+E(xc)   XCENC  =       120.80683750
  PAW double counting   =       587.97717937     -598.41016684
  entropy T*S    EENTRO =         0.00000000
  eigenvalues    EBANDS =        54.41981719
  atomic energy  EATOM  =      1177.01779097
  Solvation  Ediel_sol  =         0.00000000
  ---------------------------------------------------
  free energy    TOTEN  =       -71.94885823 eV

  energy without entropy =      -71.94885823  energy(sigma->0) =      -71.94885823


--------------------------------------------------------------------------------------------------------




--------------------------------------- Iteration      1(   9)  ---------------------------------------


    POTLOK:  cpu time    0.0211: real time    0.1182
    SETDIJ:  cpu time    0.0058: real time    0.0058
     EDDAV:  cpu time    4.2178: real time    4.2180
 BZINTS: Fermi energy: 11.423991; 32.000000 electrons
         Band energy:  54.304154;  BLOECHL correction:  0.000000
       DOS:  cpu time    0.0362: real time    0.0362
    CHARGE:  cpu time    0.1117: real time    0.1117
    MIXING:  cpu time    0.0018: real time    0.0018
    --------------------------------------------
      LOOP:  cpu time    4.3944: real time    4.4918

 eigenvalue-minimisations  :  4744
 total energy-change (2. order) :-0.1923852E-03  (-0.4250413E-04)
 number of electron      31.9999966 magnetization 
 augmentation part        0.8321564 magnetization 

 Broyden mixing:
  rms(total) = 0.29514E-02    rms(broyden)= 0.29426E-02
  rms(prec ) = 0.51135E-02
  weight for this iteration     100.00

 eigenvalues of (default mixing * dielectric matrix)
  average eigenvalue GAMMA=   2.0317
  0.9719  2.7364  2.4234  1.9952

 Free energy of the ion-electron system (eV)
  ---------------------------------------------------
  alpha Z        PSCENC =       127.72240743
  Ewald energy   TEWEN  =     -1441.71196968
  -Hartree energ DENC   =       -99.66278266
  -exchange      EXHF   =         0.00000000
  -V(xc)+E(xc)   XCENC  =       120.79661477
  PAW double counting   =       587.42724584     -597.84251109
  entropy T*S    EENTRO =         0.00000000
  eigenvalues    EBANDS =        54.30415382
  atomic energy  EATOM  =      1177.01779097
  Solvation  Ediel_sol  =         0.00000000
  ---------------------------------------------------
  free energy    TOTEN  =       -71.94905061 eV

  energy without entropy =      -71.94905061  energy(sigma->0) =      -71.94905061


--------------------------------------------------------------------------------------------------------




--------------------------------------- Iteration      1(  10)  ---------------------------------------


    POTLOK:  cpu time    0.0192: real time    0.0197
    SETDIJ:  cpu time    0.0058: real time    0.0058
     EDDAV:  cpu time    4.3778: real time    4.3780
 BZINTS: Fermi energy: 11.391656; 32.000000 electrons
         Band energy:  54.333869;  BLOECHL correction:  0.000000
       DOS:  cpu time    0.0366: real time    0.0366
    CHARGE:  cpu time    0.1133: real time    0.1133
    MIXING:  cpu time    0.0020: real time    0.0020
    --------------------------------------------
      LOOP:  cpu time    4.5547: real time    4.5554

 eigenvalue-minimisations  :  5072
 total energy-change (2. order) :-0.4666770E-04  (-0.3570319E-05)
 number of electron      31.9999966 magnetization 
 augmentation part        0.8321369 magnetization 

 Broyden mixing:
  rms(total) = 0.28391E-03    rms(broyden)= 0.27916E-03
  rms(prec ) = 0.67727E-03
  weight for this iteration     100.00

 eigenvalues of (default mixing * dielectric matrix)
  average eigenvalue GAMMA=   1.9439
  2.8982  2.5550  2.0579  0.9952  1.2132

 Free energy of the ion-electron system (eV)
  ---------------------------------------------------
  alpha Z        PSCENC =       127.72240743
  Ewald energy   TEWEN  =     -1441.71196968
  -Hartree energ DENC   =       -99.69404833
  -exchange      EXHF   =         0.00000000
  -V(xc)+E(xc)   XCENC  =       120.79914336
  PAW double counting   =       586.65153071     -597.06782065
  entropy T*S    EENTRO =         0.00000000
  eigenvalues    EBANDS =        54.33386891
  atomic energy  EATOM  =      1177.01779097
  Solvation  Ediel_sol  =         0.00000000
  ---------------------------------------------------
  free energy    TOTEN  =       -71.94909728 eV

  energy without entropy =      -71.94909728  energy(sigma->0) =      -71.94909728


--------------------------------------------------------------------------------------------------------




--------------------------------------- Iteration      1(  11)  ---------------------------------------


    POTLOK:  cpu time    0.0203: real time    0.0207
    SETDIJ:  cpu time    0.0059: real time    0.0059
     EDDAV:  cpu time    3.6612: real time    3.6615
 BZINTS: Fermi energy: 11.364743; 32.000000 electrons
         Band energy:  54.346103;  BLOECHL correction:  0.000000
       DOS:  cpu time    0.0365: real time    0.0365
    --------------------------------------------
      LOOP:  cpu time    3.7239: real time    3.7245

 eigenvalue-minimisations  :  3672
 total energy-change (2. order) :-0.7652100E-06  (-0.9594626E-07)
 number of electron      31.9999966 magnetization 
 augmentation part        0.8321369 magnetization 

 Free energy of the ion-electron system (eV)
  ---------------------------------------------------
  alpha Z        PSCENC =       127.72240743
  Ewald energy   TEWEN  =     -1441.71196968
  -Hartree energ DENC   =       -99.70686691
  -exchange      EXHF   =         0.00000000
  -V(xc)+E(xc)   XCENC  =       120.80031922
  PAW double counting   =       586.65656400     -597.07344639
  entropy T*S    EENTRO =         0.00000000
  eigenvalues    EBANDS =        54.34610332
  atomic energy  EATOM  =      1177.01779097
  Solvation  Ediel_sol  =         0.00000000
  ---------------------------------------------------
  free energy    TOTEN  =       -71.94909804 eV

  energy without entropy =      -71.94909804  energy(sigma->0) =      -71.94909804


--------------------------------------------------------------------------------------------------------




 average (electrostatic) potential at core
  the test charge radii are     0.6991
  (the norm of the test charge is              1.0000)
       1 -43.8122       2 -43.8122       3 -43.8122       4 -43.8122       5 -43.8122
       6 -43.8122       7 -43.8122       8 -43.8122
 
 
 
 E-fermi :  11.3647     XC(G=0): -13.7581     alpha+bet :-19.6705


 k-point     1 :       0.0000    0.0000    0.0000
  band No.  band energies     occupation 
      1     -11.6015      2.00000
      2      -2.2003      2.00000
      3      -2.2003      2.00000
      4      -2.2003      2.00000
      5      -2.2003      2.00000
      6      -2.2003      2.00000
      7      -2.2003      2.00000
      8       4.3840      2.00000
      9       4.3840      2.00000
     10       4.3840      2.00000
     11       4.3840      2.00000
     12       4.3840      2.00000
     13       4.3840      2.00000
     14      11.3577      2.00000
     15      11.3577      2.00000
     16      11.3577      2.00000
     17      16.3268      0.00000
     18      16.3268      0.00000
     19      16.3268      0.00000
     20      16.3268      0.00000
     21      16.3268      0.00000
     22      16.3268      0.00000
     23      17.2576      0.00000
     24      17.2576      0.00000

 k-point     2 :       0.0833    0.0000    0.0000
  band No.  band energies     occupation 
      1     -11.5327      2.00000
      2      -3.6098      2.00000
      3      -2.1523      2.00000
      4      -2.1523      2.00000
      5      -2.1523      2.00000
      6      -2.1523      2.00000
      7      -0.7241      2.00000
      8       4.2271      2.00000
      9       4.2271      2.00000
     10       4.2271      2.00000
     11       4.2271      2.00000
     12       4.4524      2.00000
     13       4.4524      2.00000
     14      11.0575      2.00000
     15      11.0575      2.00000
     16      11.2009      2.00000
     17      15.9925      0.00000
     18      16.6127      0.00000
     19      16.6127      0.00000
     20      16.6127      0.00000
     21      16.6127      0.00000
     22      16.8192      0.00000
     23      17.1957      0.00000
     24      17.6155      0.00000

 k-point     3 :       0.1667    0.0000    0.0000
  band No.  band energies     occupation 
      1     -11.3263      2.00000
      2      -4.9347      2.00000
      3      -2.0128      2.00000
      4      -2.0128      2.00000
      5      -2.0128      2.00000
      6      -2.0128      2.00000
      7       0.7957      2.00000
      8       3.8090      2.00000
      9       3.8090      2.00000
     10       3.8090      2.00000
     11       3.8090      2.00000
     12       4.6568      2.00000
     13       4.6568      2.00000
     14      10.3256      2.00000
     15      10.3256      2.00000
     16      10.7453      2.00000
     17      15.7928      0.00000
     18      17.0483      0.00000
     19      17.4176      0.00000
     20      17.4176      0.00000
     21      17.4176      0.00000
     22      17.4176      0.00000
     23      17.4893      0.00000
     24      18.5350      0.00000

 k-point     4 :       0.2500    0.0000    0.0000
  band No.  band energies     occupation 
      1     -10.9831      2.00000
      2      -6.1598      2.00000
      3      -1.7982      2.00000
      4      -1.7982      2.00000
      5      -1.7982      2.00000
      6      -1.7982      2.00000
      7       2.3310      2.00000
      8       3.2468      2.00000
      9       3.2468      2.00000
     10       3.2468      2.00000
     11       3.2468      2.00000
     12       4.9957      2.00000
     13       4.9957      2.00000
     14       9.4162      2.00000
     15       9.4162      2.00000
     16      10.0274      2.00000
     17      15.7207      0.00000
     18      16.8303      0.00000
     19      18.3567      0.00000
     20      18.6164      0.00000
     21      18.6164      0.00000
     22      18.6164      0.00000
     23      18.6164      0.00000
     24      19.7534      0.00000

 k-point     5 :       0.3333    0.0000    0.0000
  band No.  band energies     occupation 
      1     -10.5041      2.00000
      2      -7.2753      2.00000
      3      -1.5435      2.00000
      4      -1.5435      2.00000
      5      -1.5435      2.00000
      6      -1.5435      2.00000
      7       2.6799      2.00000
      8       2.6799      2.00000
      9       2.6799      2.00000
     10       2.6799      2.00000
     11       3.8491      2.00000
     12       5.4635      2.00000
     13       5.4635      2.00000
     14       8.4783      2.00000
     15       8.4783      2.00000
     16       9.0904      2.00000
     17      15.7525      0.00000
     18      16.5731      0.00000
     19      19.4380      0.00000
     20      20.0662      0.00000
     21      20.0662      0.00000
     22      20.0662      0.00000
     23      20.0662      0.00000
     24      21.1162      0.00000

 k-point     6 :       0.4167    0.0000    0.0000
  band No.  band energies     occupation 
      1      -9.8910      2.00000
      2      -8.2727      2.00000
      3      -1.3180      2.00000
      4      -1.3180      2.00000
      5      -1.3180      2.00000
      6      -1.3180      2.00000
      7       2.2416      2.00000
      8       2.2416      2.00000
      9       2.2416      2.00000
     10       2.2416      2.00000
     11       5.3188      2.00000
     12       6.0616      2.00000
     13       6.0616      2.00000
     14       7.5836      2.00000
     15       7.5836      2.00000
     16       7.9645      2.00000
     17      15.8756      0.00000
     18      16.3043      0.00000
     19      20.7437      0.00000
     20      21.5695      0.00000
     21      21.5695      0.00000
     22      21.5695      0.00000
     23      21.5695      0.00000
     24      22.5366      0.00000

 k-point     7 :       0.5000    0.0000    0.0000
  band No.  band energies     occupation 
      1      -9.1461      2.00000
      2      -9.1461      2.00000
      3      -1.2232      2.00000
      4      -1.2232      2.00000
      5      -1.2232      2.00000
      6      -1.2232      2.00000
      7       2.0706      2.00000
      8       2.0706      2.00000
      9       2.0706      2.00000
     10       2.0706      2.00000
     11       6.7018      2.00000
     12       6.7018      2.00000
     13       6.7712      2.00000
     14       6.7712      2.00000
     15       6.7712      2.00000
     16       6.7712      2.00000
     17      16.0684      0.00000
     18      16.0684      0.00000
     19      22.2496      0.00000
     20      22.2496      0.00000
     21      22.4608      0.00000
     22      22.4608      0.00000
     23      22.4608      0.00000
     24      22.4608      0.00000

 k-point     8 :       0.0833    0.0833    0.0000
  band No.  band energies     occupation 
      1     -11.4639      2.00000
      2      -3.5543      2.00000
      3      -3.5543      2.00000
      4      -2.1335      2.00000
      5      -2.0787      2.00000
      6      -0.6889      2.00000
      7      -0.6889      2.00000
      8       3.6876      2.00000
      9       4.2836      2.00000
     10       4.2836      2.00000
     11       4.3127      2.00000
     12       4.3127      2.00000
     13       4.5020      2.00000
     14      10.5891      2.00000
     15      10.7707      2.00000
     16      11.2722      2.00000
     17      16.2848      0.00000
     18      16.2848      0.00000
     19      16.4366      0.00000
     20      17.0968      0.00000
     21      17.0968      0.00000
     22      17.3143      0.00000
     23      17.3958      0.00000
     24      17.7165      0.00000

 k-point     9 :       0.1667    0.0833    0.0000
  band No.  band energies     occupation 
      1     -11.2576      2.00000
      2      -4.8744      2.00000
      3      -3.3904      2.00000
      4      -2.0367      2.00000
      5      -1.9097      2.00000
      6      -0.5924      2.00000
      7       0.8073      2.00000
      8       3.0016      2.00000
      9       3.8319      2.00000
     10       3.9460      2.00000
     11       4.4641      2.00000
     12       4.4796      2.00000
     13       4.5456      2.00000
     14       9.7938      2.00000
     15      10.0623      2.00000
     16      10.9902      2.00000
     17      16.0921      0.00000
     18      16.8280      0.00000
     19      17.1059      0.00000
     20      17.3287      0.00000
     21      17.7563      0.00000
     22      17.8790      0.00000
     23      18.4296      0.00000
     24      18.5367      0.00000

 k-point    10 :       0.2500    0.0833    0.0000
  band No.  band energies     occupation 
      1     -10.9146      2.00000
      2      -6.0969      2.00000
      3      -3.1270      2.00000
      4      -1.8964      2.00000
      5      -1.6518      2.00000
      6      -0.4659      2.00000
      7       2.2961      2.00000
      8       2.3071      2.00000
      9       3.2155      2.00000
     10       3.4773      2.00000
     11       4.1661      2.00000
     12       4.8105      2.00000
     13       4.9351      2.00000
     14       8.8725      2.00000
     15       9.1729      2.00000
     16      10.3721      2.00000
     17      16.0211      0.00000
     18      17.1231      0.00000
     19      17.7220      0.00000
     20      18.3237      0.00000
     21      18.6106      0.00000
     22      19.0429      0.00000
     23      19.7366      0.00000
     24      19.7863      0.00000

 k-point    11 :       0.3333    0.0833    0.0000
  band No.  band energies     occupation 
      1     -10.4359      2.00000
      2      -7.2105      2.00000
      3      -2.7822      2.00000
      4      -1.7831      2.00000
      5      -1.3226      2.00000
      6      -0.3743      2.00000
      7       1.7468      2.00000
      8       2.5601      2.00000
      9       3.0638      2.00000
     10       3.7156      2.00000
     11       3.7277      2.00000
     12       5.2727      2.00000
     13       5.5071      2.00000
     14       7.9183      2.00000
     15       8.2495      2.00000
     16       9.5046      2.00000
     17      16.0556      0.00000
     18      16.8701      0.00000
     19      18.9792      0.00000
     20      19.6767      0.00000
     21      19.8084      0.00000
     22      20.4220      0.00000
     23      21.0476      0.00000
     24      21.0951      0.00000

 k-point    12 :       0.4167    0.0833    0.0000
  band No.  band energies     occupation 
      1      -9.8232      2.00000
      2      -8.2066      2.00000
      3      -2.3929      2.00000
      4      -1.8061      2.00000
      5      -0.9577      2.00000
      6      -0.4099      2.00000
      7       1.4718      2.00000
      8       1.9745      2.00000
      9       2.8623      2.00000
     10       3.2818      2.00000
     11       4.9719      2.00000
     12       5.8598      2.00000
     13       6.3127      2.00000
     14       6.9724      2.00000
     15       7.3664      2.00000
     16       8.4620      2.00000
     17      16.1788      0.00000
     18      16.6054      0.00000
     19      20.4259      0.00000
     20      20.9601      0.00000
     21      21.4262      0.00000
     22      21.6840      0.00000
     23      22.3831      0.00000
     24      22.5216      0.00000

 k-point    13 :       0.5000    0.0833    0.0000
  band No.  band energies     occupation 
      1      -9.0790      2.00000
      2      -9.0790      2.00000
      3      -2.0313      2.00000
      4      -2.0313      2.00000
      5      -0.6226      2.00000
      6      -0.6226      2.00000
      7       1.5695      2.00000
      8       1.5695      2.00000
      9       2.9526      2.00000
     10       2.9526      2.00000
     11       6.0243      2.00000
     12       6.0243      2.00000
     13       6.5633      2.00000
     14       6.5633      2.00000
     15       7.3501      2.00000
     16       7.3501      2.00000
     17      16.3713      0.00000
     18      16.3713      0.00000
     19      21.7021      0.00000
     20      21.7021      0.00000
     21      22.4412      0.00000
     22      22.4412      0.00000
     23      22.8887      0.00000
     24      22.8887      0.00000

 k-point    14 :       0.1667    0.1667    0.0000
  band No.  band energies     occupation 
      1     -11.0518      2.00000
      2      -4.6959      2.00000
      3      -4.6959      2.00000
      4      -2.0141      2.00000
      5      -1.7148      2.00000
      6       0.8243      2.00000
      7       0.8243      2.00000
      8       2.1810      2.00000
      9       4.0027      2.00000
     10       4.0027      2.00000
     11       4.2651      2.00000
     12       4.2651      2.00000
     13       4.8521      2.00000
     14       8.9427      2.00000
     15       9.4001      2.00000
     16      11.0048      2.00000
     17      16.7624      0.00000
     18      16.9222      0.00000
     19      16.9222      0.00000
     20      17.8233      0.00000
     21      18.5089      0.00000
     22      18.5089      0.00000
     23      18.7862      0.00000
     24      19.1705      0.00000

 k-point    15 :       0.2500    0.1667    0.0000
  band No.  band energies     occupation 
      1     -10.7094      2.00000
      2      -5.9091      2.00000
      3      -4.4037      2.00000
      4      -2.0160      2.00000
      5      -1.4263      2.00000
      6       0.7914      2.00000
      7       1.4938      2.00000
      8       2.1646      2.00000
      9       3.3513      2.00000
     10       3.9572      2.00000
     11       4.3141      2.00000
     12       4.8096      2.00000
     13       4.9267      2.00000
     14       8.0103      2.00000
     15       8.5510      2.00000
     16      10.6292      2.00000
     17      16.8567      0.00000
     18      17.2511      0.00000
     19      17.8458      0.00000
     20      18.1547      0.00000
     21      19.3251      0.00000
     22      19.6212      0.00000
     23      19.7532      0.00000
     24      19.9327      0.00000

 k-point    16 :       0.3333    0.1667    0.0000
  band No.  band energies     occupation 
      1     -10.2317      2.00000
      2      -7.0165      2.00000
      3      -4.0084      2.00000
      4      -2.1568      2.00000
      5      -1.0526      2.00000
      6       0.6282      2.00000
      7       1.0998      2.00000
      8       2.6455      2.00000
      9       3.3410      2.00000
     10       3.7839      2.00000
     11       4.7444      2.00000
     12       4.7601      2.00000
     13       5.6269      2.00000
     14       7.0643      2.00000
     15       7.6581      2.00000
     16       9.9160      2.00000
     17      16.8938      0.00000
     18      17.6531      0.00000
     19      18.2177      0.00000
     20      19.6570      0.00000
     21      20.3418      0.00000
     22      20.8760      0.00000
     23      20.8963      0.00000
     24      21.0649      0.00000

 k-point    17 :       0.4167    0.1667    0.0000
  band No.  band energies     occupation 
      1      -9.6204      2.00000
      2      -8.0085      2.00000
      3      -3.5292      2.00000
      4      -2.5093      2.00000
      5      -0.6124      2.00000
      6       0.2998      2.00000
      7       1.0989      2.00000
      8       1.9795      2.00000
      9       3.8369      2.00000
     10       4.3370      2.00000
     11       4.4211      2.00000
     12       5.3304      2.00000
     13       6.1404      2.00000
     14       6.6858      2.00000
     15       6.7993      2.00000
     16       8.9566      2.00000
     17      17.0143      0.00000
     18      17.4219      0.00000
     19      19.5047      0.00000
     20      21.3149      0.00000
     21      21.5555      0.00000
     22      21.6338      0.00000
     23      21.9819      0.00000
     24      22.4979      0.00000

 k-point    18 :       0.5000    0.1667    0.0000
  band No.  band energies     occupation 
      1      -8.8781      2.00000
      2      -8.8781      2.00000
      3      -3.0049      2.00000
      4      -3.0049      2.00000
      5      -0.1415      2.00000
      6      -0.1415      2.00000
      7       1.4317      2.00000
      8       1.4317      2.00000
      9       4.0807      2.00000
     10       4.0807      2.00000
     11       5.2416      2.00000
[...]

 k-point    72 :       0.4167    0.4167    0.2500
  band No.  band energies     occupation 
      1      -7.6257      2.00000
      2      -6.0997      2.00000
      3      -6.0997      2.00000
      4      -4.8088      2.00000
      5      -2.2691      2.00000
      6      -1.0242      2.00000
      7      -1.0242      2.00000
      8       0.4343      2.00000
      9       5.4188      2.00000
     10       6.2454      2.00000
     11       6.2454      2.00000
     12       7.3867      2.00000
     13       7.4042      2.00000
     14       7.5933      2.00000
     15       7.5933      2.00000
     16       8.7846      2.00000
     17      19.3144      0.00000
     18      19.8311      0.00000
     19      19.8311      0.00000
     20      20.2744      0.00000
     21      20.5333      0.00000
     22      21.2746      0.00000
     23      21.2746      0.00000
     24      21.8866      0.00000

 k-point    73 :       0.5000    0.4167    0.2500
  band No.  band energies     occupation 
      1      -6.9157      2.00000
      2      -6.9157      2.00000
      3      -5.4603      2.00000
      4      -5.4603      2.00000
      5      -1.7557      2.00000
      6      -1.7557      2.00000
      7      -0.3597      2.00000
      8      -0.3597      2.00000
      9       5.8501      2.00000
     10       5.8501      2.00000
     11       6.8494      2.00000
     12       6.8494      2.00000
     13       7.6282      2.00000
     14       7.6282      2.00000
     15       8.3317      2.00000
     16       8.3317      2.00000
     17      19.8434      0.00000
     18      19.8434      0.00000
     19      20.1228      0.00000
     20      20.1228      0.00000
     21      20.8396      0.00000
     22      20.8396      0.00000
     23      21.4416      0.00000
     24      21.4416      0.00000

 k-point    74 :       0.5000    0.5000    0.2500
  band No.  band energies     occupation 
      1      -6.2289      2.00000
      2      -6.2289      2.00000
      3      -6.2289      2.00000
      4      -6.2289      2.00000
      5      -1.1337      2.00000
      6      -1.1337      2.00000
      7      -1.1337      2.00000
      8      -1.1337      2.00000
      9       6.3665      2.00000
     10       6.3665      2.00000
     11       6.3665      2.00000
     12       6.3665      2.00000
     13       8.1429      2.00000
     14       8.1429      2.00000
     15       8.1429      2.00000
     16       8.1429      2.00000
     17      20.0716      0.00000
     18      20.0716      0.00000
     19      20.0716      0.00000
     20      20.0716      0.00000
     21      21.1161      0.00000
     22      21.1161      0.00000
     23      21.1161      0.00000
     24      21.1161      0.00000

 k-point    75 :       0.3333    0.3333    0.3333
  band No.  band energies     occupation 
      1      -8.3495      2.00000
      2      -5.3292      2.00000
      3      -5.3292      2.00000
      4      -5.3292      2.00000
      5      -1.6548      2.00000
      6      -1.6548      2.00000
      7      -1.6548      2.00000
      8       1.2378      2.00000
      9       5.9623      2.00000
     10       5.9623      2.00000
     11       5.9623      2.00000
     12       6.9638      2.00000
     13       6.9638      2.00000
     14       6.9638      2.00000
     15       8.7947      2.00000
     16       8.7947      2.00000
     17      18.8411      0.00000
     18      18.8411      0.00000
     19      18.8411      0.00000
     20      20.1501      0.00000
     21      20.1501      0.00000
     22      21.1791      0.00000
     23      22.8562      0.00000
     24      22.8562      0.00000

 k-point    76 :       0.4167    0.3333    0.3333
  band No.  band energies     occupation 
      1      -7.7572      2.00000
      2      -6.2260      2.00000
      3      -4.9244      2.00000
      4      -4.9244      2.00000
      5      -2.4044      2.00000
      6      -2.4044      2.00000
      7      -1.1464      2.00000
      8       0.3241      2.00000
      9       6.1867      2.00000
     10       6.1867      2.00000
     11       7.1550      2.00000
     12       7.2065      2.00000
     13       7.2065      2.00000
     14       7.3723      2.00000
     15       8.3210      2.00000
     16       8.6700      2.00000
     17      19.2177      0.00000
     18      19.3946      0.00000
     19      19.3946      0.00000
     20      19.9073      0.00000
     21      20.6308      0.00000
     22      21.4919      0.00000
     23      21.9012      0.00000
     24      21.9304      0.00000

 k-point    77 :       0.5000    0.3333    0.3333
  band No.  band energies     occupation 
      1      -7.0450      2.00000
      2      -7.0450      2.00000
      3      -4.7142      2.00000
      4      -4.7142      2.00000
      5      -2.7307      2.00000
      6      -2.7307      2.00000
      7      -0.4770      2.00000
      8      -0.4770      2.00000
      9       6.2636      2.00000
     10       6.2636      2.00000
     11       7.2825      2.00000
     12       7.2825      2.00000
     13       7.8336      2.00000
     14       7.8336      2.00000
     15       8.0949      2.00000
     16       8.0949      2.00000
     17      19.5892      0.00000
     18      19.5892      0.00000
     19      19.9070      0.00000
     20      19.9070      0.00000
     21      21.1887      0.00000
     22      21.1887      0.00000
     23      21.2525      0.00000
     24      21.2525      0.00000

 k-point    78 :       0.4167    0.4167    0.3333
  band No.  band energies     occupation 
      1      -7.1758      2.00000
      2      -5.7078      2.00000
      3      -5.7078      2.00000
      4      -4.8335      2.00000
      5      -2.8593      2.00000
      6      -2.0057      2.00000
      7      -2.0057      2.00000
      8      -0.5878      2.00000
      9       6.6210      2.00000
     10       7.1188      2.00000
     11       7.1188      2.00000
     12       7.6169      2.00000
     13       7.7024      2.00000
     14       7.7024      2.00000
     15       8.1059      2.00000
     16       8.6184      2.00000
     17      19.5910      0.00000
     18      19.7200      0.00000
     19      19.7200      0.00000
     20      20.1920      0.00000
     21      20.4279      0.00000
     22      21.2651      0.00000
     23      21.2653      0.00000
     24      21.5968      0.00000

 k-point    79 :       0.5000    0.4167    0.3333
  band No.  band energies     occupation 
      1      -6.4837      2.00000
      2      -6.4837      2.00000
      3      -5.1705      2.00000
      4      -5.1705      2.00000
      5      -2.6509      2.00000
      6      -2.6509      2.00000
      7      -1.3747      2.00000
      8      -1.3747      2.00000
      9       6.9195      2.00000
     10       6.9195      2.00000
     11       7.6874      2.00000
     12       7.6874      2.00000
     13       7.8030      2.00000
     14       7.8030      2.00000
     15       8.2883      2.00000
     16       8.2883      2.00000
     17      19.9947      0.00000
     18      19.9947      0.00000
     19      20.0252      0.00000
     20      20.0252      0.00000
     21      20.7613      0.00000
     22      20.7613      0.00000
     23      20.9868      0.00000
     24      20.9868      0.00000

 k-point    80 :       0.5000    0.5000    0.3333
  band No.  band energies     occupation 
      1      -5.8346      2.00000
      2      -5.8346      2.00000
      3      -5.8346      2.00000
      4      -5.8346      2.00000
      5      -2.1251      2.00000
      6      -2.1251      2.00000
      7      -2.1251      2.00000
      8      -2.1251      2.00000
      9       7.3564      2.00000
     10       7.3564      2.00000
     11       7.3564      2.00000
     12       7.3564      2.00000
     13       8.2061      2.00000
     14       8.2061      2.00000
     15       8.2061      2.00000
     16       8.2061      2.00000
     17      20.2009      0.00000
     18      20.2009      0.00000
     19      20.2009      0.00000
     20      20.2009      0.00000
     21      20.6811      0.00000
     22      20.6811      0.00000
     23      20.6811      0.00000
     24      20.6811      0.00000

 k-point    81 :       0.4167    0.4167    0.4167
  band No.  band energies     occupation 
      1      -6.6124      2.00000
      2      -5.2918      2.00000
      3      -5.2918      2.00000
      4      -5.2918      2.00000
      5      -2.7801      2.00000
      6      -2.7801      2.00000
      7      -2.7801      2.00000
      8      -1.4933      2.00000
      9       7.5964      2.00000
     10       7.5964      2.00000
     11       7.5964      2.00000
     12       7.8774      2.00000
     13       7.8774      2.00000
     14       7.8774      2.00000
     15       8.4003      2.00000
     16       8.4003      2.00000
     17      19.8714      0.00000
     18      19.8714      0.00000
     19      19.8714      0.00000
     20      20.2763      0.00000
     21      20.2763      0.00000
     22      21.0013      0.00000
     23      21.0013      0.00000
     24      21.0014      0.00000

 k-point    82 :       0.5000    0.4167    0.4167
  band No.  band energies     occupation 
      1      -5.9599      2.00000
      2      -5.9599      2.00000
      3      -5.0728      2.00000
      4      -5.0728      2.00000
      5      -3.1192      2.00000
      6      -3.1192      2.00000
      7      -2.2495      2.00000
      8      -2.2495      2.00000
      9       7.6852      2.00000
     10       7.6852      2.00000
     11       8.0190      2.00000
     12       8.0190      2.00000
     13       8.1488      2.00000
     14       8.1488      2.00000
     15       8.2240      2.00000
     16       8.2240      2.00000
     17      20.1096      0.00000
     18      20.1096      0.00000
     19      20.1242      0.00000
     20      20.1242      0.00000
     21      20.5505      0.00000
     22      20.5505      0.00000
     23      20.6612      0.00000
     24      20.6612      0.00000

 k-point    83 :       0.5000    0.5000    0.4167
  band No.  band energies     occupation 
      1      -5.4148      2.00000
      2      -5.4148      2.00000
      3      -5.4148      2.00000
      4      -5.4148      2.00000
      5      -2.9072      2.00000
      6      -2.9072      2.00000
      7      -2.9072      2.00000
      8      -2.9072      2.00000
      9       8.0292      2.00000
     10       8.0292      2.00000
     11       8.0292      2.00000
     12       8.0292      2.00000
     13       8.2509      2.00000
     14       8.2509      2.00000
     15       8.2509      2.00000
     16       8.2509      2.00000
     17      20.2729      0.00000
     18      20.2729      0.00000
     19      20.2729      0.00000
     20      20.2729      0.00000
     21      20.3855      0.00000
     22      20.3855      0.00000
     23      20.3855      0.00000
     24      20.3855      0.00000

 k-point    84 :       0.5000    0.5000    0.5000
  band No.  band energies     occupation 
      1      -5.1929      2.00000
      2      -5.1929      2.00000
      3      -5.1929      2.00000
      4      -5.1929      2.00000
      5      -3.2508      2.00000
      6      -3.2508      2.00000
      7      -3.2508      2.00000
      8      -3.2508      2.00000
      9       8.2682      2.00000
     10       8.2682      2.00000
     11       8.2682      2.00000
     12       8.2682      2.00000
     13       8.2682      2.00000
     14       8.2682      2.00000
     15       8.2682      2.00000
     16       8.2682      2.00000
     17      20.2801      0.00000
     18      20.2801      0.00000
     19      20.2801      0.00000
     20      20.2801      0.00000
     21      20.2801      0.00000
     22      20.2801      0.00000
     23      20.2801      0.00000
     24      20.2801      0.00000


--------------------------------------------------------------------------------------------------------


 soft charge-density along one line, spin component           1
         0         1         2         3         4         5         6         7         8         9
 total charge-density along one line
 
 pseudopotential strength for first ion, spin component:           1
  9.354  -0.008   0.000   0.000   0.000  -0.000  -0.000   0.000
 -0.008  -0.002  -0.000  -0.000   0.000  -0.000  -0.000  -0.000
  0.000  -0.000  -3.570   0.000  -0.000  -0.013   0.000  -0.000
  0.000  -0.000   0.000  -3.570   0.000   0.000  -0.013   0.000
  0.000   0.000  -0.000   0.000  -3.570  -0.000   0.000  -0.013
 -0.000  -0.000  -0.013   0.000  -0.000  -0.755   0.000  -0.000
 -0.000  -0.000   0.000  -0.013   0.000   0.000  -0.755   0.000
  0.000  -0.000  -0.000   0.000  -0.013  -0.000   0.000  -0.755
 total augmentation occupancy for first ion, spin component:           1
  1.441  -1.184   0.000   0.000  -0.000  -0.000   0.000   0.000
 -1.184   1.284   0.000   0.000  -0.000   0.000   0.000  -0.000
 -0.000  -0.000   1.165   0.000  -0.000   0.205   0.000  -0.000
  0.000  -0.000   0.000   1.165  -0.000  -0.000   0.205   0.000
 -0.000   0.000   0.000   0.000   1.165  -0.000   0.000   0.205
 -0.000   0.000   0.205  -0.000   0.000   0.043   0.000  -0.000
  0.000  -0.000   0.000   0.205   0.000  -0.000   0.043  -0.000
  0.000   0.000   0.000  -0.000   0.205   0.000   0.000   0.043


------------------------ aborting loop because EDIFF is reached ----------------------------------------


    CHARGE:  cpu time    0.1132: real time    0.1132
    FORLOC:  cpu time    0.0020: real time    0.0020
    FORNL :  cpu time    0.1714: real time    0.1714
    STRESS:  cpu time    0.4125: real time    0.4127
    FORHAR:  cpu time    0.0056: real time    0.0056
    MIXING:  cpu time    0.0021: real time    0.0021
    OFIELD:  cpu time    0.0001: real time    0.0001

  FORCE on cell =-STRESS in cart. coord.  units (eV):
  Direction    XX          YY          ZZ          XY          YZ          ZX
  --------------------------------------------------------------------------------------
  Alpha Z   127.72241   127.72241   127.72241
  Ewald    -480.57148  -480.57148  -480.57148     0.00000     0.00000    -0.00000
  Hartree    33.23506    33.23506    33.23506    -0.00000    -0.00000    -0.00000
  E(xc)    -122.70246  -122.70246  -122.70246     0.00000     0.00000     0.00000
  Local     -39.35608   -39.35608   -39.35608    -0.00000     0.00000     0.00000
  n-local   -32.38565   -33.12456   -33.05316     0.60250     0.71023     0.32938
  augment    -3.29542    -3.29542    -3.29542    -0.00000     0.00000    -0.00000
  Kinetic   519.43638   536.45714   539.71495    -4.76481    -6.54584    -3.28168
  Fock        0.00000     0.00000     0.00000     0.00000     0.00000     0.00000
  -------------------------------------------------------------------------------------
  Total      14.04707    14.04707    14.04707     0.00000     0.00000    -0.00000
  in kB     551.22834   551.22834   551.22834     0.00000     0.00000    -0.00000
  external pressure =      551.23 kB  Pullay stress =        0.00 kB


 VOLUME and BASIS-vectors are now :
 -----------------------------------------------------------------------------
  energy-cutoff  :      400.00
  volume of cell :       40.83
      direct lattice vectors                 reciprocal lattice vectors
     3.443406203  0.000000000  0.000000000     0.290410117  0.000000000  0.000000000
     0.000000000  3.443406203  0.000000000     0.000000000  0.290410117  0.000000000
     0.000000000  0.000000000  3.443406203     0.000000000  0.000000000  0.290410117

  length of vectors
     3.443406203  3.443406203  3.443406203     0.290410117  0.290410117  0.290410117


 FORCES acting on ions
    electron-ion (+dipol)            ewald-force                    non-local-force                 convergence-correction
 -----------------------------------------------------------------------------------------------
   0.000E+00 -.148E-12 0.303E-13   -.711E-13 -.284E-13 -.142E-13   0.163E-16 -.229E-16 -.156E-16   0.227E-14 -.878E-14 -.105E-14
   0.165E-13 -.254E-14 0.436E-13   -.432E-13 -.220E-13 -.213E-13   0.203E-16 0.719E-17 0.167E-16   0.641E-15 0.388E-14 -.300E-14
   0.000E+00 -.172E-12 0.554E-13   -.284E-13 -.711E-14 -.711E-14   0.871E-17 0.611E-17 -.161E-16   0.244E-14 -.856E-14 -.200E-14
   0.165E-13 0.181E-13 0.222E-13   0.288E-15 -.228E-16 -.153E-13   0.332E-16 0.939E-17 0.101E-17   0.632E-15 0.233E-14 -.195E-14
   0.825E-14 0.205E-12 0.414E-12   0.000E+00 0.000E+00 0.142E-13   -.362E-16 0.623E-17 -.161E-16   -.145E-14 -.779E-14 -.280E-14
   0.330E-13 -.531E-14 -.377E-12   0.356E-13 0.745E-14 0.607E-14   -.828E-17 0.970E-17 0.806E-17   -.323E-14 0.477E-14 -.309E-14
   0.165E-13 -.187E-12 0.241E-13   0.355E-13 0.213E-13 0.213E-13   -.255E-16 -.923E-17 -.902E-17   -.165E-14 -.749E-14 -.170E-14
   0.330E-13 0.371E-12 0.450E-13   0.711E-13 0.283E-13 0.142E-13   -.161E-16 0.403E-17 0.128E-16   -.321E-14 0.271E-14 -.412E-14
 -----------------------------------------------------------------------------------------------
   0.124E-12 0.800E-13 0.257E-12   -.132E-15 -.444E-15 -.208E-14   -.745E-17 0.106E-16 -.182E-16   -.356E-14 -.189E-13 -.197E-13
 
 
 POSITION                                       TOTAL-FORCE (eV/Angst)
 -----------------------------------------------------------------------------------
      0.86085      2.58255      0.86085        -0.000000      0.000000      0.000000
      0.00000      0.00000      1.72170         0.000000      0.000000     -0.000000
      0.86085      0.86085      2.58255        -0.000000     -0.000000      0.000000
      0.00000      1.72170      0.00000         0.000000      0.000000     -0.000000
      2.58255      2.58255      2.58255        -0.000000     -0.000000      0.000000
      1.72170      0.00000      0.00000         0.000000     -0.000000     -0.000000
      2.58255      0.86085      0.86085         0.000000      0.000000      0.000000
      1.72170      1.72170      1.72170         0.000000      0.000000     -0.000000
 -----------------------------------------------------------------------------------
    total drift:                                0.000000      0.000000      0.000000


--------------------------------------------------------------------------------------------------------



  FREE ENERGIE OF THE ION-ELECTRON SYSTEM (eV)
  ---------------------------------------------------
  free  energy   TOTEN  =       -71.94909804 eV

  energy  without entropy=      -71.94909804  energy(sigma->0) =      -71.94909804
 


--------------------------------------------------------------------------------------------------------


    POTLOK:  cpu time    0.0273: real time    0.0273


--------------------------------------------------------------------------------------------------------


     LOOP+:  cpu time   48.3141: real time   49.4189
    4ORBIT:  cpu time    0.0000: real time    0.0000
 BZINTS: Fermi energy: 11.364743; 32.000000 electrons
         Band energy:  54.346103;  BLOECHL correction:  0.000000

 total amount of memory used by VASP MPI-rank0    33565. kBytes
=======================================================================

   base      :      30000. kBytes
   nonl-proj :       1056. kBytes
   fftplans  :        345. kBytes
   grid      :        481. kBytes
   one-center:          6. kBytes
   wavefun   :       1677. kBytes
 
  
  
 General timing and accounting informations for this job:
 ========================================================
  
                  Total CPU time used (sec):       50.604
                            User time (sec):       48.667
                          System time (sec):        1.937
                         Elapsed time (sec):       51.925
  
                   Maximum memory used (kb):      189604.
                   Average memory used (kb):           0.
  
                          Minor page faults:        36883
                          Major page faults:           36
                 Voluntary context switches:          784
