<?xml version="1.0" encoding="ISO-8859-1"?>
<modeling>
 <generator>
  <i name="program" type="string">vasp </i>
  <i name="version" type="string">5.4.4.18Apr17-6-g9f103f2a35  </i>
  <i name="subversion" type="string">(build Mar 12 2022 03:36:41) complex            parallel </i>
  <i name="platform" type="string">IFC19.0.3.199_CrayMPICH7.7.19 </i>
  <i name="date" type="string">2022 12 01 </i>
  <i name="time" type="string">10:37:07 </i>
 </generator>
 <incar>
  <i type="int" name="ISTART">     0</i>
  <i type="string" name="PREC">accurate</i>
  <i name="EDIFF">      0.00000100</i>
  <i name="POTIM">      0.02000000</i>
  <i type="int" name="ISMEAR">    -5</i>
  <i name="SIGMA">      0.06000000</i>
  <i type="logical" name="LWAVE"> F  </i>
  <i type="logical" name="LCHARG"> F  </i>
  <v type="int" name="KPOINT_BSE">    -1     0     0     0</v>
 </incar>
 <structure name="primitive_cell" >
  <crystal>
   <varray name="basis" >
    <v>       1.72170310       1.72170310       0.00000000 </v>
    <v>       1.72170310       0.00000000      -1.72170310 </v>
    <v>       0.00000000       1.72170310      -1.72170310 </v>
   </varray>
   <i name="volume">     10.20715668 </i>
   <varray name="rec_basis" >
    <v>       0.29041012       0.29041012       0.29041012 </v>
    <v>       0.29041012      -0.29041012      -0.29041012 </v>
    <v>      -0.29041012       0.29041012      -0.29041012 </v>
   </varray>
  </crystal>
  <varray name="positions" >
   <v>       0.25000000       0.25000000       0.25000000 </v>
   <v>      -0.50000000      -0.50000000      -0.50000000 </v>
  </varray>
 </structure>
 <varray name="primitive_index" >
  <v type="int" >        1 </v>
  <v type="int" >        2 </v>
 </varray>
 <kpoints>
  <generation param="Gamma">
   <v type="int" name="divisions">      12       12       12 </v>
   <v name="usershift">      0.00000000       0.00000000       0.00000000 </v>
   <v name="genvec1">      0.08333333       0.00000000       0.00000000 </v>
   <v name="genvec2">      0.00000000       0.08333333       0.00000000 </v>
   <v name="genvec3">      0.00000000       0.00000000       0.08333333 </v>
   <v name="shift">      0.00000000       0.00000000       0.00000000 </v>
  </generation>
  <varray name="kpointlist" >
   <v>       0.00000000       0.00000000       0.00000000 </v>
   <v>       0.08333333       0.00000000       0.00000000 </v>
   <v>       0.16666667       0.00000000       0.00000000 </v>
   <v>       0.25000000       0.00000000       0.00000000 </v>
   <v>       0.33333333       0.00000000       0.00000000 </v>
   <v>       0.41666667       0.00000000       0.00000000 </v>
   <v>       0.50000000       0.00000000       0.00000000 </v>
   <v>       0.08333333       0.08333333       0.00000000 </v>
   <v>       0.16666667       0.08333333       0.00000000 </v>
   <v>       0.25000000       0.08333333       0.00000000 </v>
   <v>       0.33333333       0.08333333       0.00000000 </v>
   <v>       0.41666667       0.08333333       0.00000000 </v>
   <v>       0.50000000       0.08333333       0.00000000 </v>
   <v>       0.16666667       0.16666667       0.00000000 </v>
   <v>       0.25000000       0.16666667       0.00000000 </v>
   <v>       0.33333333       0.16666667       0.00000000 </v>
   <v>       0.41666667       0.16666667       0.00000000 </v>
   <v>       0.50000000       0.16666667       0.00000000 </v>
   <v>       0.25000000       0.25000000       0.00000000 </v>
   <v>       0.33333333       0.25000000       0.00000000 </v>
   <v>       0.41666667       0.25000000       0.00000000 </v>
   <v>       0.50000000       0.25000000       0.00000000 </v>
   <v>       0.33333333       0.33333333       0.00000000 </v>
   <v>       0.41666667       0.33333333       0.00000000 </v>
   <v>       0.50000000       0.33333333       0.00000000 </v>
   <v>       0.41666667       0.41666667       0.00000000 </v>
   <v>       0.50000000       0.41666667       0.00000000 </v>
   <v>       0.50000000       0.50000000       0.00000000 </v>
   <v>       0.08333333       0.08333333       0.08333333 </v>
   <v>       0.16666667       0.08333333       0.08333333 </v>
   <v>       0.25000000       0.08333333       0.08333333 </v>
   <v>       0.33333333       0.08333333       0.08333333 </v>
   <v>       0.41666667       0.08333333       0.08333333 </v>
   <v>       0.50000000       0.08333333       0.08333333 </v>
   <v>       0.16666667       0.16666667       0.08333333 </v>
   <v>       0.25000000       0.16666667       0.08333333 </v>
   <v>       0.33333333       0.16666667       0.08333333 </v>
   <v>       0.41666667       0.16666667       0.08333333 </v>
   <v>       0.50000000       0.16666667       0.08333333 </v>
   <v>       0.25000000       0.25000000       0.08333333 </v>
   <v>       0.33333333       0.25000000       0.08333333 </v>
   <v>       0.41666667       0.25000000       0.08333333 </v>
   <v>       0.50000000       0.25000000       0.08333333 </v>
   <v>       0.33333333       0.33333333       0.08333333 </v>
   <v>       0.41666667       0.33333333       0.08333333 </v>
   <v>       0.50000000       0.33333333       0.08333333 </v>
   <v>       0.41666667       0.41666667       0.08333333 </v>
   <v>       0.50000000       0.41666667       0.08333333 </v>
   <v>       0.50000000       0.50000000       0.08333333 </v>
   <v>       0.16666667       0.16666667       0.16666667 </v>
   <v>       0.25000000       0.16666667       0.16666667 </v>
   <v>       0.33333333       0.16666667       0.16666667 </v>
   <v>       0.41666667       0.16666667       0.16666667 </v>
   <v>       0.50000000       0.16666667       0.16666667 </v>
   <v>       0.25000000       0.25000000       0.16666667 </v>
   <v>       0.33333333       0.25000000       0.16666667 </v>
   <v>       0.41666667       0.25000000       0.16666667 </v>
   <v>       0.50000000       0.25000000       0.16666667 </v>
   <v>       0.33333333       0.33333333       0.16666667 </v>
   <v>       0.41666667       0.33333333       0.16666667 </v>
   <v>       0.50000000       0.33333333       0.16666667 </v>
   <v>       0.41666667       0.41666667       0.16666667 </v>
   <v>       0.50000000       0.41666667       0.16666667 </v>
   <v>       0.50000000       0.50000000       0.16666667 </v>
   <v>       0.25000000       0.25000000       0.25000000 </v>
   <v>       0.33333333       0.25000000       0.25000000 </v>
   <v>       0.41666667       0.25000000       0.25000000 </v>
   <v>       0.50000000       0.25000000       0.25000000 </v>
   <v>       0.33333333       0.33333333       0.25000000 </v>
   <v>       0.41666667       0.33333333       0.25000000 </v>
   <v>       0.50000000       0.33333333       0.25000000 </v>
   <v>       0.41666667       0.41666667       0.25000000 </v>
   <v>       0.50000000       0.41666667       0.25000000 </v>
   <v>       0.50000000       0.50000000       0.25000000 </v>
   <v>       0.33333333       0.33333333       0.33333333 </v>
   <v>       0.41666667       0.33333333       0.33333333 </v>
   <v>       0.50000000       0.33333333       0.33333333 </v>
   <v>       0.41666667       0.41666667       0.33333333 </v>
   <v>       0.50000000       0.41666667       0.33333333 </v>
   <v>       0.50000000       0.50000000       0.33333333 </v>
   <v>       0.41666667       0.41666667       0.41666667 </v>
   <v>       0.50000000       0.41666667       0.41666667 </v>
   <v>       0.50000000       0.50000000       0.41666667 </v>
   <v>       0.50000000       0.50000000       0.50000000 </v>
  </varray>
  <varray name="weights" >
   <v>       0.00057870 </v>
   <v>       0.00347222 </v>
   <v>       0.00347222 </v>
   <v>       0.00347222 </v>
   <v>       0.00347222 </v>
   <v>       0.00347222 </v>
   <v>       0.00173611 </v>
   <v>       0.00694444 </v>
   <v>       0.01388889 </v>
   <v>       0.01388889 </v>
   <v>       0.01388889 </v>
   <v>       0.01388889 </v>
   <v>       0.00694444 </v>
   <v>       0.00694444 </v>
   <v>       0.01388889 </v>
   <v>       0.01388889 </v>
   <v>       0.01388889 </v>
   <v>       0.00694444 </v>
   <v>       0.00694444 </v>
   <v>       0.01388889 </v>
   <v>       0.01388889 </v>
   <v>       0.00694444 </v>
   <v>       0.00694444 </v>
   <v>       0.01388889 </v>
   <v>       0.00694444 </v>
   <v>       0.00694444 </v>
   <v>       0.00694444 </v>
   <v>       0.00173611 </v>
   <v>       0.00462963 </v>
   <v>       0.01388889 </v>
   <v>       0.01388889 </v>
   <v>       0.01388889 </v>
   <v>       0.01388889 </v>
   <v>       0.00694444 </v>
   <v>       0.01388889 </v>
   <v>       0.02777778 </v>
   <v>       0.02777778 </v>
   <v>       0.02777778 </v>
   <v>       0.01388889 </v>
   <v>       0.01388889 </v>
   <v>       0.02777778 </v>
   <v>       0.02777778 </v>
   <v>       0.01388889 </v>
   <v>       0.01388889 </v>
   <v>       0.02777778 </v>
   <v>       0.01388889 </v>
   <v>       0.01388889 </v>
   <v>       0.01388889 </v>
   <v>       0.00347222 </v>
   <v>       0.00462963 </v>
   <v>       0.01388889 </v>
   <v>       0.01388889 </v>
   <v>       0.01388889 </v>
   <v>       0.00694444 </v>
   <v>       0.01388889 </v>
   <v>       0.02777778 </v>
   <v>       0.02777778 </v>
   <v>       0.01388889 </v>
   <v>       0.01388889 </v>
   <v>       0.02777778 </v>
   <v>       0.01388889 </v>
   <v>       0.01388889 </v>
   <v>       0.01388889 </v>
   <v>       0.00347222 </v>
   <v>       0.00462963 </v>
   <v>       0.01388889 </v>
   <v>       0.01388889 </v>
   <v>       0.00694444 </v>
   <v>       0.01388889 </v>
   <v>       0.02777778 </v>
   <v>       0.01388889 </v>
   <v>       0.01388889 </v>
   <v>       0.01388889 </v>
   <v>       0.00347222 </v>
   <v>       0.00462963 </v>
   <v>       0.01388889 </v>
   <v>       0.00694444 </v>
   <v>       0.01388889 </v>
   <v>       0.01388889 </v>
   <v>       0.00347222 </v>
   <v>       0.00462963 </v>
   <v>       0.00694444 </v>
   <v>       0.00347222 </v>
   <v>       0.00057870 </v>
  </varray>
  <varray name="tetrahedronlist"  type="int" >
   <v type="int" >       12        1        2        2        8 </v>
   <v type="int" >       12        2        2        8        8 </v>
   <v type="int" >       12        2        8        8       29 </v>
   <v type="int" >       12        2        3        8        9 </v>
   <v type="int" >       12        2        8        8        9 </v>
   <v type="int" >       12        8        8        9       29 </v>
   <v type="int" >       12        3        8        9        9 </v>
   <v type="int" >       24        8        9        9       30 </v>
   <v type="int" >       24        8        9       29       30 </v>
   <v type="int" >       12        3        4        9       10 </v>
   <v type="int" >       12        3        9        9       10 </v>
   <v type="int" >       12        9        9       10       30 </v>
   <v type="int" >       12        4        9       10       10 </v>
   <v type="int" >       12        9       10       10       31 </v>
   <v type="int" >       12        9       10       30       31 </v>
   <v type="int" >       12        4        5       10       11 </v>
   <v type="int" >       12        4       10       10       11 </v>
   <v type="int" >       12       10       10       11       31 </v>
   <v type="int" >       12        5       10       11       11 </v>
   <v type="int" >       12       10       11       11       32 </v>
   <v type="int" >       12       10       11       31       32 </v>
   <v type="int" >       12        5        6       11       12 </v>
   <v type="int" >       12        5       11       11       12 </v>
   <v type="int" >       12       11       11       12       32 </v>
   <v type="int" >       12        6       11       12       12 </v>
   <v type="int" >       12       11       12       12       33 </v>
   <v type="int" >       12       11       12       32       33 </v>
   <v type="int" >       12        6        7       12       13 </v>
   <v type="int" >       12        6       12       12       13 </v>
   <v type="int" >       12       12       12       13       33 </v>
   <v type="int" >       12        7       12       13       13 </v>
   <v type="int" >       12       12       13       13       34 </v>
   <v type="int" >       12       12       13       33       34 </v>
   <v type="int" >       12        8        9       14       29 </v>
   <v type="int" >       12        9       14       29       30 </v>
   <v type="int" >       12       14       29       30       35 </v>
   <v type="int" >       12        9       10       15       30 </v>
   <v type="int" >       12        9       14       15       30 </v>
   <v type="int" >       12       14       15       30       35 </v>
   <v type="int" >       12       10       15       30       31 </v>
   <v type="int" >       12       15       30       31       36 </v>
   <v type="int" >       12       15       30       35       36 </v>
   <v type="int" >       12       10       11       16       31 </v>
   <v type="int" >       12       10       15       16       31 </v>
   <v type="int" >       12       15       16       31       36 </v>
   <v type="int" >       12       11       16       31       32 </v>
   <v type="int" >       12       16       31       32       37 </v>
   <v type="int" >       12       16       31       36       37 </v>
   <v type="int" >       12       11       12       17       32 </v>
   <v type="int" >       12       11       16       17       32 </v>
   <v type="int" >       12       16       17       32       37 </v>
   <v type="int" >       12       12       17       32       33 </v>
   <v type="int" >       12       17       32       33       38 </v>
   <v type="int" >       12       17       32       37       38 </v>
   <v type="int" >       12       12       13       18       33 </v>
   <v type="int" >       12       12       17       18       33 </v>
   <v type="int" >       12       17       18       33       38 </v>
   <v type="int" >       12       13       18       33       34 </v>
   <v type="int" >       12       18       33       34       39 </v>
   <v type="int" >       12       18       33       38       39 </v>
   <v type="int" >       12       12       13       17       34 </v>
   <v type="int" >       12       13       17       18       34 </v>
   <v type="int" >       12       17       18       34       39 </v>
   <v type="int" >       12       12       17       33       34 </v>
   <v type="int" >       12       17       33       34       38 </v>
   <v type="int" >       12       17       34       38       39 </v>
   <v type="int" >       12       11       12       16       33 </v>
   <v type="int" >       12       12       16       17       33 </v>
   <v type="int" >       12       16       17       33       38 </v>
   <v type="int" >       12       11       16       32       33 </v>
   <v type="int" >       12       16       32       33       37 </v>
   <v type="int" >       12       16       33       37       38 </v>
   <v type="int" >       12       10       11       15       32 </v>
   <v type="int" >       12       11       15       16       32 </v>
   <v type="int" >       12       15       16       32       37 </v>
   <v type="int" >       12       10       15       31       32 </v>
   <v type="int" >       12       15       31       32       36 </v>
   <v type="int" >       12       15       32       36       37 </v>
   <v type="int" >       12        9       10       14       31 </v>
   <v type="int" >       12       10       14       15       31 </v>
   <v type="int" >       12       14       15       31       36 </v>
   <v type="int" >       12        9       14       30       31 </v>
   <v type="int" >       12       14       30       31       35 </v>
   <v type="int" >       12       14       31       35       36 </v>
   <v type="int" >       12        9        9       14       30 </v>
   <v type="int" >       12        9       14       30       35 </v>
   <v type="int" >       12        9       29       30       30 </v>
   <v type="int" >       12        9       30       30       35 </v>
   <v type="int" >       12        2        3        8       29 </v>
   <v type="int" >       12        3        8        9       29 </v>
   <v type="int" >       12        3        9       29       30 </v>
   <v type="int" >       12       14       15       19       35 </v>
   <v type="int" >       12       15       19       35       36 </v>
   <v type="int" >       12       19       35       36       40 </v>
   <v type="int" >       12       15       16       20       36 </v>
   <v type="int" >       12       15       19       20       36 </v>
   <v type="int" >       12       19       20       36       40 </v>
   <v type="int" >       12       16       20       36       37 </v>
   <v type="int" >       12       20       36       37       41 </v>
   <v type="int" >       12       20       36       40       41 </v>
   <v type="int" >       12       16       17       21       37 </v>
   <v type="int" >       12       16       20       21       37 </v>
   <v type="int" >       12       20       21       37       41 </v>
   <v type="int" >       12       17       21       37       38 </v>
   <v type="int" >       12       21       37       38       42 </v>
   <v type="int" >       12       21       37       41       42 </v>
   <v type="int" >       12       17       18       22       38 </v>
   <v type="int" >       12       17       21       22       38 </v>
   <v type="int" >       12       21       22       38       42 </v>
   <v type="int" >       12       18       22       38       39 </v>
   <v type="int" >       12       22       38       39       43 </v>
   <v type="int" >       12       22       38       42       43 </v>
   <v type="int" >       12       17       18       21       39 </v>
   <v type="int" >       12       18       21       22       39 </v>
   <v type="int" >       12       21       22       39       43 </v>
   <v type="int" >       12       17       21       38       39 </v>
   <v type="int" >       12       21       38       39       42 </v>
   <v type="int" >       12       21       39       42       43 </v>
   <v type="int" >       12       16       17       20       38 </v>
   <v type="int" >       12       17       20       21       38 </v>
   <v type="int" >       12       20       21       38       42 </v>
   <v type="int" >       12       16       20       37       38 </v>
   <v type="int" >       12       20       37       38       41 </v>
   <v type="int" >       12       20       38       41       42 </v>
   <v type="int" >       12       15       16       19       37 </v>
   <v type="int" >       12       16       19       20       37 </v>
   <v type="int" >       12       19       20       37       41 </v>
   <v type="int" >       12       15       19       36       37 </v>
   <v type="int" >       12       19       36       37       40 </v>
   <v type="int" >       12       19       37       40       41 </v>
   <v type="int" >       12       14       15       15       36 </v>
   <v type="int" >       12       15       15       19       36 </v>
   <v type="int" >       12       15       19       36       40 </v>
   <v type="int" >       12       14       15       35       36 </v>
   <v type="int" >       12       15       35       36       36 </v>
   <v type="int" >       12       15       36       36       40 </v>
   <v type="int" >       12        9       10       14       35 </v>
   <v type="int" >       12       10       14       15       35 </v>
   <v type="int" >       12       10       15       35       36 </v>
   <v type="int" >       12        9       10       30       35 </v>
   <v type="int" >       12       10       30       31       35 </v>
   <v type="int" >       12       10       31       35       36 </v>
   <v type="int" >       12        3        4        9       30 </v>
   <v type="int" >       12        4        9       10       30 </v>
   <v type="int" >       12        4       10       30       31 </v>
   <v type="int" >       12       19       20       23       40 </v>
   <v type="int" >       12       20       23       40       41 </v>
   <v type="int" >       12       23       40       41       44 </v>
   <v type="int" >       12       20       21       24       41 </v>
   <v type="int" >       12       20       23       24       41 </v>
   <v type="int" >       12       23       24       41       44 </v>
   <v type="int" >       12       21       24       41       42 </v>
   <v type="int" >       12       24       41       42       45 </v>
   <v type="int" >       12       24       41       44       45 </v>
   <v type="int" >       12       21       22       25       42 </v>
   <v type="int" >       12       21       24       25       42 </v>
   <v type="int" >       12       24       25       42       45 </v>
   <v type="int" >       12       22       25       42       43 </v>
   <v type="int" >       12       25       42       43       46 </v>
   <v type="int" >       12       25       42       45       46 </v>
   <v type="int" >       12       21       22       24       43 </v>
   <v type="int" >       12       22       24       25       43 </v>
   <v type="int" >       12       24       25       43       46 </v>
   <v type="int" >       12       21       24       42       43 </v>
   <v type="int" >       12       24       42       43       45 </v>
   <v type="int" >       12       24       43       45       46 </v>
   <v type="int" >       12       20       21       23       42 </v>
   <v type="int" >       12       21       23       24       42 </v>
   <v type="int" >       12       23       24       42       45 </v>
   <v type="int" >       12       20       23       41       42 </v>
   <v type="int" >       12       23       41       42       44 </v>
   <v type="int" >       12       23       42       44       45 </v>
   <v type="int" >       12       19       20       20       41 </v>
   <v type="int" >       12       20       20       23       41 </v>
   <v type="int" >       12       20       23       41       44 </v>
   <v type="int" >       12       19       20       40       41 </v>
   <v type="int" >       12       20       40       41       41 </v>
   <v type="int" >       12       20       41       41       44 </v>
   <v type="int" >       12       15       16       19       40 </v>
   <v type="int" >       12       16       19       20       40 </v>
   <v type="int" >       12       16       20       40       41 </v>
   <v type="int" >       12       15       16       36       40 </v>
   <v type="int" >       12       16       36       37       40 </v>
   <v type="int" >       12       16       37       40       41 </v>
   <v type="int" >       12       10       11       15       36 </v>
   <v type="int" >       12       11       15       16       36 </v>
   <v type="int" >       12       11       16       36       37 </v>
   <v type="int" >       12       10       11       31       36 </v>
   <v type="int" >       12       11       31       32       36 </v>
   <v type="int" >       12       11       32       36       37 </v>
   <v type="int" >       12        4        5       10       31 </v>
   <v type="int" >       12        5       10       11       31 </v>
   <v type="int" >       12        5       11       31       32 </v>
   <v type="int" >       12       23       24       26       44 </v>
   <v type="int" >       12       24       26       44       45 </v>
   <v type="int" >       12       26       44       45       47 </v>
   <v type="int" >       12       24       25       27       45 </v>
   <v type="int" >       12       24       26       27       45 </v>
   <v type="int" >       12       26       27       45       47 </v>
   <v type="int" >       12       25       27       45       46 </v>
   <v type="int" >       12       27       45       46       48 </v>
   <v type="int" >       12       27       45       47       48 </v>
   <v type="int" >       12       24       25       26       46 </v>
   <v type="int" >       12       25       26       27       46 </v>
   <v type="int" >       12       26       27       46       48 </v>
   <v type="int" >       12       24       26       45       46 </v>
   <v type="int" >       12       26       45       46       47 </v>
   <v type="int" >       12       26       46       47       48 </v>
   <v type="int" >       12       23       24       24       45 </v>
   <v type="int" >       12       24       24       26       45 </v>
   <v type="int" >       12       24       26       45       47 </v>
   <v type="int" >       12       23       24       44       45 </v>
   <v type="int" >       12       24       44       45       45 </v>
   <v type="int" >       12       24       45       45       47 </v>
   <v type="int" >       12       20       21       23       44 </v>
   <v type="int" >       12       21       23       24       44 </v>
   <v type="int" >       12       21       24       44       45 </v>
   <v type="int" >       12       20       21       41       44 </v>
   <v type="int" >       12       21       41       42       44 </v>
   <v type="int" >       12       21       42       44       45 </v>
   <v type="int" >       12       16       17       20       41 </v>
   <v type="int" >       12       17       20       21       41 </v>
   <v type="int" >       12       17       21       41       42 </v>
   <v type="int" >       12       16       17       37       41 </v>
   <v type="int" >       12       17       37       38       41 </v>
   <v type="int" >       12       17       38       41       42 </v>
   <v type="int" >       12       11       12       16       37 </v>
   <v type="int" >       12       12       16       17       37 </v>
   <v type="int" >       12       12       17       37       38 </v>
   <v type="int" >       12       11       12       32       37 </v>
   <v type="int" >       12       12       32       33       37 </v>
   <v type="int" >       12       12       33       37       38 </v>
   <v type="int" >       12        5        6       11       32 </v>
   <v type="int" >       12        6       11       12       32 </v>
   <v type="int" >       12        6       12       32       33 </v>
   <v type="int" >       12       26       27       28       47 </v>
   <v type="int" >       12       27       28       47       48 </v>
   <v type="int" >       12       28       47       48       49 </v>
   <v type="int" >       12       26       27       27       48 </v>
   <v type="int" >       12       27       27       28       48 </v>
   <v type="int" >       12       27       28       48       49 </v>
   <v type="int" >       12       26       27       47       48 </v>
   <v type="int" >       12       27       47       48       48 </v>
   <v type="int" >       12       27       48       48       49 </v>
   <v type="int" >       12       24       25       26       47 </v>
   <v type="int" >       12       25       26       27       47 </v>
   <v type="int" >       12       25       27       47       48 </v>
   <v type="int" >       12       24       25       45       47 </v>
   <v type="int" >       12       25       45       46       47 </v>
   <v type="int" >       12       25       46       47       48 </v>
   <v type="int" >       12       21       22       24       45 </v>
   <v type="int" >       12       22       24       25       45 </v>
   <v type="int" >       12       22       25       45       46 </v>
   <v type="int" >       12       21       22       42       45 </v>
   <v type="int" >       12       22       42       43       45 </v>
   <v type="int" >       12       22       43       45       46 </v>
   <v type="int" >       12       17       18       21       42 </v>
   <v type="int" >       12       18       21       22       42 </v>
   <v type="int" >       12       18       22       42       43 </v>
   <v type="int" >       12       17       18       38       42 </v>
   <v type="int" >       12       18       38       39       42 </v>
   <v type="int" >       12       18       39       42       43 </v>
   <v type="int" >       12       12       13       17       38 </v>
   <v type="int" >       12       13       17       18       38 </v>
   <v type="int" >       12       13       18       38       39 </v>
   <v type="int" >       12       12       13       33       38 </v>
   <v type="int" >       12       13       33       34       38 </v>
   <v type="int" >       12       13       34       38       39 </v>
   <v type="int" >       12        6        7       12       33 </v>
   <v type="int" >       12        7       12       13       33 </v>
   <v type="int" >       12        7       13       33       34 </v>
   <v type="int" >       12       26       27       28       49 </v>
   <v type="int" >       12       26       27       48       49 </v>
   <v type="int" >       12       26       47       48       49 </v>
   <v type="int" >       12       24       25       27       48 </v>
   <v type="int" >       12       24       26       27       48 </v>
   <v type="int" >       12       24       26       47       48 </v>
   <v type="int" >       12       24       25       46       48 </v>
   <v type="int" >       12       24       45       46       48 </v>
   <v type="int" >       12       24       45       47       48 </v>
   <v type="int" >       12       21       22       25       46 </v>
   <v type="int" >       12       21       24       25       46 </v>
   <v type="int" >       12       21       24       45       46 </v>
   <v type="int" >       12       21       22       43       46 </v>
   <v type="int" >       12       21       42       43       46 </v>
   <v type="int" >       12       21       42       45       46 </v>
   <v type="int" >       12       17       18       22       43 </v>
   <v type="int" >       12       17       21       22       43 </v>
   <v type="int" >       12       17       21       42       43 </v>
   <v type="int" >       12       17       18       39       43 </v>
   <v type="int" >       12       17       38       39       43 </v>
   <v type="int" >       12       17       38       42       43 </v>
   <v type="int" >       12       12       13       18       39 </v>
   <v type="int" >       12       12       17       18       39 </v>
   <v type="int" >       12       12       17       38       39 </v>
   <v type="int" >       12       12       13       34       39 </v>
   <v type="int" >       12       12       33       34       39 </v>
   <v type="int" >       12       12       33       38       39 </v>
   <v type="int" >       12        6        7       13       34 </v>
   <v type="int" >       12        6       12       13       34 </v>
   <v type="int" >       12        6       12       33       34 </v>
   <v type="int" >       12       23       24       26       47 </v>
   <v type="int" >       12       23       24       45       47 </v>
   <v type="int" >       12       23       44       45       47 </v>
   <v type="int" >       12       20       21       24       45 </v>
   <v type="int" >       12       20       23       24       45 </v>
   <v type="int" >       12       20       23       44       45 </v>
   <v type="int" >       12       20       21       42       45 </v>
   <v type="int" >       12       20       41       42       45 </v>
   <v type="int" >       12       20       41       44       45 </v>
   <v type="int" >       12       16       17       21       42 </v>
   <v type="int" >       12       16       20       21       42 </v>
   <v type="int" >       12       16       20       41       42 </v>
   <v type="int" >       12       16       17       38       42 </v>
   <v type="int" >       12       16       37       38       42 </v>
   <v type="int" >       12       16       37       41       42 </v>
   <v type="int" >       12       11       12       17       38 </v>
   <v type="int" >       12       11       16       17       38 </v>
   <v type="int" >       12       11       16       37       38 </v>
   <v type="int" >       12       11       12       33       38 </v>
   <v type="int" >       12       11       32       33       38 </v>
   <v type="int" >       12       11       32       37       38 </v>
   <v type="int" >       12        5        6       12       33 </v>
   <v type="int" >       12        5       11       12       33 </v>
   <v type="int" >       12        5       11       32       33 </v>
   <v type="int" >       12       19       20       23       44 </v>
   <v type="int" >       12       19       20       41       44 </v>
   <v type="int" >       12       19       40       41       44 </v>
   <v type="int" >       12       15       16       20       41 </v>
   <v type="int" >       12       15       19       20       41 </v>
   <v type="int" >       12       15       19       40       41 </v>
   <v type="int" >       12       15       16       37       41 </v>
   <v type="int" >       12       15       36       37       41 </v>
   <v type="int" >       12       15       36       40       41 </v>
   <v type="int" >       12       10       11       16       37 </v>
   <v type="int" >       12       10       15       16       37 </v>
   <v type="int" >       12       10       15       36       37 </v>
   <v type="int" >       12       10       11       32       37 </v>
   <v type="int" >       12       10       31       32       37 </v>
   <v type="int" >       12       10       31       36       37 </v>
   <v type="int" >       12        4        5       11       32 </v>
   <v type="int" >       12        4       10       11       32 </v>
   <v type="int" >       12        4       10       31       32 </v>
   <v type="int" >       12       14       15       19       40 </v>
   <v type="int" >       12       14       15       36       40 </v>
   <v type="int" >       12       14       35       36       40 </v>
   <v type="int" >       12        9       10       15       36 </v>
   <v type="int" >       12        9       14       15       36 </v>
   <v type="int" >       12        9       14       35       36 </v>
   <v type="int" >       12        9       10       31       36 </v>
   <v type="int" >       12        9       30       31       36 </v>
   <v type="int" >       12        9       30       35       36 </v>
   <v type="int" >       12        3        4       10       31 </v>
   <v type="int" >       12        3        9       10       31 </v>
   <v type="int" >       12        3        9       30       31 </v>
   <v type="int" >       12        8        9       14       35 </v>
   <v type="int" >       12        8        9       30       35 </v>
   <v type="int" >       12        8       29       30       35 </v>
   <v type="int" >       12        2        3        9       30 </v>
   <v type="int" >       12        2        8        9       30 </v>
   <v type="int" >       12        2        8       29       30 </v>
   <v type="int" >       12        1        2        8       29 </v>
   <v type="int" >       12       29       30       30       35 </v>
   <v type="int" >       12       30       30       35       35 </v>
   <v type="int" >       12       30       35       35       50 </v>
   <v type="int" >       12       30       31       35       36 </v>
   <v type="int" >       12       30       35       35       36 </v>
   <v type="int" >       12       35       35       36       50 </v>
   <v type="int" >       12       31       35       36       36 </v>
   <v type="int" >       24       35       36       36       51 </v>
   <v type="int" >       24       35       36       50       51 </v>
   <v type="int" >       12       31       32       36       37 </v>
   <v type="int" >       12       31       36       36       37 </v>
   <v type="int" >       12       36       36       37       51 </v>
   <v type="int" >       12       32       36       37       37 </v>
   <v type="int" >       12       36       37       37       52 </v>
   <v type="int" >       12       36       37       51       52 </v>
   <v type="int" >       12       32       33       37       38 </v>
   <v type="int" >       12       32       37       37       38 </v>
   <v type="int" >       12       37       37       38       52 </v>
   <v type="int" >       12       33       37       38       38 </v>
   <v type="int" >       12       37       38       38       53 </v>
   <v type="int" >       12       37       38       52       53 </v>
   <v type="int" >       12       33       34       38       39 </v>
   <v type="int" >       12       33       38       38       39 </v>
   <v type="int" >       12       38       38       39       53 </v>
   <v type="int" >       12       34       38       39       39 </v>
   <v type="int" >       12       38       39       39       54 </v>
   <v type="int" >       12       38       39       53       54 </v>
   <v type="int" >       12       35       36       40       50 </v>
   <v type="int" >       12       36       40       50       51 </v>
   <v type="int" >       12       40       50       51       55 </v>
   <v type="int" >       12       36       37       41       51 </v>
   <v type="int" >       12       36       40       41       51 </v>
   <v type="int" >       12       40       41       51       55 </v>
   <v type="int" >       12       37       41       51       52 </v>
   <v type="int" >       12       41       51       52       56 </v>
   <v type="int" >       12       41       51       55       56 </v>
   <v type="int" >       12       37       38       42       52 </v>
   <v type="int" >       12       37       41       42       52 </v>
   <v type="int" >       12       41       42       52       56 </v>
   <v type="int" >       12       38       42       52       53 </v>
   <v type="int" >       12       42       52       53       57 </v>
   <v type="int" >       12       42       52       56       57 </v>
   <v type="int" >       12       38       39       43       53 </v>
   <v type="int" >       12       38       42       43       53 </v>
   <v type="int" >       12       42       43       53       57 </v>
   <v type="int" >       12       39       43       53       54 </v>
   <v type="int" >       12       43       53       54       58 </v>
   <v type="int" >       12       43       53       57       58 </v>
   <v type="int" >       12       38       39       42       54 </v>
   <v type="int" >       12       39       42       43       54 </v>
   <v type="int" >       12       42       43       54       58 </v>
   <v type="int" >       12       38       42       53       54 </v>
   <v type="int" >       12       42       53       54       57 </v>
   <v type="int" >       12       42       54       57       58 </v>
   <v type="int" >       12       37       38       41       53 </v>
   <v type="int" >       12       38       41       42       53 </v>
   <v type="int" >       12       41       42       53       57 </v>
   <v type="int" >       12       37       41       52       53 </v>
   <v type="int" >       12       41       52       53       56 </v>
   <v type="int" >       12       41       53       56       57 </v>
   <v type="int" >       12       36       37       40       52 </v>
   <v type="int" >       12       37       40       41       52 </v>
   <v type="int" >       12       40       41       52       56 </v>
   <v type="int" >       12       36       40       51       52 </v>
   <v type="int" >       12       40       51       52       55 </v>
   <v type="int" >       12       40       52       55       56 </v>
   <v type="int" >       12       36       36       40       51 </v>
   <v type="int" >       12       36       40       51       55 </v>
   <v type="int" >       12       36       50       51       51 </v>
   <v type="int" >       12       36       51       51       55 </v>
   <v type="int" >       12       30       31       35       50 </v>
   <v type="int" >       12       31       35       36       50 </v>
   <v type="int" >       12       31       36       50       51 </v>
   <v type="int" >       12       40       41       44       55 </v>
   <v type="int" >       12       41       44       55       56 </v>
   <v type="int" >       12       44       55       56       59 </v>
   <v type="int" >       12       41       42       45       56 </v>
   <v type="int" >       12       41       44       45       56 </v>
   <v type="int" >       12       44       45       56       59 </v>
   <v type="int" >       12       42       45       56       57 </v>
   <v type="int" >       12       45       56       57       60 </v>
   <v type="int" >       12       45       56       59       60 </v>
   <v type="int" >       12       42       43       46       57 </v>
   <v type="int" >       12       42       45       46       57 </v>
   <v type="int" >       12       45       46       57       60 </v>
   <v type="int" >       12       43       46       57       58 </v>
   <v type="int" >       12       46       57       58       61 </v>
   <v type="int" >       12       46       57       60       61 </v>
   <v type="int" >       12       42       43       45       58 </v>
   <v type="int" >       12       43       45       46       58 </v>
   <v type="int" >       12       45       46       58       61 </v>
   <v type="int" >       12       42       45       57       58 </v>
   <v type="int" >       12       45       57       58       60 </v>
   <v type="int" >       12       45       58       60       61 </v>
   <v type="int" >       12       41       42       44       57 </v>
   <v type="int" >       12       42       44       45       57 </v>
   <v type="int" >       12       44       45       57       60 </v>
   <v type="int" >       12       41       44       56       57 </v>
   <v type="int" >       12       44       56       57       59 </v>
   <v type="int" >       12       44       57       59       60 </v>
   <v type="int" >       12       40       41       41       56 </v>
   <v type="int" >       12       41       41       44       56 </v>
   <v type="int" >       12       41       44       56       59 </v>
   <v type="int" >       12       40       41       55       56 </v>
   <v type="int" >       12       41       55       56       56 </v>
   <v type="int" >       12       41       56       56       59 </v>
   <v type="int" >       12       36       37       40       55 </v>
   <v type="int" >       12       37       40       41       55 </v>
   <v type="int" >       12       37       41       55       56 </v>
   <v type="int" >       12       36       37       51       55 </v>
   <v type="int" >       12       37       51       52       55 </v>
   <v type="int" >       12       37       52       55       56 </v>
   <v type="int" >       12       31       32       36       51 </v>
   <v type="int" >       12       32       36       37       51 </v>
   <v type="int" >       12       32       37       51       52 </v>
   <v type="int" >       12       44       45       47       59 </v>
   <v type="int" >       12       45       47       59       60 </v>
   <v type="int" >       12       47       59       60       62 </v>
   <v type="int" >       12       45       46       48       60 </v>
   <v type="int" >       12       45       47       48       60 </v>
   <v type="int" >       12       47       48       60       62 </v>
   <v type="int" >       12       46       48       60       61 </v>
   <v type="int" >       12       48       60       61       63 </v>
   <v type="int" >       12       48       60       62       63 </v>
   <v type="int" >       12       45       46       47       61 </v>
   <v type="int" >       12       46       47       48       61 </v>
   <v type="int" >       12       47       48       61       63 </v>
   <v type="int" >       12       45       47       60       61 </v>
   <v type="int" >       12       47       60       61       62 </v>
   <v type="int" >       12       47       61       62       63 </v>
   <v type="int" >       12       44       45       45       60 </v>
   <v type="int" >       12       45       45       47       60 </v>
   <v type="int" >       12       45       47       60       62 </v>
   <v type="int" >       12       44       45       59       60 </v>
   <v type="int" >       12       45       59       60       60 </v>
   <v type="int" >       12       45       60       60       62 </v>
   <v type="int" >       12       41       42       44       59 </v>
   <v type="int" >       12       42       44       45       59 </v>
   <v type="int" >       12       42       45       59       60 </v>
   <v type="int" >       12       41       42       56       59 </v>
   <v type="int" >       12       42       56       57       59 </v>
   <v type="int" >       12       42       57       59       60 </v>
   <v type="int" >       12       37       38       41       56 </v>
   <v type="int" >       12       38       41       42       56 </v>
   <v type="int" >       12       38       42       56       57 </v>
   <v type="int" >       12       37       38       52       56 </v>
   <v type="int" >       12       38       52       53       56 </v>
   <v type="int" >       12       38       53       56       57 </v>
   <v type="int" >       12       32       33       37       52 </v>
   <v type="int" >       12       33       37       38       52 </v>
   <v type="int" >       12       33       38       52       53 </v>
   <v type="int" >       12       47       48       49       62 </v>
   <v type="int" >       12       48       49       62       63 </v>
   <v type="int" >       12       49       62       63       64 </v>
   <v type="int" >       12       47       48       48       63 </v>
   <v type="int" >       12       48       48       49       63 </v>
   <v type="int" >       12       48       49       63       64 </v>
   <v type="int" >       12       47       48       62       63 </v>
   <v type="int" >       12       48       62       63       63 </v>
   <v type="int" >       12       48       63       63       64 </v>
   <v type="int" >       12       45       46       47       62 </v>
   <v type="int" >       12       46       47       48       62 </v>
   <v type="int" >       12       46       48       62       63 </v>
   <v type="int" >       12       45       46       60       62 </v>
   <v type="int" >       12       46       60       61       62 </v>
   <v type="int" >       12       46       61       62       63 </v>
   <v type="int" >       12       42       43       45       60 </v>
   <v type="int" >       12       43       45       46       60 </v>
   <v type="int" >       12       43       46       60       61 </v>
   <v type="int" >       12       42       43       57       60 </v>
   <v type="int" >       12       43       57       58       60 </v>
   <v type="int" >       12       43       58       60       61 </v>
   <v type="int" >       12       38       39       42       57 </v>
   <v type="int" >       12       39       42       43       57 </v>
   <v type="int" >       12       39       43       57       58 </v>
   <v type="int" >       12       38       39       53       57 </v>
   <v type="int" >       12       39       53       54       57 </v>
   <v type="int" >       12       39       54       57       58 </v>
   <v type="int" >       12       33       34       38       53 </v>
   <v type="int" >       12       34       38       39       53 </v>
   <v type="int" >       12       34       39       53       54 </v>
   <v type="int" >       12       47       48       49       64 </v>
   <v type="int" >       12       47       48       63       64 </v>
   <v type="int" >       12       47       62       63       64 </v>
   <v type="int" >       12       45       46       48       63 </v>
   <v type="int" >       12       45       47       48       63 </v>
   <v type="int" >       12       45       47       62       63 </v>
   <v type="int" >       12       45       46       61       63 </v>
   <v type="int" >       12       45       60       61       63 </v>
   <v type="int" >       12       45       60       62       63 </v>
   <v type="int" >       12       42       43       46       61 </v>
   <v type="int" >       12       42       45       46       61 </v>
   <v type="int" >       12       42       45       60       61 </v>
   <v type="int" >       12       42       43       58       61 </v>
   <v type="int" >       12       42       57       58       61 </v>
   <v type="int" >       12       42       57       60       61 </v>
   <v type="int" >       12       38       39       43       58 </v>
   <v type="int" >       12       38       42       43       58 </v>
   <v type="int" >       12       38       42       57       58 </v>
   <v type="int" >       12       38       39       54       58 </v>
   <v type="int" >       12       38       53       54       58 </v>
   <v type="int" >       12       38       53       57       58 </v>
   <v type="int" >       12       33       34       39       54 </v>
   <v type="int" >       12       33       38       39       54 </v>
   <v type="int" >       12       33       38       53       54 </v>
   <v type="int" >       12       44       45       47       62 </v>
   <v type="int" >       12       44       45       60       62 </v>
   <v type="int" >       12       44       59       60       62 </v>
   <v type="int" >       12       41       42       45       60 </v>
   <v type="int" >       12       41       44       45       60 </v>
   <v type="int" >       12       41       44       59       60 </v>
   <v type="int" >       12       41       42       57       60 </v>
   <v type="int" >       12       41       56       57       60 </v>
   <v type="int" >       12       41       56       59       60 </v>
   <v type="int" >       12       37       38       42       57 </v>
   <v type="int" >       12       37       41       42       57 </v>
   <v type="int" >       12       37       41       56       57 </v>
   <v type="int" >       12       37       38       53       57 </v>
   <v type="int" >       12       37       52       53       57 </v>
   <v type="int" >       12       37       52       56       57 </v>
   <v type="int" >       12       32       33       38       53 </v>
   <v type="int" >       12       32       37       38       53 </v>
   <v type="int" >       12       32       37       52       53 </v>
   <v type="int" >       12       40       41       44       59 </v>
   <v type="int" >       12       40       41       56       59 </v>
   <v type="int" >       12       40       55       56       59 </v>
   <v type="int" >       12       36       37       41       56 </v>
   <v type="int" >       12       36       40       41       56 </v>
   <v type="int" >       12       36       40       55       56 </v>
   <v type="int" >       12       36       37       52       56 </v>
   <v type="int" >       12       36       51       52       56 </v>
   <v type="int" >       12       36       51       55       56 </v>
   <v type="int" >       12       31       32       37       52 </v>
   <v type="int" >       12       31       36       37       52 </v>
   <v type="int" >       12       31       36       51       52 </v>
   <v type="int" >       12       35       36       40       55 </v>
   <v type="int" >       12       35       36       51       55 </v>
   <v type="int" >       12       35       50       51       55 </v>
   <v type="int" >       12       30       31       36       51 </v>
   <v type="int" >       12       30       35       36       51 </v>
   <v type="int" >       12       30       35       50       51 </v>
   <v type="int" >       12       29       30       35       50 </v>
   <v type="int" >       12       50       51       51       55 </v>
   <v type="int" >       12       51       51       55       55 </v>
   <v type="int" >       12       51       55       55       65 </v>
   <v type="int" >       12       51       52       55       56 </v>
   <v type="int" >       12       51       55       55       56 </v>
   <v type="int" >       12       55       55       56       65 </v>
   <v type="int" >       12       52       55       56       56 </v>
   <v type="int" >       24       55       56       56       66 </v>
   <v type="int" >       24       55       56       65       66 </v>
   <v type="int" >       12       52       53       56       57 </v>
   <v type="int" >       12       52       56       56       57 </v>
   <v type="int" >       12       56       56       57       66 </v>
   <v type="int" >       12       53       56       57       57 </v>
   <v type="int" >       12       56       57       57       67 </v>
   <v type="int" >       12       56       57       66       67 </v>
   <v type="int" >       12       53       54       57       58 </v>
   <v type="int" >       12       53       57       57       58 </v>
   <v type="int" >       12       57       57       58       67 </v>
   <v type="int" >       12       54       57       58       58 </v>
   <v type="int" >       12       57       58       58       68 </v>
   <v type="int" >       12       57       58       67       68 </v>
   <v type="int" >       12       55       56       59       65 </v>
   <v type="int" >       12       56       59       65       66 </v>
   <v type="int" >       12       59       65       66       69 </v>
   <v type="int" >       12       56       57       60       66 </v>
   <v type="int" >       12       56       59       60       66 </v>
   <v type="int" >       12       59       60       66       69 </v>
   <v type="int" >       12       57       60       66       67 </v>
   <v type="int" >       12       60       66       67       70 </v>
   <v type="int" >       12       60       66       69       70 </v>
   <v type="int" >       12       57       58       61       67 </v>
   <v type="int" >       12       57       60       61       67 </v>
   <v type="int" >       12       60       61       67       70 </v>
   <v type="int" >       12       58       61       67       68 </v>
   <v type="int" >       12       61       67       68       71 </v>
   <v type="int" >       12       61       67       70       71 </v>
   <v type="int" >       12       57       58       60       68 </v>
   <v type="int" >       12       58       60       61       68 </v>
   <v type="int" >       12       60       61       68       71 </v>
   <v type="int" >       12       57       60       67       68 </v>
   <v type="int" >       12       60       67       68       70 </v>
   <v type="int" >       12       60       68       70       71 </v>
   <v type="int" >       12       56       57       59       67 </v>
   <v type="int" >       12       57       59       60       67 </v>
   <v type="int" >       12       59       60       67       70 </v>
   <v type="int" >       12       56       59       66       67 </v>
   <v type="int" >       12       59       66       67       69 </v>
   <v type="int" >       12       59       67       69       70 </v>
   <v type="int" >       12       56       56       59       66 </v>
   <v type="int" >       12       56       59       66       69 </v>
   <v type="int" >       12       56       65       66       66 </v>
   <v type="int" >       12       56       66       66       69 </v>
   <v type="int" >       12       51       52       55       65 </v>
   <v type="int" >       12       52       55       56       65 </v>
   <v type="int" >       12       52       56       65       66 </v>
   <v type="int" >       12       59       60       62       69 </v>
   <v type="int" >       12       60       62       69       70 </v>
   <v type="int" >       12       62       69       70       72 </v>
   <v type="int" >       12       60       61       63       70 </v>
   <v type="int" >       12       60       62       63       70 </v>
   <v type="int" >       12       62       63       70       72 </v>
   <v type="int" >       12       61       63       70       71 </v>
   <v type="int" >       12       63       70       71       73 </v>
   <v type="int" >       12       63       70       72       73 </v>
   <v type="int" >       12       60       61       62       71 </v>
   <v type="int" >       12       61       62       63       71 </v>
   <v type="int" >       12       62       63       71       73 </v>
   <v type="int" >       12       60       62       70       71 </v>
   <v type="int" >       12       62       70       71       72 </v>
   <v type="int" >       12       62       71       72       73 </v>
   <v type="int" >       12       59       60       60       70 </v>
   <v type="int" >       12       60       60       62       70 </v>
   <v type="int" >       12       60       62       70       72 </v>
   <v type="int" >       12       59       60       69       70 </v>
   <v type="int" >       12       60       69       70       70 </v>
   <v type="int" >       12       60       70       70       72 </v>
   <v type="int" >       12       56       57       59       69 </v>
   <v type="int" >       12       57       59       60       69 </v>
   <v type="int" >       12       57       60       69       70 </v>
   <v type="int" >       12       56       57       66       69 </v>
   <v type="int" >       12       57       66       67       69 </v>
   <v type="int" >       12       57       67       69       70 </v>
   <v type="int" >       12       52       53       56       66 </v>
   <v type="int" >       12       53       56       57       66 </v>
   <v type="int" >       12       53       57       66       67 </v>
   <v type="int" >       12       62       63       64       72 </v>
   <v type="int" >       12       63       64       72       73 </v>
   <v type="int" >       12       64       72       73       74 </v>
   <v type="int" >       12       62       63       63       73 </v>
   <v type="int" >       12       63       63       64       73 </v>
   <v type="int" >       12       63       64       73       74 </v>
   <v type="int" >       12       62       63       72       73 </v>
   <v type="int" >       12       63       72       73       73 </v>
   <v type="int" >       12       63       73       73       74 </v>
   <v type="int" >       12       60       61       62       72 </v>
   <v type="int" >       12       61       62       63       72 </v>
   <v type="int" >       12       61       63       72       73 </v>
   <v type="int" >       12       60       61       70       72 </v>
   <v type="int" >       12       61       70       71       72 </v>
   <v type="int" >       12       61       71       72       73 </v>
   <v type="int" >       12       57       58       60       70 </v>
   <v type="int" >       12       58       60       61       70 </v>
   <v type="int" >       12       58       61       70       71 </v>
   <v type="int" >       12       57       58       67       70 </v>
   <v type="int" >       12       58       67       68       70 </v>
   <v type="int" >       12       58       68       70       71 </v>
   <v type="int" >       12       53       54       57       67 </v>
   <v type="int" >       12       54       57       58       67 </v>
   <v type="int" >       12       54       58       67       68 </v>
   <v type="int" >       12       62       63       64       74 </v>
   <v type="int" >       12       62       63       73       74 </v>
   <v type="int" >       12       62       72       73       74 </v>
   <v type="int" >       12       60       61       63       73 </v>
   <v type="int" >       12       60       62       63       73 </v>
   <v type="int" >       12       60       62       72       73 </v>
   <v type="int" >       12       60       61       71       73 </v>
   <v type="int" >       12       60       70       71       73 </v>
   <v type="int" >       12       60       70       72       73 </v>
   <v type="int" >       12       57       58       61       71 </v>
   <v type="int" >       12       57       60       61       71 </v>
   <v type="int" >       12       57       60       70       71 </v>
   <v type="int" >       12       57       58       68       71 </v>
   <v type="int" >       12       57       67       68       71 </v>
   <v type="int" >       12       57       67       70       71 </v>
   <v type="int" >       12       53       54       58       68 </v>
   <v type="int" >       12       53       57       58       68 </v>
   <v type="int" >       12       53       57       67       68 </v>
   <v type="int" >       12       59       60       62       72 </v>
   <v type="int" >       12       59       60       70       72 </v>
   <v type="int" >       12       59       69       70       72 </v>
   <v type="int" >       12       56       57       60       70 </v>
   <v type="int" >       12       56       59       60       70 </v>
   <v type="int" >       12       56       59       69       70 </v>
   <v type="int" >       12       56       57       67       70 </v>
   <v type="int" >       12       56       66       67       70 </v>
   <v type="int" >       12       56       66       69       70 </v>
   <v type="int" >       12       52       53       57       67 </v>
   <v type="int" >       12       52       56       57       67 </v>
   <v type="int" >       12       52       56       66       67 </v>
   <v type="int" >       12       55       56       59       69 </v>
   <v type="int" >       12       55       56       66       69 </v>
   <v type="int" >       12       55       65       66       69 </v>
   <v type="int" >       12       51       52       56       66 </v>
   <v type="int" >       12       51       55       56       66 </v>
   <v type="int" >       12       51       55       65       66 </v>
   <v type="int" >       12       50       51       55       65 </v>
   <v type="int" >       12       65       66       66       69 </v>
   <v type="int" >       12       66       66       69       69 </v>
   <v type="int" >       12       66       69       69       75 </v>
   <v type="int" >       12       66       67       69       70 </v>
   <v type="int" >       12       66       69       69       70 </v>
   <v type="int" >       12       69       69       70       75 </v>
   <v type="int" >       12       67       69       70       70 </v>
   <v type="int" >       24       69       70       70       76 </v>
   <v type="int" >       24       69       70       75       76 </v>
   <v type="int" >       12       67       68       70       71 </v>
   <v type="int" >       12       67       70       70       71 </v>
   <v type="int" >       12       70       70       71       76 </v>
   <v type="int" >       12       68       70       71       71 </v>
   <v type="int" >       12       70       71       71       77 </v>
   <v type="int" >       12       70       71       76       77 </v>
   <v type="int" >       12       69       70       72       75 </v>
   <v type="int" >       12       70       72       75       76 </v>
   <v type="int" >       12       72       75       76       78 </v>
   <v type="int" >       12       70       71       73       76 </v>
   <v type="int" >       12       70       72       73       76 </v>
   <v type="int" >       12       72       73       76       78 </v>
   <v type="int" >       12       71       73       76       77 </v>
   <v type="int" >       12       73       76       77       79 </v>
   <v type="int" >       12       73       76       78       79 </v>
   <v type="int" >       12       70       71       72       77 </v>
   <v type="int" >       12       71       72       73       77 </v>
   <v type="int" >       12       72       73       77       79 </v>
   <v type="int" >       12       70       72       76       77 </v>
   <v type="int" >       12       72       76       77       78 </v>
   <v type="int" >       12       72       77       78       79 </v>
   <v type="int" >       12       70       70       72       76 </v>
   <v type="int" >       12       70       72       76       78 </v>
   <v type="int" >       12       70       75       76       76 </v>
   <v type="int" >       12       70       76       76       78 </v>
   <v type="int" >       12       66       67       69       75 </v>
   <v type="int" >       12       67       69       70       75 </v>
   <v type="int" >       12       67       70       75       76 </v>
   <v type="int" >       12       72       73       74       78 </v>
   <v type="int" >       12       73       74       78       79 </v>
   <v type="int" >       12       74       78       79       80 </v>
   <v type="int" >       12       72       73       73       79 </v>
   <v type="int" >       12       73       73       74       79 </v>
   <v type="int" >       12       73       74       79       80 </v>
   <v type="int" >       12       72       73       78       79 </v>
   <v type="int" >       12       73       78       79       79 </v>
   <v type="int" >       12       73       79       79       80 </v>
   <v type="int" >       12       70       71       72       78 </v>
   <v type="int" >       12       71       72       73       78 </v>
   <v type="int" >       12       71       73       78       79 </v>
   <v type="int" >       12       70       71       76       78 </v>
   <v type="int" >       12       71       76       77       78 </v>
   <v type="int" >       12       71       77       78       79 </v>
   <v type="int" >       12       67       68       70       76 </v>
   <v type="int" >       12       68       70       71       76 </v>
   <v type="int" >       12       68       71       76       77 </v>
   <v type="int" >       12       72       73       74       80 </v>
   <v type="int" >       12       72       73       79       80 </v>
   <v type="int" >       12       72       78       79       80 </v>
   <v type="int" >       12       70       71       73       79 </v>
   <v type="int" >       12       70       72       73       79 </v>
   <v type="int" >       12       70       72       78       79 </v>
   <v type="int" >       12       70       71       77       79 </v>
   <v type="int" >       12       70       76       77       79 </v>
   <v type="int" >       12       70       76       78       79 </v>
   <v type="int" >       12       67       68       71       77 </v>
   <v type="int" >       12       67       70       71       77 </v>
   <v type="int" >       12       67       70       76       77 </v>
   <v type="int" >       12       69       70       72       78 </v>
   <v type="int" >       12       69       70       76       78 </v>
   <v type="int" >       12       69       75       76       78 </v>
   <v type="int" >       12       66       67       70       76 </v>
   <v type="int" >       12       66       69       70       76 </v>
   <v type="int" >       12       66       69       75       76 </v>
   <v type="int" >       12       65       66       69       75 </v>
   <v type="int" >       12       75       76       76       78 </v>
   <v type="int" >       12       76       76       78       78 </v>
   <v type="int" >       12       76       78       78       81 </v>
   <v type="int" >       12       76       77       78       79 </v>
   <v type="int" >       12       76       78       78       79 </v>
   <v type="int" >       12       78       78       79       81 </v>
   <v type="int" >       12       77       78       79       79 </v>
   <v type="int" >       24       78       79       79       82 </v>
   <v type="int" >       24       78       79       81       82 </v>
   <v type="int" >       12       78       79       80       81 </v>
   <v type="int" >       12       79       80       81       82 </v>
   <v type="int" >       12       80       81       82       83 </v>
   <v type="int" >       12       79       79       80       82 </v>
   <v type="int" >       12       79       80       82       83 </v>
   <v type="int" >       12       79       81       82       82 </v>
   <v type="int" >       12       79       82       82       83 </v>
   <v type="int" >       12       76       77       78       81 </v>
   <v type="int" >       12       77       78       79       81 </v>
   <v type="int" >       12       77       79       81       82 </v>
   <v type="int" >       12       78       79       80       83 </v>
   <v type="int" >       12       78       79       82       83 </v>
   <v type="int" >       12       78       81       82       83 </v>
   <v type="int" >       12       76       77       79       82 </v>
   <v type="int" >       12       76       78       79       82 </v>
   <v type="int" >       12       76       78       81       82 </v>
   <v type="int" >       12       75       76       78       81 </v>
   <v type="int" >       12       81       82       82       83 </v>
   <v type="int" >       12       82       82       83       83 </v>
   <v type="int" >       12       82       83       83       84 </v>
   <v type="int" >       12       81       82       83       84 </v>
  </varray>
  <i name="volumeweight">      0.00009645 </i>
 </kpoints>
 <parameters>
  <separator name="general" >
   <i type="string" name="SYSTEM">unknown system</i>
   <i type="logical" name="LCOMPAT"> F  </i>
  </separator>
  <separator name="electronic" >
   <i type="string" name="PREC">accura</i>
   <i name="ENMAX">    400.00000000</i>
   <i name="ENAUG">    644.87300000</i>
   <i name="EDIFF">      0.00000100</i>
   <i type="int" name="IALGO">    38</i>
   <i type="int" name="IWAVPR">    10</i>
   <i type="int" name="NBANDS">    24</i>
   <i name="NELECT">     32.00000000</i>
   <i type="int" name="TURBO">     0</i>
   <i type="int" name="IRESTART">     0</i>
   <i type="int" name="NREBOOT">     0</i>
   <i type="int" name="NMIN">     0</i>
   <i name="EREF">      0.00000000</i>
   <separator name="electronic smearing" >
    <i type="int" name="ISMEAR">    -5</i>
    <i name="SIGMA">      0.06000000</i>
    <i name="KSPACING">      0.50000000</i>
    <i type="logical" name="KGAMMA"> T  </i>
   </separator>
   <separator name="electronic projectors" >
    <i type="logical" name="LREAL"> F  </i>
    <v name="ROPT">      0.00000000</v>
    <i type="int" name="LMAXPAW">  -100</i>
    <i type="int" name="LMAXMIX">     2</i>
    <i type="logical" name="NLSPLINE"> F  </i>
   </separator>
   <separator name="electronic startup" >
    <i type="int" name="ISTART">     0</i>
    <i type="int" name="ICHARG">     2</i>
    <i type="int" name="INIWAV">     1</i>
   </separator>
   <separator name="electronic spin" >
    <i type="int" name="ISPIN">     1</i>
    <i type="logical" name="LNONCOLLINEAR"> F  </i>
    <v name="MAGMOM">      1.00000000      1.00000000      1.00000000      1.00000000      1.00000000      1.00000000      1.00000000      1.00000000</v>
    <i name="NUPDOWN">     -1.00000000</i>
    <i type="logical" name="LSORBIT"> F  </i>
    <v name="SAXIS">      0.00000000      0.00000000      1.00000000</v>
    <i type="logical" name="LSPIRAL"> F  </i>
    <v name="QSPIRAL">      0.00000000      0.00000000      0.00000000</v>
    <i type="logical" name="LZEROZ"> F  </i>
   </separator>
   <separator name="electronic exchange-correlation" >
    <i type="logical" name="LASPH"> F  </i>
    <i type="logical" name="LMETAGGA"> F  </i>
   </separator>
   <separator name="electronic convergence" >
    <i type="int" name="NELM">    60</i>
    <i type="int" name="NELMDL">    -5</i>
    <i type="int" name="NELMIN">     2</i>
    <i name="ENINI">    400.00000000</i>
    <separator name="electronic convergence detail" >
     <i type="logical" name="LDIAG"> T  </i>
     <i type="logical" name="LSUBROT"> F  </i>
     <i name="WEIMIN">      0.00000000</i>
     <i name="EBREAK">      0.00000001</i>
     <i name="DEPER">      0.30000000</i>
     <i type="int" name="NRMM">     4</i>
     <i name="TIME">      0.40000000</i>
    </separator>
   </separator>
   <separator name="electronic mixer" >
    <i name="AMIX">      0.40000000</i>
    <i name="BMIX">      1.00000000</i>
    <i name="AMIN">      0.10000000</i>
    <i name="AMIX_MAG">      1.60000000</i>
    <i name="BMIX_MAG">      1.00000000</i>
    <separator name="electronic mixer details" >
     <i type="int" name="IMIX">     4</i>
     <i type="logical" name="MIXFIRST"> F  </i>
     <i type="int" name="MAXMIX">   -45</i>
     <i name="WC">    100.00000000</i>
     <i type="int" name="INIMIX">     1</i>
     <i type="int" name="MIXPRE">     1</i>
     <i type="int" name="MREMOVE">     5</i>
    </separator>
   </separator>
   <separator name="electronic dipolcorrection" >
    <i type="logical" name="LDIPOL"> F  </i>
    <i type="logical" name="LMONO"> F  </i>
    <i type="int" name="IDIPOL">     0</i>
    <i name="EPSILON">      1.00000000</i>
    <v name="DIPOL">   -100.00000000   -100.00000000   -100.00000000</v>
    <i name="EFIELD">      0.00000000</i>
   </separator>
  </separator>
  <separator name="grids" >
   <i type="int" name="NGX">    24</i>
   <i type="int" name="NGY">    24</i>
   <i type="int" name="NGZ">    24</i>
   <i type="int" name="NGXF">    48</i>
   <i type="int" name="NGYF">    48</i>
   <i type="int" name="NGZF">    48</i>
   <i type="logical" name="ADDGRID"> F  </i>
  </separator>
  <separator name="ionic" >
   <i type="int" name="NSW">     0</i>
   <i type="int" name="IBRION">    -1</i>
   <i type="int" name="MDALGO">     0</i>
   <i type="int" name="ISIF">     2</i>
   <i name="PSTRESS">      0.00000000</i>
   <i name="EDIFFG">      0.00001000</i>
   <i type="int" name="NFREE">     0</i>
   <i name="POTIM">      0.02000000</i>
   <i name="SMASS">     -3.00000000</i>
   <i name="SCALEE">      1.00000000</i>
  </separator>
  <separator name="ionic md" >
   <i name="TEBEG">      0.00010000</i>
   <i name="TEEND">      0.00010000</i>
   <i type="int" name="NBLOCK">     1</i>
   <i type="int" name="KBLOCK">     1</i>
   <i type="int" name="NPACO">   256</i>
   <i name="APACO">     16.00000000</i>
  </separator>
  <separator name="symmetry" >
   <i type="int" name="ISYM">     2</i>
   <i name="SYMPREC">      0.00001000</i>
  </separator>
  <separator name="dos" >
   <i type="int" name="LORBIT">     0</i>
   <v name="RWIGS">     -1.00000000</v>
   <i type="int" name="NEDOS">   301</i>
   <i name="EMIN">     10.00000000</i>
   <i name="EMAX">    -10.00000000</i>
   <i name="EFERMI">      0.00000000</i>
  </separator>
  <separator name="writing" >
   <i type="int" name="NWRITE">     2</i>
   <i type="logical" name="LWAVE"> F  </i>
   <i type="logical" name="LDOWNSAMPLE"> F  </i>
   <i type="logical" name="LCHARG"> F  </i>
   <i type="logical" name="LPARD"> F  </i>
   <i type="logical" name="LVTOT"> F  </i>
   <i type="logical" name="LVHAR"> F  </i>
   <i type="logical" name="LELF"> F  </i>
   <i type="logical" name="LOPTICS"> F  </i>
   <v name="STM">      0.00000000      0.00000000      0.00000000      0.00000000      0.00000000      0.00000000      0.00000000</v>
  </separator>
  <separator name="performance" >
   <i type="int" name="NPAR">     4</i>
   <i type="int" name="NSIM">     4</i>
   <i type="int" name="NBLK">    -1</i>
   <i type="logical" name="LPLANE"> T  </i>
   <i type="logical" name="LSCALAPACK"> T  </i>
   <i type="logical" name="LSCAAWARE"> F  </i>
   <i type="logical" name="LSCALU"> F  </i>
   <i type="logical" name="LASYNC"> F  </i>
   <i type="logical" name="LORBITALREAL"> F  </i>
  </separator>
  <separator name="miscellaneous" >
   <i type="int" name="IDIOT">     3</i>
   <i type="int" name="ISPECIAL">     0</i>
   <i type="logical" name="LMUSIC"> F  </i>
   <v name="POMASS">     12.01100000</v>
   <v name="DARWINR">      0.00000000</v>
   <v name="DARWINV">      1.00000000</v>
   <i type="logical" name="LCORR"> T  </i>
  </separator>
  <i type="logical" name="GGA_COMPAT"> T  </i>
  <i type="logical" name="LBERRY"> F  </i>
  <i type="int" name="ICORELEVEL">     0</i>
  <i type="logical" name="LDAU"> F  </i>
  <i type="int" name="I_CONSTRAINED_M">     0</i>
  <separator name="electronic exchange-correlation" >
   <i type="string" name="GGA">--</i>
   <i type="int" name="VOSKOWN">     0</i>
   <i type="logical" name="LHFCALC"> F  </i>
   <i type="string" name="PRECFOCK"></i>
   <i type="logical" name="LSYMGRAD"> F  </i>
   <i type="logical" name="LHFONE"> F  </i>
   <i type="logical" name="LRHFCALC"> F  </i>
   <i type="logical" name="LTHOMAS"> F  </i>
   <i type="logical" name="LMODELHF"> F  </i>
   <i name="ENCUT4O">     -1.00000000</i>
   <i type="int" name="EXXOEP">     0</i>
   <i type="int" name="FOURORBIT">     0</i>
   <i name="AEXX">      0.00000000</i>
   <i name="HFALPHA">      0.00000000</i>
   <i name="MCALPHA">      0.00000000</i>
   <i name="ALDAX">      1.00000000</i>
   <i name="AGGAX">      1.00000000</i>
   <i name="ALDAC">      1.00000000</i>
   <i name="AGGAC">      1.00000000</i>
   <i type="int" name="NKREDX">     1</i>
   <i type="int" name="NKREDY">     1</i>
   <i type="int" name="NKREDZ">     1</i>
   <i type="logical" name="SHIFTRED"> F  </i>
   <i type="logical" name="ODDONLY"> F  </i>
   <i type="logical" name="EVENONLY"> F  </i>
   <i type="int" name="LMAXFOCK">     0</i>
   <i type="int" name="NMAXFOCKAE">     0</i>
   <i type="logical" name="LFOCKAEDFT"> F  </i>
   <i name="HFSCREEN">      0.00000000</i>
   <i name="HFSCREENC">      0.00000000</i>
   <i type="int" name="NBANDSGWLOW">     0</i>
  </separator>
  <separator name="vdW DFT" >
   <i type="logical" name="LUSE_VDW"> F  </i>
   <i name="Zab_VDW">     -0.84910000</i>
   <i name="PARAM1">      0.12340000</i>
   <i name="PARAM2">      1.00000000</i>
   <i name="PARAM3">      0.00000000</i>
  </separator>
  <separator name="model GW" >
   <i type="int" name="MODEL_GW">     0</i>
   <i name="MODEL_EPS0">      3.06214700</i>
   <i name="MODEL_ALPHA">      1.00000000</i>
  </separator>
  <separator name="linear response parameters" >
   <i type="logical" name="LEPSILON"> F  </i>
   <i type="logical" name="LRPA"> F  </i>
   <i type="logical" name="LNABLA"> F  </i>
   <i type="logical" name="LVEL"> F  </i>
   <i type="int" name="KINTER">     0</i>
   <i name="CSHIFT">      0.10000000</i>
   <i name="OMEGAMAX">     -1.00000000</i>
   <i name="DEG_THRESHOLD">      0.00200000</i>
   <i name="RTIME">     -0.10000000</i>
   <i name="WPLASMAI">      0.00000000</i>
   <v name="DFIELD">      0.00000000      0.00000000      0.00000000</v>
   <v name="WPLASMA">      0.00000000      0.00000000      0.00000000      0.00000000      0.00000000      0.00000000      0.00000000      0.00000000      0.00000000</v>
  </separator>
  <separator name="orbital magnetization" >
   <i type="logical" name="NUCIND"> F  </i>
   <v name="MAGPOS">      0.00000000      0.00000000      0.00000000</v>
   <i type="logical" name="LNICSALL"> T  </i>
   <i type="logical" name="ORBITALMAG"> F  </i>
   <i type="logical" name="LMAGBLOCH"> F  </i>
   <i type="logical" name="LCHIMAG"> F  </i>
   <i type="logical" name="LGAUGE"> T  </i>
   <i type="int" name="MAGATOM">     0</i>
   <v name="MAGDIPOL">      0.00000000      0.00000000      0.00000000</v>
   <v name="AVECCONST">      0.00000000      0.00000000      0.00000000</v>
  </separator>
  <separator name="response functions" >
   <i type="logical" name="LADDER"> F  </i>
   <i type="logical" name="LRPAFORCE"> F  </i>
   <i type="logical" name="LFXC"> F  </i>
   <i type="logical" name="LHARTREE"> T  </i>
   <i type="int" name="IBSE">     0</i>
   <v type="int" name="KPOINT">    -1     0     0     0</v>
   <i type="logical" name="LTCTE"> F  </i>
   <i type="logical" name="LTETE"> F  </i>
   <i type="logical" name="LTRIPLET"> F  </i>
   <i type="logical" name="LFXCEPS"> F  </i>
   <i type="logical" name="LFXHEG"> F  </i>
   <i type="int" name="NATURALO">     2</i>
   <i type="logical" name="L2ORDER"> F  </i>
   <i type="logical" name="LMP2LT"> F  </i>
   <i type="logical" name="LUSEW"> F  </i>
   <i name="ENCUTGW">     -2.00000000</i>
   <i name="ENCUTGWSOFT">     -2.00000000</i>
[...]
       <r>   -5.2918    1.0000 </r>
       <r>   -5.2918    1.0000 </r>
       <r>   -2.7801    1.0000 </r>
       <r>   -2.7801    1.0000 </r>
       <r>   -2.7801    1.0000 </r>
       <r>   -1.4933    1.0000 </r>
       <r>    7.5964    1.0000 </r>
       <r>    7.5964    1.0000 </r>
       <r>    7.5964    1.0000 </r>
       <r>    7.8774    1.0000 </r>
       <r>    7.8774    1.0000 </r>
       <r>    7.8774    1.0000 </r>
       <r>    8.4003    1.0000 </r>
       <r>    8.4003    1.0000 </r>
       <r>   19.8714    0.0000 </r>
       <r>   19.8714    0.0000 </r>
       <r>   19.8714    0.0000 </r>
       <r>   20.2763    0.0000 </r>
       <r>   20.2763    0.0000 </r>
       <r>   21.0013    0.0000 </r>
       <r>   21.0013    0.0000 </r>
       <r>   21.0014    0.0000 </r>
      </set>
      <set comment="kpoint 82">
       <r>   -5.9599    1.0000 </r>
       <r>   -5.9599    1.0000 </r>
       <r>   -5.0728    1.0000 </r>
       <r>   -5.0728    1.0000 </r>
       <r>   -3.1192    1.0000 </r>
       <r>   -3.1192    1.0000 </r>
       <r>   -2.2495    1.0000 </r>
       <r>   -2.2495    1.0000 </r>
       <r>    7.6852    1.0000 </r>
       <r>    7.6852    1.0000 </r>
       <r>    8.0190    1.0000 </r>
       <r>    8.0190    1.0000 </r>
       <r>    8.1488    1.0000 </r>
       <r>    8.1488    1.0000 </r>
       <r>    8.2240    1.0000 </r>
       <r>    8.2240    1.0000 </r>
       <r>   20.1096    0.0000 </r>
       <r>   20.1096    0.0000 </r>
       <r>   20.1242    0.0000 </r>
       <r>   20.1242    0.0000 </r>
       <r>   20.5505    0.0000 </r>
       <r>   20.5505    0.0000 </r>
       <r>   20.6612    0.0000 </r>
       <r>   20.6612    0.0000 </r>
      </set>
      <set comment="kpoint 83">
       <r>   -5.4148    1.0000 </r>
       <r>   -5.4148    1.0000 </r>
       <r>   -5.4148    1.0000 </r>
       <r>   -5.4148    1.0000 </r>
       <r>   -2.9072    1.0000 </r>
       <r>   -2.9072    1.0000 </r>
       <r>   -2.9072    1.0000 </r>
       <r>   -2.9072    1.0000 </r>
       <r>    8.0292    1.0000 </r>
       <r>    8.0292    1.0000 </r>
       <r>    8.0292    1.0000 </r>
       <r>    8.0292    1.0000 </r>
       <r>    8.2509    1.0000 </r>
       <r>    8.2509    1.0000 </r>
       <r>    8.2509    1.0000 </r>
       <r>    8.2509    1.0000 </r>
       <r>   20.2729    0.0000 </r>
       <r>   20.2729    0.0000 </r>
       <r>   20.2729    0.0000 </r>
       <r>   20.2729    0.0000 </r>
       <r>   20.3855    0.0000 </r>
       <r>   20.3855    0.0000 </r>
       <r>   20.3855    0.0000 </r>
       <r>   20.3855    0.0000 </r>
      </set>
      <set comment="kpoint 84">
       <r>   -5.1929    1.0000 </r>
       <r>   -5.1929    1.0000 </r>
       <r>   -5.1929    1.0000 </r>
       <r>   -5.1929    1.0000 </r>
       <r>   -3.2508    1.0000 </r>
       <r>   -3.2508    1.0000 </r>
       <r>   -3.2508    1.0000 </r>
       <r>   -3.2508    1.0000 </r>
       <r>    8.2682    1.0000 </r>
       <r>    8.2682    1.0000 </r>
       <r>    8.2682    1.0000 </r>
       <r>    8.2682    1.0000 </r>
       <r>    8.2682    1.0000 </r>
       <r>    8.2682    1.0000 </r>
       <r>    8.2682    1.0000 </r>
       <r>    8.2682    1.0000 </r>
       <r>   20.2801    0.0000 </r>
       <r>   20.2801    0.0000 </r>
       <r>   20.2801    0.0000 </r>
       <r>   20.2801    0.0000 </r>
       <r>   20.2801    0.0000 </r>
       <r>   20.2801    0.0000 </r>
       <r>   20.2801    0.0000 </r>
       <r>   20.2801    0.0000 </r>
      </set>
     </set>
    </set>
   </array>
  </eigenvalues>
  <separator name="orbital magnetization" >
   <v name="MAGDIPOLOUT">      0.00000000      0.00000000      0.00000000</v>
  </separator>
  <dos>
   <i name="efermi">     11.36474323 </i>
   <total>
    <array>
     <dimension dim="1">gridpoints</dimension>
     <dimension dim="2">spin</dimension>
     <field>energy</field>
     <field>total</field>
     <field>integrated</field>
     <set>
      <set comment="spin 1">
       <r>   -13.3861     0.0000     0.0000 </r>
       <r>   -13.2552     0.0000     0.0000 </r>
       <r>   -13.1244     0.0000     0.0000 </r>
       <r>   -12.9935     0.0000     0.0000 </r>
       <r>   -12.8626     0.0000     0.0000 </r>
       <r>   -12.7318     0.0000     0.0000 </r>
       <r>   -12.6009     0.0000     0.0000 </r>
       <r>   -12.4700     0.0000     0.0000 </r>
       <r>   -12.3391     0.0000     0.0000 </r>
       <r>   -12.2083     0.0000     0.0000 </r>
       <r>   -12.0774     0.0000     0.0000 </r>
       <r>   -11.9465     0.0000     0.0000 </r>
       <r>   -11.8157     0.0000     0.0000 </r>
       <r>   -11.6848     0.0000     0.0000 </r>
       <r>   -11.5539     0.0322     0.0005 </r>
       <r>   -11.4230     0.1426     0.0149 </r>
       <r>   -11.2922     0.2234     0.0388 </r>
       <r>   -11.1613     0.2525     0.0696 </r>
       <r>   -11.0304     0.2963     0.1056 </r>
       <r>   -10.8996     0.3337     0.1473 </r>
       <r>   -10.7687     0.3604     0.1926 </r>
       <r>   -10.6378     0.3888     0.2415 </r>
       <r>   -10.5070     0.4241     0.2947 </r>
       <r>   -10.3761     0.4454     0.3518 </r>
       <r>   -10.2452     0.4669     0.4115 </r>
       <r>   -10.1143     0.4904     0.4740 </r>
       <r>    -9.9835     0.5163     0.5399 </r>
       <r>    -9.8526     0.5415     0.6092 </r>
       <r>    -9.7217     0.5587     0.6811 </r>
       <r>    -9.5909     0.5768     0.7554 </r>
       <r>    -9.4600     0.5967     0.8322 </r>
       <r>    -9.3291     0.6172     0.9116 </r>
       <r>    -9.1983     0.6391     0.9938 </r>
       <r>    -9.0674     0.6589     1.0789 </r>
       <r>    -8.9365     0.6748     1.1661 </r>
       <r>    -8.8056     0.6904     1.2554 </r>
       <r>    -8.6748     0.7083     1.3470 </r>
       <r>    -8.5439     0.7266     1.4409 </r>
       <r>    -8.4130     0.7457     1.5372 </r>
       <r>    -8.2822     0.7655     1.6361 </r>
       <r>    -8.1513     0.7810     1.7373 </r>
       <r>    -8.0204     0.7964     1.8406 </r>
       <r>    -7.8896     0.8124     1.9458 </r>
       <r>    -7.7587     0.8292     2.0532 </r>
       <r>    -7.6278     0.8461     2.1629 </r>
       <r>    -7.4969     0.8637     2.2747 </r>
       <r>    -7.3661     0.9203     2.3922 </r>
       <r>    -7.2352     0.9436     2.5143 </r>
       <r>    -7.1043     0.9865     2.6413 </r>
       <r>    -6.9735     0.9888     2.7707 </r>
       <r>    -6.8426     0.9669     2.8989 </r>
       <r>    -6.7117     0.9366     3.0234 </r>
       <r>    -6.5808     0.9601     3.1479 </r>
       <r>    -6.4500     0.9692     3.2741 </r>
       <r>    -6.3191     0.9710     3.4010 </r>
       <r>    -6.1882     0.9833     3.5285 </r>
       <r>    -6.0574     1.0273     3.6600 </r>
       <r>    -5.9265     1.0734     3.7981 </r>
       <r>    -5.7956     1.1468     3.9436 </r>
       <r>    -5.6648     1.1769     4.0961 </r>
       <r>    -5.5339     1.1811     4.2494 </r>
       <r>    -5.4030     1.2457     4.4074 </r>
       <r>    -5.2721     1.4089     4.5807 </r>
       <r>    -5.1413     1.4951     4.7732 </r>
       <r>    -5.0104     1.3740     4.9582 </r>
       <r>    -4.8795     1.3588     5.1360 </r>
       <r>    -4.7487     1.3076     5.3126 </r>
       <r>    -4.6178     1.2441     5.4773 </r>
       <r>    -4.4869     1.2899     5.6430 </r>
       <r>    -4.3561     1.3149     5.8143 </r>
       <r>    -4.2252     1.1461     5.9708 </r>
       <r>    -4.0943     1.1052     6.1173 </r>
       <r>    -3.9634     1.0818     6.2605 </r>
       <r>    -3.8326     1.0550     6.3999 </r>
       <r>    -3.7017     1.0824     6.5393 </r>
       <r>    -3.5708     1.0669     6.6775 </r>
       <r>    -3.4400     1.0254     6.8105 </r>
       <r>    -3.3091     0.9377     6.9406 </r>
       <r>    -3.1782     0.9101     7.0617 </r>
       <r>    -3.0473     1.0048     7.1846 </r>
       <r>    -2.9165     1.0764     7.3215 </r>
       <r>    -2.7856     1.1716     7.4666 </r>
       <r>    -2.6547     1.1231     7.6214 </r>
       <r>    -2.5239     1.0995     7.7667 </r>
       <r>    -2.3930     1.0840     7.9091 </r>
       <r>    -2.2621     1.1319     8.0586 </r>
       <r>    -2.1313     1.2227     8.2126 </r>
       <r>    -2.0004     1.0507     8.3624 </r>
       <r>    -1.8695     1.0071     8.4953 </r>
       <r>    -1.7386     1.0629     8.6291 </r>
       <r>    -1.6078     1.0855     8.7701 </r>
       <r>    -1.4769     1.1543     8.9160 </r>
       <r>    -1.3460     1.2571     9.0735 </r>
       <r>    -1.2152     1.4233     9.2478 </r>
       <r>    -1.0843     1.7288     9.4518 </r>
       <r>    -0.9534     2.1778     9.7101 </r>
       <r>    -0.8226     2.3572    10.0113 </r>
       <r>    -0.6917     2.3891    10.3195 </r>
       <r>    -0.5608     2.0431    10.6177 </r>
       <r>    -0.4299     1.7859    10.8598 </r>
       <r>    -0.2991     1.5019    11.0709 </r>
       <r>    -0.1682     1.4018    11.2604 </r>
       <r>    -0.0373     1.3310    11.4390 </r>
       <r>     0.0935     1.2734    11.6093 </r>
       <r>     0.2244     1.2439    11.7738 </r>
       <r>     0.3553     1.2224    11.9351 </r>
       <r>     0.4861     1.2056    12.0939 </r>
       <r>     0.6170     1.1966    12.2509 </r>
       <r>     0.7479     1.2561    12.4113 </r>
       <r>     0.8788     1.2692    12.5824 </r>
       <r>     1.0096     1.1020    12.7352 </r>
       <r>     1.1405     1.0658    12.8743 </r>
       <r>     1.2714     1.1533    13.0188 </r>
       <r>     1.4022     1.3455    13.1808 </r>
       <r>     1.5331     1.9210    13.3872 </r>
       <r>     1.6640     2.1148    13.6586 </r>
       <r>     1.7949     1.9795    13.9315 </r>
       <r>     1.9257     1.8463    14.1799 </r>
       <r>     2.0566     1.8912    14.4213 </r>
       <r>     2.1875     2.1053    14.6829 </r>
       <r>     2.3183     2.1920    14.9689 </r>
       <r>     2.4492     2.0828    15.2517 </r>
       <r>     2.5801     1.7090    15.5024 </r>
       <r>     2.7109     1.3235    15.6998 </r>
       <r>     2.8418     1.2959    15.8644 </r>
       <r>     2.9727     1.7435    16.0633 </r>
       <r>     3.1036     1.9839    16.3101 </r>
       <r>     3.2344     2.0930    16.5787 </r>
       <r>     3.3653     2.1288    16.8571 </r>
       <r>     3.4962     2.1937    17.1389 </r>
       <r>     3.6270     2.2391    17.4299 </r>
       <r>     3.7579     2.4102    17.7320 </r>
       <r>     3.8888     2.7471    18.0707 </r>
       <r>     4.0196     2.7306    18.4443 </r>
       <r>     4.1505     2.4001    18.7751 </r>
       <r>     4.2814     2.3765    19.0885 </r>
       <r>     4.4123     2.4933    19.3989 </r>
       <r>     4.5431     2.8020    19.7424 </r>
       <r>     4.6740     2.5470    20.0809 </r>
       <r>     4.8049     2.9747    20.4331 </r>
       <r>     4.9357     3.2264    20.8387 </r>
       <r>     5.0666     3.3356    21.2769 </r>
       <r>     5.1975     2.9435    21.6880 </r>
       <r>     5.3284     2.9420    22.0820 </r>
       <r>     5.4592     2.5029    22.4234 </r>
       <r>     5.5901     2.5180    22.7461 </r>
       <r>     5.7210     2.6377    23.0927 </r>
       <r>     5.8518     2.4603    23.4248 </r>
       <r>     5.9827     2.5969    23.7553 </r>
       <r>     6.1136     2.7127    24.1022 </r>
       <r>     6.2444     2.7199    24.4582 </r>
       <r>     6.3753     2.7060    24.8121 </r>
       <r>     6.5062     2.8050    25.1727 </r>
       <r>     6.6371     2.7765    25.5433 </r>
       <r>     6.7679     2.4686    25.8877 </r>
       <r>     6.8988     2.3031    26.1941 </r>
       <r>     7.0297     2.1334    26.4811 </r>
       <r>     7.1605     2.1541    26.7624 </r>
       <r>     7.2914     2.3856    27.0506 </r>
       <r>     7.4223     2.5969    27.3859 </r>
       <r>     7.5531     2.4827    27.7170 </r>
       <r>     7.6840     2.5003    28.0393 </r>
       <r>     7.8149     2.3534    28.3625 </r>
       <r>     7.9458     2.1960    28.6537 </r>
       <r>     8.0766     2.0736    28.9385 </r>
       <r>     8.2075     2.4819    29.2294 </r>
       <r>     8.3384     2.1087    29.5903 </r>
       <r>     8.4692     1.6482    29.8213 </r>
       <r>     8.6001     1.4997    30.0271 </r>
       <r>     8.7310     1.3868    30.2179 </r>
       <r>     8.8618     1.2594    30.3904 </r>
       <r>     8.9927     1.2079    30.5520 </r>
       <r>     9.1236     1.1440    30.7062 </r>
       <r>     9.2545     1.0820    30.8513 </r>
       <r>     9.3853     0.9740    30.9864 </r>
       <r>     9.5162     0.8777    31.1071 </r>
       <r>     9.6471     0.8052    31.2166 </r>
       <r>     9.7779     0.7744    31.3206 </r>
       <r>     9.9088     0.7429    31.4197 </r>
       <r>    10.0397     0.6789    31.5133 </r>
       <r>    10.1706     0.6060    31.5976 </r>
       <r>    10.3014     0.5338    31.6722 </r>
       <r>    10.4323     0.4913    31.7382 </r>
       <r>    10.5632     0.4639    31.8022 </r>
       <r>    10.6940     0.3580    31.8553 </r>
       <r>    10.8249     0.3433    31.8989 </r>
       <r>    10.9558     0.3445    31.9448 </r>
       <r>    11.0866     0.1610    31.9762 </r>
       <r>    11.2175     0.1373    31.9925 </r>
       <r>    11.3484     0.0004    32.0000 </r>
       <r>    11.4793     0.0000    32.0000 </r>
       <r>    11.6101     0.0000    32.0000 </r>
       <r>    11.7410     0.0000    32.0000 </r>
       <r>    11.8719     0.0000    32.0000 </r>
       <r>    12.0027     0.0000    32.0000 </r>
       <r>    12.1336     0.0000    32.0000 </r>
       <r>    12.2645     0.0000    32.0000 </r>
       <r>    12.3953     0.0000    32.0000 </r>
       <r>    12.5262     0.0000    32.0000 </r>
       <r>    12.6571     0.0000    32.0000 </r>
       <r>    12.7880     0.0000    32.0000 </r>
       <r>    12.9188     0.0000    32.0000 </r>
       <r>    13.0497     0.0000    32.0000 </r>
       <r>    13.1806     0.0000    32.0000 </r>
       <r>    13.3114     0.0000    32.0000 </r>
       <r>    13.4423     0.0000    32.0000 </r>
       <r>    13.5732     0.0000    32.0000 </r>
       <r>    13.7041     0.0000    32.0000 </r>
       <r>    13.8349     0.0000    32.0000 </r>
       <r>    13.9658     0.0000    32.0000 </r>
       <r>    14.0967     0.0000    32.0000 </r>
       <r>    14.2275     0.0000    32.0000 </r>
       <r>    14.3584     0.0000    32.0000 </r>
       <r>    14.4893     0.0000    32.0000 </r>
       <r>    14.6201     0.0000    32.0000 </r>
       <r>    14.7510     0.0000    32.0000 </r>
       <r>    14.8819     0.0000    32.0000 </r>
       <r>    15.0128     0.0000    32.0000 </r>
       <r>    15.1436     0.0000    32.0000 </r>
       <r>    15.2745     0.0000    32.0000 </r>
       <r>    15.4054     0.0000    32.0000 </r>
       <r>    15.5362     0.0000    32.0000 </r>
       <r>    15.6671     0.0000    32.0000 </r>
       <r>    15.7980     0.0372    32.0010 </r>
       <r>    15.9288     0.1797    32.0145 </r>
       <r>    16.0597     0.4143    32.0518 </r>
       <r>    16.1906     0.5593    32.1170 </r>
       <r>    16.3215     0.5454    32.1911 </r>
       <r>    16.4523     0.7115    32.2714 </r>
       <r>    16.5832     0.8047    32.3719 </r>
       <r>    16.7141     0.9111    32.4828 </r>
       <r>    16.8449     1.5502    32.6347 </r>
       <r>    16.9758     1.3728    32.8155 </r>
       <r>    17.1067     1.3731    32.9949 </r>
       <r>    17.2375     1.4490    33.1781 </r>
       <r>    17.3684     1.4124    33.3662 </r>
       <r>    17.4993     1.5117    33.5559 </r>
       <r>    17.6302     1.6109    33.7599 </r>
       <r>    17.7610     1.7142    33.9788 </r>
       <r>    17.8919     1.9608    34.2205 </r>
       <r>    18.0228     2.1300    34.4937 </r>
       <r>    18.1536     2.0185    34.7710 </r>
       <r>    18.2845     1.9335    35.0273 </r>
       <r>    18.4154     1.9693    35.2820 </r>
       <r>    18.5463     2.0276    35.5435 </r>
       <r>    18.6771     2.1182    35.8142 </r>
       <r>    18.8080     2.2850    36.1030 </r>
       <r>    18.9389     2.4237    36.4115 </r>
       <r>    19.0697     2.6295    36.7385 </r>
       <r>    19.2006     2.5789    37.0770 </r>
       <r>    19.3315     2.6854    37.4207 </r>
       <r>    19.4623     2.8743    37.7832 </r>
       <r>    19.5932     3.2972    38.1823 </r>
       <r>    19.7241     3.5481    38.6207 </r>
       <r>    19.8550     4.2314    39.1448 </r>
       <r>    19.9858     3.8915    39.6779 </r>
       <r>    20.1167     3.8886    40.1857 </r>
       <r>    20.2476     2.8587    40.6316 </r>
       <r>    20.3784     2.5121    40.9634 </r>
       <r>    20.5093     2.3891    41.2932 </r>
       <r>    20.6402     2.5660    41.6093 </r>
       <r>    20.7710     3.0305    41.9820 </r>
       <r>    20.9019     3.0841    42.3809 </r>
       <r>    21.0328     2.9062    42.7621 </r>
       <r>    21.1637     3.1952    43.1610 </r>
       <r>    21.2945     3.4550    43.6052 </r>
       <r>    21.4254     3.2936    44.0485 </r>
       <r>    21.5563     3.0065    44.4566 </r>
       <r>    21.6871     2.7377    44.8370 </r>
       <r>    21.8180     2.5444    45.1772 </r>
       <r>    21.9489     2.4757    45.5043 </r>
       <r>    22.0798     2.6288    45.8442 </r>
       <r>    22.2106     2.6105    46.1902 </r>
       <r>    22.3415     2.6581    46.5282 </r>
       <r>    22.4724     2.6486    46.8727 </r>
       <r>    22.6032     2.5058    47.2196 </r>
       <r>    22.7341     1.8822    47.5070 </r>
       <r>    22.8650     1.2772    47.7178 </r>
       <r>    22.9958     0.5848    47.8332 </r>
       <r>    23.1267     0.3814    47.9006 </r>
       <r>    23.2576     0.1979    47.9296 </r>
       <r>    23.3885     0.1599    47.9531 </r>
       <r>    23.5193     0.1220    47.9715 </r>
       <r>    23.6502     0.0849    47.9850 </r>
       <r>    23.7811     0.0509    47.9939 </r>
       <r>    23.9119     0.0204    47.9985 </r>
       <r>    24.0428     0.0041    47.9999 </r>
       <r>    24.1737     0.0000    48.0000 </r>
       <r>    24.3045     0.0000    48.0000 </r>
       <r>    24.4354     0.0000    48.0000 </r>
       <r>    24.5663     0.0000    48.0000 </r>
       <r>    24.6972     0.0000    48.0000 </r>
       <r>    24.8280     0.0000    48.0000 </r>
       <r>    24.9589     0.0000    48.0000 </r>
       <r>    25.0898     0.0000    48.0000 </r>
       <r>    25.2206     0.0000    48.0000 </r>
       <r>    25.3515     0.0000    48.0000 </r>
       <r>    25.4824     0.0000    48.0000 </r>
       <r>    25.6132     0.0000    48.0000 </r>
       <r>    25.7441     0.0000    48.0000 </r>
       <r>    25.8750     0.0000    48.0000 </r>
      </set>
     </set>
    </array>
   </total>
  </dos>
 </calculation>
 <structure name="finalpos" >
  <crystal>
   <varray name="basis" >
    <v>       3.44340620       0.00000000       0.00000000 </v>
    <v>       0.00000000       3.44340620       0.00000000 </v>
    <v>       0.00000000       0.00000000       3.44340620 </v>
   </varray>
   <i name="volume">     40.82862672 </i>
   <varray name="rec_basis" >
    <v>       0.29041012       0.00000000       0.00000000 </v>
    <v>       0.00000000       0.29041012       0.00000000 </v>
    <v>       0.00000000       0.00000000       0.29041012 </v>
   </varray>
  </crystal>
  <varray name="positions" >
   <v>       0.25000000       0.75000000       0.25000000 </v>
   <v>       0.00000000       0.00000000       0.50000000 </v>
   <v>       0.25000000       0.25000000       0.75000000 </v>
   <v>       0.00000000       0.50000000       0.00000000 </v>
   <v>       0.75000000       0.75000000       0.75000000 </v>
   <v>       0.50000000       0.00000000       0.00000000 </v>
   <v>       0.75000000       0.25000000       0.25000000 </v>
   <v>       0.50000000       0.50000000       0.50000000 </v>
  </varray>
 </structure>
</modeling>
