 vasp.5.4.4.18Apr17-6-g9f103f2a35 (build Mar 12 2022 03:36:41) complex          
  
 executed on IFC19.0.3.199_CrayMP date 2022.11.30  13:08:16
 running on   16 total cores
 distrk:  each k-point on   16 cores,    1 groups
 distr:  one band on NCORES_PER_BAND=   4 cores,    4 groups


--------------------------------------------------------------------------------------------------------


 INCAR:
 POTCAR:   PAW_PBE C 08Apr2002                    
 POTCAR:   PAW_PBE C 08Apr2002                    
   VRHFIN =C: s2p2                                                              
   LEXCH  = PE                                                                  
   EATOM  =   147.1560 eV,   10.8157 Ry                                         
                                                                                
   TITEL  = PAW_PBE C 08Apr2002                                                 
   LULTRA =        F    use ultrasoft PP ?                                      
   IUNSCR =        0    unscreen: 0-lin 1-nonlin 2-no                           
   RPACOR =     .000    partial core radius                                     
   POMASS =   12.011; ZVAL   =    4.000    mass and valenz                      
   RCORE  =    1.500    outmost cutoff radius                                   
   RWIGS  =    1.630; RWIGS  =     .863    wigner-seitz radius (au A)           
   ENMAX  =  400.000; ENMIN  =  300.000 eV                                      
   ICORE  =        2    local potential                                         
   LCOR   =        T    correct aug charges                                     
   LPAW   =        T    paw PP                                                  
   EAUG   =  644.873                                                            
   DEXC   =     .000                                                            
   RMAX   =    2.266    core radius for proj-oper                               
   RAUG   =    1.300    factor for augmentation sphere                          
   RDEP   =    1.501    radius for radial grids                                 
   RDEPT  =    1.300    core radius for aug-charge                              
   QCUT   =   -5.516; QGAM   =   11.032    optimization parameters              
                                                                                
   Description                                                                  
     l     E      TYP  RCUT    TYP  RCUT                                        
     0   .000     23  1.200                                                     
     0   .000     23  1.200                                                     
     1   .000     23  1.500                                                     
     1  2.500     23  1.500                                                     
     2   .000      7  1.500                                                     
  local pseudopotential read in
  atomic valenz-charges read in
  non local Contribution for L=           0  read in
    real space projection operators read in
  non local Contribution for L=           0  read in
    real space projection operators read in
  non local Contribution for L=           1  read in
    real space projection operators read in
  non local Contribution for L=           1  read in
    real space projection operators read in
    PAW grid and wavefunctions read in
 
   number of l-projection  operators is LMAX  =           4
   number of lm-projection operators is LMMAX =           8
 
 PAW_PBE C 08Apr2002                    :
 energy of atom  1       EATOM= -147.1560
 kinetic energy error for atom=    0.0288 (will be added to EATOM!!)
 
 
 POSCAR: C8                                      
  positions in direct lattice
  No initial velocities read in
 exchange correlation table for  LEXCH =        8
   RHO(1)=    0.500       N(1)  =     2000
   RHO(2)=  100.500       N(2)  =     4000
 


--------------------------------------------------------------------------------------------------------


 ion  position               nearest neighbor table
   1  0.250  0.750  0.250-   2 1.58   4 1.58   6 1.58   8 1.58
   2  0.000  0.000  0.500-   1 1.58   3 1.58   5 1.58   7 1.58
   3  0.250  0.250  0.750-   2 1.58   4 1.58   6 1.58   8 1.58
   4  0.000  0.500  0.000-   1 1.58   3 1.58   5 1.58   7 1.58
   5  0.750  0.750  0.750-   2 1.58   4 1.58   6 1.58   8 1.58
   6  0.500  0.000  0.000-   1 1.58   3 1.58   5 1.58   7 1.58
   7  0.750  0.250  0.250-   2 1.58   4 1.58   6 1.58   8 1.58
   8  0.500  0.500  0.500-   1 1.58   3 1.58   5 1.58   7 1.58
 
  LATTYP: Found a simple cubic cell.
 ALAT       =     3.6444830000
  
  Lattice vectors:
  
 A1 = (   3.6444830000,   0.0000000000,   0.0000000000)
 A2 = (   0.0000000000,   3.6444830000,   0.0000000000)
 A3 = (   0.0000000000,   0.0000000000,   3.6444830000)


Analysis of symmetry for initial positions (statically):
=====================================================================
 Subroutine PRICEL returns following result:
 
  LATTYP: Found a face centered cubic cell.
 ALAT       =     3.6444830000
  
  Lattice vectors:
  
 A1 = (   1.8222415000,   1.8222415000,   0.0000000000)
 A2 = (   1.8222415000,   0.0000000000,  -1.8222415000)
 A3 = (   0.0000000000,   1.8222415000,  -1.8222415000)
 
   4 primitive cells build up your supercell.
 

 Routine SETGRP: Setting up the symmetry group for a 
 simple cubic supercell.


 Subroutine GETGRP returns: Found 48 space group operations
 (whereof 24 operations were pure point group operations)
 out of a pool of 48 trial point group operations.


The static configuration has the point symmetry T_d .
 The point group associated with its full space group is O_h .


Analysis of symmetry for dynamics (positions and initial velocities):
=====================================================================
 Subroutine PRICEL returns following result:
 
  LATTYP: Found a face centered cubic cell.
 ALAT       =     3.6444830000
  
  Lattice vectors:
  
 A1 = (   1.8222415000,   1.8222415000,   0.0000000000)
 A2 = (   1.8222415000,   0.0000000000,  -1.8222415000)
 A3 = (   0.0000000000,   1.8222415000,  -1.8222415000)
 
   4 primitive cells build up your supercell.
 

 Routine SETGRP: Setting up the symmetry group for a 
 simple cubic supercell.


 Subroutine GETGRP returns: Found 48 space group operations
 (whereof 24 operations were pure point group operations)
 out of a pool of 48 trial point group operations.


The dynamic configuration has the point symmetry T_d .
 The point group associated with its full space group is O_h .


 Subroutine INISYM returns: Found 48 space group operations
 (whereof 24 operations are pure point group operations),
 and found     4 'primitive' translations

 
 
 KPOINTS: kpt_density=1000                        

Automatic generation of k-mesh.
Space group operators:
 irot       det(A)        alpha          n_x          n_y          n_z        tau_x        tau_y        tau_z
    1     1.000000     0.000000     1.000000     0.000000     0.000000     0.000000     0.000000     0.000000
    2     1.000000   120.000000    -0.577350    -0.577350    -0.577350     0.000000     0.000000     0.000000
    3     1.000000   120.000000     0.577350     0.577350     0.577350     0.000000     0.000000     0.000000
    4    -1.000000    90.000000     0.000000     0.000000    -1.000000     0.000000     0.000000     0.000000
    5    -1.000000   180.000000     0.000000     0.707107     0.707107     0.000000     0.000000     0.000000
    6    -1.000000    90.000000     0.000000     1.000000     0.000000     0.000000     0.000000     0.000000
    7     1.000000   180.000000     0.000000     0.000000     1.000000     0.000000     0.000000     0.000000
    8     1.000000   120.000000    -0.577350     0.577350     0.577350     0.000000     0.000000     0.000000
    9     1.000000   120.000000    -0.577350     0.577350    -0.577350     0.000000     0.000000     0.000000
   10    -1.000000    90.000000     0.000000     0.000000     1.000000     0.000000     0.000000     0.000000
   11    -1.000000    90.000000    -1.000000     0.000000     0.000000     0.000000     0.000000     0.000000
   12    -1.000000   180.000000     0.707107     0.000000     0.707107     0.000000     0.000000     0.000000
   13     1.000000   120.000000     0.577350    -0.577350     0.577350     0.000000     0.000000     0.000000
   14     1.000000   120.000000    -0.577350    -0.577350     0.577350     0.000000     0.000000     0.000000
   15     1.000000   180.000000     1.000000     0.000000     0.000000     0.000000     0.000000     0.000000
   16    -1.000000    90.000000     0.000000    -1.000000     0.000000     0.000000     0.000000     0.000000
   17    -1.000000   180.000000     0.707107     0.707107     0.000000     0.000000     0.000000     0.000000
   18    -1.000000    90.000000     1.000000     0.000000     0.000000     0.000000     0.000000     0.000000
   19     1.000000   120.000000     0.577350    -0.577350    -0.577350     0.000000     0.000000     0.000000
   20     1.000000   180.000000     0.000000     1.000000     0.000000     0.000000     0.000000     0.000000
   21     1.000000   120.000000     0.577350     0.577350    -0.577350     0.000000     0.000000     0.000000
   22    -1.000000   180.000000     0.000000    -0.707107     0.707107     0.000000     0.000000     0.000000
   23    -1.000000   180.000000     0.707107    -0.707107     0.000000     0.000000     0.000000     0.000000
   24    -1.000000   180.000000     0.707107     0.000000    -0.707107     0.000000     0.000000     0.000000
   25    -1.000000     0.000000     1.000000     0.000000     0.000000     0.750000     0.750000    -0.750000
   26    -1.000000   120.000000    -0.577350    -0.577350    -0.577350     0.750000     0.750000    -0.750000
   27    -1.000000   120.000000     0.577350     0.577350     0.577350     0.750000     0.750000    -0.750000
   28     1.000000    90.000000     0.000000     0.000000    -1.000000     0.750000     0.750000    -0.750000
   29     1.000000   180.000000     0.000000     0.707107     0.707107     0.750000     0.750000    -0.750000
   30     1.000000    90.000000     0.000000     1.000000     0.000000     0.750000     0.750000    -0.750000
   31    -1.000000   180.000000     0.000000     0.000000     1.000000     0.750000     0.750000    -0.750000
   32    -1.000000   120.000000    -0.577350     0.577350     0.577350     0.750000     0.750000    -0.750000
   33    -1.000000   120.000000    -0.577350     0.577350    -0.577350     0.750000     0.750000    -0.750000
   34     1.000000    90.000000     0.000000     0.000000     1.000000     0.750000     0.750000    -0.750000
   35     1.000000    90.000000    -1.000000     0.000000     0.000000     0.750000     0.750000    -0.750000
   36     1.000000   180.000000     0.707107     0.000000     0.707107     0.750000     0.750000    -0.750000
   37    -1.000000   120.000000     0.577350    -0.577350     0.577350     0.750000     0.750000    -0.750000
   38    -1.000000   120.000000    -0.577350    -0.577350     0.577350     0.750000     0.750000    -0.750000
   39    -1.000000   180.000000     1.000000     0.000000     0.000000     0.750000     0.750000    -0.750000
   40     1.000000    90.000000     0.000000    -1.000000     0.000000     0.750000     0.750000    -0.750000
   41     1.000000   180.000000     0.707107     0.707107     0.000000     0.750000     0.750000    -0.750000
   42     1.000000    90.000000     1.000000     0.000000     0.000000     0.750000     0.750000    -0.750000
   43    -1.000000   120.000000     0.577350    -0.577350    -0.577350     0.750000     0.750000    -0.750000
   44    -1.000000   180.000000     0.000000     1.000000     0.000000     0.750000     0.750000    -0.750000
   45    -1.000000   120.000000     0.577350     0.577350    -0.577350     0.750000     0.750000    -0.750000
   46     1.000000   180.000000     0.000000    -0.707107     0.707107     0.750000     0.750000    -0.750000
   47     1.000000   180.000000     0.707107    -0.707107     0.000000     0.750000     0.750000    -0.750000
   48     1.000000   180.000000     0.707107     0.000000    -0.707107     0.750000     0.750000    -0.750000
 
 Subroutine IBZKPT returns following result:
 ===========================================
 
 Found     84 irreducible k-points:
 
 Following reciprocal coordinates:
            Coordinates               Weight
  0.000000  0.000000  0.000000      1.000000
  0.083333  0.000000  0.000000      6.000000
  0.166667  0.000000  0.000000      6.000000
  0.250000  0.000000  0.000000      6.000000
  0.333333  0.000000  0.000000      6.000000
  0.416667  0.000000  0.000000      6.000000
  0.500000  0.000000  0.000000      3.000000
  0.083333  0.083333  0.000000     12.000000
  0.166667  0.083333  0.000000     24.000000
  0.250000  0.083333  0.000000     24.000000
  0.333333  0.083333  0.000000     24.000000
  0.416667  0.083333  0.000000     24.000000
  0.500000  0.083333  0.000000     12.000000
  0.166667  0.166667  0.000000     12.000000
  0.250000  0.166667  0.000000     24.000000
  0.333333  0.166667  0.000000     24.000000
  0.416667  0.166667  0.000000     24.000000
  0.500000  0.166667  0.000000     12.000000
  0.250000  0.250000  0.000000     12.000000
  0.333333  0.250000  0.000000     24.000000
  0.416667  0.250000  0.000000     24.000000
  0.500000  0.250000  0.000000     12.000000
  0.333333  0.333333  0.000000     12.000000
  0.416667  0.333333  0.000000     24.000000
  0.500000  0.333333  0.000000     12.000000
  0.416667  0.416667  0.000000     12.000000
  0.500000  0.416667  0.000000     12.000000
  0.500000  0.500000  0.000000      3.000000
  0.083333  0.083333  0.083333      8.000000
  0.166667  0.083333  0.083333     24.000000
  0.250000  0.083333  0.083333     24.000000
  0.333333  0.083333  0.083333     24.000000
  0.416667  0.083333  0.083333     24.000000
  0.500000  0.083333  0.083333     12.000000
  0.166667  0.166667  0.083333     24.000000
  0.250000  0.166667  0.083333     48.000000
  0.333333  0.166667  0.083333     48.000000
  0.416667  0.166667  0.083333     48.000000
  0.500000  0.166667  0.083333     24.000000
  0.250000  0.250000  0.083333     24.000000
  0.333333  0.250000  0.083333     48.000000
  0.416667  0.250000  0.083333     48.000000
  0.500000  0.250000  0.083333     24.000000
  0.333333  0.333333  0.083333     24.000000
  0.416667  0.333333  0.083333     48.000000
  0.500000  0.333333  0.083333     24.000000
  0.416667  0.416667  0.083333     24.000000
  0.500000  0.416667  0.083333     24.000000
  0.500000  0.500000  0.083333      6.000000
  0.166667  0.166667  0.166667      8.000000
  0.250000  0.166667  0.166667     24.000000
  0.333333  0.166667  0.166667     24.000000
  0.416667  0.166667  0.166667     24.000000
  0.500000  0.166667  0.166667     12.000000
  0.250000  0.250000  0.166667     24.000000
  0.333333  0.250000  0.166667     48.000000
  0.416667  0.250000  0.166667     48.000000
  0.500000  0.250000  0.166667     24.000000
  0.333333  0.333333  0.166667     24.000000
  0.416667  0.333333  0.166667     48.000000
  0.500000  0.333333  0.166667     24.000000
  0.416667  0.416667  0.166667     24.000000
  0.500000  0.416667  0.166667     24.000000
  0.500000  0.500000  0.166667      6.000000
  0.250000  0.250000  0.250000      8.000000
  0.333333  0.250000  0.250000     24.000000
  0.416667  0.250000  0.250000     24.000000
  0.500000  0.250000  0.250000     12.000000
  0.333333  0.333333  0.250000     24.000000
  0.416667  0.333333  0.250000     48.000000
  0.500000  0.333333  0.250000     24.000000
  0.416667  0.416667  0.250000     24.000000
  0.500000  0.416667  0.250000     24.000000
  0.500000  0.500000  0.250000      6.000000
  0.333333  0.333333  0.333333      8.000000
  0.416667  0.333333  0.333333     24.000000
  0.500000  0.333333  0.333333     12.000000
  0.416667  0.416667  0.333333     24.000000
  0.500000  0.416667  0.333333     24.000000
  0.500000  0.500000  0.333333      6.000000
  0.416667  0.416667  0.416667      8.000000
  0.500000  0.416667  0.416667     12.000000
  0.500000  0.500000  0.416667      6.000000
  0.500000  0.500000  0.500000      1.000000
 
 Following cartesian coordinates:
            Coordinates               Weight
  0.000000  0.000000  0.000000      1.000000
  0.022866  0.000000  0.000000      6.000000
  0.045731  0.000000  0.000000      6.000000
  0.068597  0.000000  0.000000      6.000000
  0.091462  0.000000  0.000000      6.000000
  0.114328  0.000000  0.000000      6.000000
  0.137194  0.000000  0.000000      3.000000
  0.022866  0.022866  0.000000     12.000000
  0.045731  0.022866  0.000000     24.000000
  0.068597  0.022866  0.000000     24.000000
  0.091462  0.022866  0.000000     24.000000
  0.114328  0.022866  0.000000     24.000000
  0.137194  0.022866  0.000000     12.000000
  0.045731  0.045731  0.000000     12.000000
  0.068597  0.045731  0.000000     24.000000
  0.091462  0.045731  0.000000     24.000000
  0.114328  0.045731  0.000000     24.000000
  0.137194  0.045731  0.000000     12.000000
  0.068597  0.068597  0.000000     12.000000
  0.091462  0.068597  0.000000     24.000000
  0.114328  0.068597  0.000000     24.000000
  0.137194  0.068597  0.000000     12.000000
  0.091462  0.091462  0.000000     12.000000
  0.114328  0.091462  0.000000     24.000000
  0.137194  0.091462  0.000000     12.000000
  0.114328  0.114328  0.000000     12.000000
  0.137194  0.114328  0.000000     12.000000
  0.137194  0.137194  0.000000      3.000000
  0.022866  0.022866  0.022866      8.000000
  0.045731  0.022866  0.022866     24.000000
  0.068597  0.022866  0.022866     24.000000
  0.091462  0.022866  0.022866     24.000000
  0.114328  0.022866  0.022866     24.000000
  0.137194  0.022866  0.022866     12.000000
  0.045731  0.045731  0.022866     24.000000
  0.068597  0.045731  0.022866     48.000000
  0.091462  0.045731  0.022866     48.000000
  0.114328  0.045731  0.022866     48.000000
  0.137194  0.045731  0.022866     24.000000
  0.068597  0.068597  0.022866     24.000000
  0.091462  0.068597  0.022866     48.000000
  0.114328  0.068597  0.022866     48.000000
  0.137194  0.068597  0.022866     24.000000
  0.091462  0.091462  0.022866     24.000000
  0.114328  0.091462  0.022866     48.000000
  0.137194  0.091462  0.022866     24.000000
  0.114328  0.114328  0.022866     24.000000
  0.137194  0.114328  0.022866     24.000000
  0.137194  0.137194  0.022866      6.000000
  0.045731  0.045731  0.045731      8.000000
  0.068597  0.045731  0.045731     24.000000
  0.091462  0.045731  0.045731     24.000000
  0.114328  0.045731  0.045731     24.000000
  0.137194  0.045731  0.045731     12.000000
  0.068597  0.068597  0.045731     24.000000
  0.091462  0.068597  0.045731     48.000000
  0.114328  0.068597  0.045731     48.000000
  0.137194  0.068597  0.045731     24.000000
  0.091462  0.091462  0.045731     24.000000
  0.114328  0.091462  0.045731     48.000000
  0.137194  0.091462  0.045731     24.000000
  0.114328  0.114328  0.045731     24.000000
  0.137194  0.114328  0.045731     24.000000
  0.137194  0.137194  0.045731      6.000000
  0.068597  0.068597  0.068597      8.000000
  0.091462  0.068597  0.068597     24.000000
  0.114328  0.068597  0.068597     24.000000
  0.137194  0.068597  0.068597     12.000000
  0.091462  0.091462  0.068597     24.000000
  0.114328  0.091462  0.068597     48.000000
  0.137194  0.091462  0.068597     24.000000
  0.114328  0.114328  0.068597     24.000000
  0.137194  0.114328  0.068597     24.000000
  0.137194  0.137194  0.068597      6.000000
  0.091462  0.091462  0.091462      8.000000
  0.114328  0.091462  0.091462     24.000000
  0.137194  0.091462  0.091462     12.000000
  0.114328  0.114328  0.091462     24.000000
  0.137194  0.114328  0.091462     24.000000
  0.137194  0.137194  0.091462      6.000000
  0.114328  0.114328  0.114328      8.000000
  0.137194  0.114328  0.114328     12.000000
  0.137194  0.137194  0.114328      6.000000
  0.137194  0.137194  0.137194      1.000000
 
 TETIRR: Found    854 inequivalent tetrahedra from    10368


--------------------------------------------------------------------------------------------------------




 Dimension of arrays:
   k-points           NKPTS =     84   k-points in BZ     NKDIM =     84   number of bands    NBANDS=     24
   number of dos      NEDOS =    301   number of ions     NIONS =      8
   non local maximal  LDIM  =      4   non local SUM 2l+1 LMDIM =      8
   total plane-waves  NPLWV =  13824
   max r-space proj   IRMAX =      1   max aug-charges    IRDMAX=   3569
   dimension x,y,z NGX =    24 NGY =   24 NGZ =   24
   dimension x,y,z NGXF=    48 NGYF=   48 NGZF=   48
   support grid    NGXF=    48 NGYF=   48 NGZF=   48
   ions per type =               8
   NGX,Y,Z   is equivalent  to a cutoff of  10.95, 10.95, 10.95 a.u.
   NGXF,Y,Z  is equivalent  to a cutoff of  21.90, 21.90, 21.90 a.u.

 SYSTEM =  unknown system                          
 POSCAR =  C8                                      

 Startparameter for this run:
   NWRITE =      2    write-flag & timer
   PREC   = accura    normal or accurate (medium, high low for compatibility)
   ISTART =      0    job   : 0-new  1-cont  2-samecut
   ICHARG =      2    charge: 1-file 2-atom 10-const
   ISPIN  =      1    spin polarized calculation?
   LNONCOLLINEAR =      F non collinear calculations
   LSORBIT =      F    spin-orbit coupling
   INIWAV =      1    electr: 0-lowe 1-rand  2-diag
   LASPH  =      F    aspherical Exc in radial PAW
   METAGGA=      F    non-selfconsistent MetaGGA calc.

 Electronic Relaxation 1
   ENCUT  =  400.0 eV  29.40 Ry    5.42 a.u.   5.94  5.94  5.94*2*pi/ulx,y,z
   ENINI  =  400.0     initial cutoff
   ENAUG  =  644.9 eV  augmentation charge cutoff
   NELM   =     60;   NELMIN=  2; NELMDL= -5     # of ELM steps 
   EDIFF  = 0.1E-05   stopping-criterion for ELM
   LREAL  =      F    real-space projection
   NLSPLINE    = F    spline interpolate recip. space projectors
   LCOMPAT=      F    compatible to vasp.4.4
   GGA_COMPAT  = T    GGA compatible to vasp.4.4-vasp.4.6
   LMAXPAW     = -100 max onsite density
   LMAXMIX     =    2 max onsite mixed and CHGCAR
   VOSKOWN=      0    Vosko Wilk Nusair interpolation
   ROPT   =    0.00000
 Ionic relaxation
   EDIFFG = 0.1E-04   stopping-criterion for IOM
   NSW    =      0    number of steps for IOM
   NBLOCK =      1;   KBLOCK =      1    inner block; outer block 
   IBRION =     -1    ionic relax: 0-MD 1-quasi-New 2-CG
   NFREE  =      0    steps in history (QN), initial steepest desc. (CG)
   ISIF   =      2    stress and relaxation
   IWAVPR =     10    prediction:  0-non 1-charg 2-wave 3-comb
   ISYM   =      2    0-nonsym 1-usesym 2-fastsym
   LCORR  =      T    Harris-Foulkes like correction to forces

   POTIM  = 0.0200    time-step for ionic-motion
   TEIN   =    0.0    initial temperature
   TEBEG  =    0.0;   TEEND  =   0.0 temperature during run
   SMASS  =  -3.00    Nose mass-parameter (am)
   estimated Nose-frequenzy (Omega)   =  0.10E-29 period in steps =****** mass=  -0.304E-27a.u.
   SCALEE = 1.0000    scale energy and forces
   NPACO  =    256;   APACO  = 16.0  distance and # of slots for P.C.
   PSTRESS=    0.0 pullay stress

  Mass of Ions in am
   POMASS =  12.01
  Ionic Valenz
   ZVAL   =   4.00
  Atomic Wigner-Seitz radii
   RWIGS  =  -1.00
  virtual crystal weights 
   VCA    =   1.00
   NELECT =      32.0000    total number of electrons
   NUPDOWN=      -1.0000    fix difference up-down

 DOS related values:
   EMIN   =  10.00;   EMAX   =-10.00  energy-range for DOS
   EFERMI =   0.00
   ISMEAR =    -5;   SIGMA  =   0.06  broadening in eV -4-tet -1-fermi 0-gaus

 Electronic relaxation 2 (details)
   IALGO  =     38    algorithm
   LDIAG  =      T    sub-space diagonalisation (order eigenvalues)
   LSUBROT=      F    optimize rotation matrix (better conditioning)
   TURBO    =      0    0=normal 1=particle mesh
   IRESTART =      0    0=no restart 2=restart with 2 vectors
   NREBOOT  =      0    no. of reboots
   NMIN     =      0    reboot dimension
   EREF     =   0.00    reference energy to select bands
   IMIX   =      4    mixing-type and parameters
     AMIX     =   0.40;   BMIX     =  1.00
     AMIX_MAG =   1.60;   BMIX_MAG =  1.00
     AMIN     =   0.10
     WC   =   100.;   INIMIX=   1;  MIXPRE=   1;  MAXMIX= -45

 Intra band minimization:
   WEIMIN = 0.0000     energy-eigenvalue tresh-hold
   EBREAK =  0.10E-07  absolut break condition
   DEPER  =   0.30     relativ break condition  

   TIME   =   0.40     timestep for ELM

  volume/ion in A,a.u.               =       6.05        40.83
  Fermi-wavevector in a.u.,A,eV,Ry     =   1.426118  2.694973 27.671712  2.033813
  Thomas-Fermi vector in A             =   2.546430
 
 Write flags
   LWAVE        =      F    write WAVECAR
   LDOWNSAMPLE  =      F    k-point downsampling of WAVECAR
   LCHARG       =      F    write CHGCAR
   LVTOT        =      F    write LOCPOT, total local potential
   LVHAR        =      F    write LOCPOT, Hartree potential only
   LELF         =      F    write electronic localiz. function (ELF)
   LORBIT       =      0    0 simple, 1 ext, 2 COOP (PROOUT), +10 PAW based schemes


 Dipole corrections
   LMONO  =      F    monopole corrections only (constant potential shift)
   LDIPOL =      F    correct potential (dipole corrections)
   IDIPOL =      0    1-x, 2-y, 3-z, 4-all directions 
   EPSILON=  1.0000000 bulk dielectric constant

 Exchange correlation treatment:
   GGA     =    --    GGA type
   LEXCH   =     8    internal setting for exchange type
   VOSKOWN=      0    Vosko Wilk Nusair interpolation
   LHFCALC =     F    Hartree Fock is set to
   LHFONE  =     F    Hartree Fock one center treatment
   AEXX    =    0.0000 exact exchange contribution

 Linear response parameters
   LEPSILON=     F    determine dielectric tensor
   LRPA    =     F    only Hartree local field effects (RPA)
   LNABLA  =     F    use nabla operator in PAW spheres
   LVEL    =     F    velocity operator in full k-point grid
   LINTERFAST=   F  fast interpolation
   KINTER  =     0    interpolate to denser k-point grid
   CSHIFT  =0.1000    complex shift for real part using Kramers Kronig
   OMEGAMAX=  -1.0    maximum frequency
   DEG_THRESHOLD= 0.2000000E-02 threshold for treating states as degnerate
   RTIME   =   -0.100 relaxation time in fs
  (WPLASMAI=    0.000 imaginary part of plasma frequency in eV, 0.658/RTIME)
   DFIELD  = 0.0000000 0.0000000 0.0000000 field for delta impulse in time
 
 Orbital magnetization related:
   ORBITALMAG=     F  switch on orbital magnetization
   LCHIMAG   =     F  perturbation theory with respect to B field
   DQ        =  0.001000  dq finite difference perturbation B field
   LLRAUG    =     F  two centre corrections for induced B field



--------------------------------------------------------------------------------------------------------


 Static calculation
 charge density and potential will be updated during run
 non-spin polarized calculation
 Variant of blocked Davidson
 Davidson routine will perform the subspace rotation
 perform sub-space diagonalisation
    after iterative eigenvector-optimisation
 modified Broyden-mixing scheme, WC =      100.0
 initial mixing is a Kerker type mixing with AMIX =  0.4000 and BMIX =      1.0000
 Hartree-type preconditioning will be used
 using additional bands            8
 reciprocal scheme for non local part
 calculate Harris-corrections to forces 
   (improved forces if not selfconsistent)
 use gradient corrections 
 use of overlap-Matrix (Vanderbilt PP)
 Fermi weights with tetrahedron method with Bloechl corrections


--------------------------------------------------------------------------------------------------------


  energy-cutoff  :      400.00
  volume of cell :       48.41
      direct lattice vectors                 reciprocal lattice vectors
     3.644483000  0.000000000  0.000000000     0.274387341  0.000000000  0.000000000
     0.000000000  3.644483000  0.000000000     0.000000000  0.274387341  0.000000000
     0.000000000  0.000000000  3.644483000     0.000000000  0.000000000  0.274387341

  length of vectors
     3.644483000  3.644483000  3.644483000     0.274387341  0.274387341  0.274387341


 
 k-points in units of 2pi/SCALE and weight: kpt_density=1000                        
   0.00000000  0.00000000  0.00000000       0.001
   0.02286561  0.00000000  0.00000000       0.003
   0.04573122  0.00000000  0.00000000       0.003
   0.06859684  0.00000000  0.00000000       0.003
   0.09146245  0.00000000  0.00000000       0.003
   0.11432806  0.00000000  0.00000000       0.003
   0.13719367  0.00000000  0.00000000       0.002
   0.02286561  0.02286561  0.00000000       0.007
   0.04573122  0.02286561  0.00000000       0.014
   0.06859684  0.02286561  0.00000000       0.014
   0.09146245  0.02286561  0.00000000       0.014
   0.11432806  0.02286561  0.00000000       0.014
   0.13719367  0.02286561  0.00000000       0.007
   0.04573122  0.04573122  0.00000000       0.007
   0.06859684  0.04573122  0.00000000       0.014
   0.09146245  0.04573122  0.00000000       0.014
   0.11432806  0.04573122  0.00000000       0.014
   0.13719367  0.04573122  0.00000000       0.007
   0.06859684  0.06859684  0.00000000       0.007
   0.09146245  0.06859684  0.00000000       0.014
   0.11432806  0.06859684  0.00000000       0.014
   0.13719367  0.06859684  0.00000000       0.007
   0.09146245  0.09146245  0.00000000       0.007
   0.11432806  0.09146245  0.00000000       0.014
   0.13719367  0.09146245  0.00000000       0.007
   0.11432806  0.11432806  0.00000000       0.007
   0.13719367  0.11432806  0.00000000       0.007
   0.13719367  0.13719367  0.00000000       0.002
   0.02286561  0.02286561  0.02286561       0.005
   0.04573122  0.02286561  0.02286561       0.014
   0.06859684  0.02286561  0.02286561       0.014
   0.09146245  0.02286561  0.02286561       0.014
   0.11432806  0.02286561  0.02286561       0.014
   0.13719367  0.02286561  0.02286561       0.007
   0.04573122  0.04573122  0.02286561       0.014
   0.06859684  0.04573122  0.02286561       0.028
   0.09146245  0.04573122  0.02286561       0.028
   0.11432806  0.04573122  0.02286561       0.028
   0.13719367  0.04573122  0.02286561       0.014
   0.06859684  0.06859684  0.02286561       0.014
   0.09146245  0.06859684  0.02286561       0.028
   0.11432806  0.06859684  0.02286561       0.028
   0.13719367  0.06859684  0.02286561       0.014
   0.09146245  0.09146245  0.02286561       0.014
   0.11432806  0.09146245  0.02286561       0.028
   0.13719367  0.09146245  0.02286561       0.014
   0.11432806  0.11432806  0.02286561       0.014
   0.13719367  0.11432806  0.02286561       0.014
   0.13719367  0.13719367  0.02286561       0.003
   0.04573122  0.04573122  0.04573122       0.005
   0.06859684  0.04573122  0.04573122       0.014
   0.09146245  0.04573122  0.04573122       0.014
   0.11432806  0.04573122  0.04573122       0.014
   0.13719367  0.04573122  0.04573122       0.007
   0.06859684  0.06859684  0.04573122       0.014
   0.09146245  0.06859684  0.04573122       0.028
   0.11432806  0.06859684  0.04573122       0.028
   0.13719367  0.06859684  0.04573122       0.014
   0.09146245  0.09146245  0.04573122       0.014
   0.11432806  0.09146245  0.04573122       0.028
   0.13719367  0.09146245  0.04573122       0.014
   0.11432806  0.11432806  0.04573122       0.014
   0.13719367  0.11432806  0.04573122       0.014
   0.13719367  0.13719367  0.04573122       0.003
   0.06859684  0.06859684  0.06859684       0.005
   0.09146245  0.06859684  0.06859684       0.014
   0.11432806  0.06859684  0.06859684       0.014
   0.13719367  0.06859684  0.06859684       0.007
   0.09146245  0.09146245  0.06859684       0.014
   0.11432806  0.09146245  0.06859684       0.028
   0.13719367  0.09146245  0.06859684       0.014
   0.11432806  0.11432806  0.06859684       0.014
   0.13719367  0.11432806  0.06859684       0.014
   0.13719367  0.13719367  0.06859684       0.003
   0.09146245  0.09146245  0.09146245       0.005
   0.11432806  0.09146245  0.09146245       0.014
   0.13719367  0.09146245  0.09146245       0.007
   0.11432806  0.11432806  0.09146245       0.014
   0.13719367  0.11432806  0.09146245       0.014
   0.13719367  0.13719367  0.09146245       0.003
   0.11432806  0.11432806  0.11432806       0.005
   0.13719367  0.11432806  0.11432806       0.007
   0.13719367  0.13719367  0.11432806       0.003
   0.13719367  0.13719367  0.13719367       0.001
 
 k-points in reciprocal lattice and weights: kpt_density=1000                        
   0.00000000  0.00000000  0.00000000       0.001
   0.08333333  0.00000000  0.00000000       0.003
   0.16666667  0.00000000  0.00000000       0.003
   0.25000000  0.00000000  0.00000000       0.003
   0.33333333  0.00000000  0.00000000       0.003
   0.41666667  0.00000000  0.00000000       0.003
   0.50000000  0.00000000  0.00000000       0.002
   0.08333333  0.08333333  0.00000000       0.007
   0.16666667  0.08333333  0.00000000       0.014
   0.25000000  0.08333333  0.00000000       0.014
   0.33333333  0.08333333  0.00000000       0.014
   0.41666667  0.08333333  0.00000000       0.014
   0.50000000  0.08333333  0.00000000       0.007
   0.16666667  0.16666667  0.00000000       0.007
   0.25000000  0.16666667  0.00000000       0.014
   0.33333333  0.16666667  0.00000000       0.014
   0.41666667  0.16666667  0.00000000       0.014
   0.50000000  0.16666667  0.00000000       0.007
   0.25000000  0.25000000  0.00000000       0.007
   0.33333333  0.25000000  0.00000000       0.014
   0.41666667  0.25000000  0.00000000       0.014
   0.50000000  0.25000000  0.00000000       0.007
   0.33333333  0.33333333  0.00000000       0.007
   0.41666667  0.33333333  0.00000000       0.014
   0.50000000  0.33333333  0.00000000       0.007
   0.41666667  0.41666667  0.00000000       0.007
   0.50000000  0.41666667  0.00000000       0.007
   0.50000000  0.50000000  0.00000000       0.002
   0.08333333  0.08333333  0.08333333       0.005
   0.16666667  0.08333333  0.08333333       0.014
   0.25000000  0.08333333  0.08333333       0.014
   0.33333333  0.08333333  0.08333333       0.014
   0.41666667  0.08333333  0.08333333       0.014
   0.50000000  0.08333333  0.08333333       0.007
   0.16666667  0.16666667  0.08333333       0.014
   0.25000000  0.16666667  0.08333333       0.028
   0.33333333  0.16666667  0.08333333       0.028
   0.41666667  0.16666667  0.08333333       0.028
   0.50000000  0.16666667  0.08333333       0.014
   0.25000000  0.25000000  0.08333333       0.014
   0.33333333  0.25000000  0.08333333       0.028
   0.41666667  0.25000000  0.08333333       0.028
   0.50000000  0.25000000  0.08333333       0.014
   0.33333333  0.33333333  0.08333333       0.014
   0.41666667  0.33333333  0.08333333       0.028
   0.50000000  0.33333333  0.08333333       0.014
   0.41666667  0.41666667  0.08333333       0.014
   0.50000000  0.41666667  0.08333333       0.014
   0.50000000  0.50000000  0.08333333       0.003
   0.16666667  0.16666667  0.16666667       0.005
   0.25000000  0.16666667  0.16666667       0.014
   0.33333333  0.16666667  0.16666667       0.014
   0.41666667  0.16666667  0.16666667       0.014
   0.50000000  0.16666667  0.16666667       0.007
   0.25000000  0.25000000  0.16666667       0.014
   0.33333333  0.25000000  0.16666667       0.028
   0.41666667  0.25000000  0.16666667       0.028
   0.50000000  0.25000000  0.16666667       0.014
   0.33333333  0.33333333  0.16666667       0.014
   0.41666667  0.33333333  0.16666667       0.028
   0.50000000  0.33333333  0.16666667       0.014
   0.41666667  0.41666667  0.16666667       0.014
   0.50000000  0.41666667  0.16666667       0.014
   0.50000000  0.50000000  0.16666667       0.003
   0.25000000  0.25000000  0.25000000       0.005
   0.33333333  0.25000000  0.25000000       0.014
   0.41666667  0.25000000  0.25000000       0.014
   0.50000000  0.25000000  0.25000000       0.007
   0.33333333  0.33333333  0.25000000       0.014
   0.41666667  0.33333333  0.25000000       0.028
   0.50000000  0.33333333  0.25000000       0.014
   0.41666667  0.41666667  0.25000000       0.014
   0.50000000  0.41666667  0.25000000       0.014
   0.50000000  0.50000000  0.25000000       0.003
   0.33333333  0.33333333  0.33333333       0.005
   0.41666667  0.33333333  0.33333333       0.014
   0.50000000  0.33333333  0.33333333       0.007
   0.41666667  0.41666667  0.33333333       0.014
   0.50000000  0.41666667  0.33333333       0.014
   0.50000000  0.50000000  0.33333333       0.003
   0.41666667  0.41666667  0.41666667       0.005
   0.50000000  0.41666667  0.41666667       0.007
   0.50000000  0.50000000  0.41666667       0.003
   0.50000000  0.50000000  0.50000000       0.001
 
 position of ions in fractional coordinates (direct lattice) 
   0.25000000  0.75000000  0.25000000
   0.00000000  0.00000000  0.50000000
   0.25000000  0.25000000  0.75000000
   0.00000000  0.50000000  0.00000000
   0.75000000  0.75000000  0.75000000
   0.50000000  0.00000000  0.00000000
   0.75000000  0.25000000  0.25000000
   0.50000000  0.50000000  0.50000000
 
 position of ions in cartesian coordinates  (Angst):
   0.91112075  2.73336225  0.91112075
   0.00000000  0.00000000  1.82224150
   0.91112075  0.91112075  2.73336225
   0.00000000  1.82224150  0.00000000
   2.73336225  2.73336225  2.73336225
   1.82224150  0.00000000  0.00000000
   2.73336225  0.91112075  0.91112075
   1.82224150  1.82224150  1.82224150
 


--------------------------------------------------------------------------------------------------------


 k-point  1 :   0.0000 0.0000 0.0000  plane waves:     895
 k-point  2 :   0.0833 0.0000 0.0000  plane waves:     880
 k-point  3 :   0.1667 0.0000 0.0000  plane waves:     876
 k-point  4 :   0.2500 0.0000 0.0000  plane waves:     868
 k-point  5 :   0.3333 0.0000 0.0000  plane waves:     868
 k-point  6 :   0.4167 0.0000 0.0000  plane waves:     868
 k-point  7 :   0.5000 0.0000 0.0000  plane waves:     884
 k-point  8 :   0.0833 0.0833 0.0000  plane waves:     877
 k-point  9 :   0.1667 0.0833 0.0000  plane waves:     879
 k-point 10 :   0.2500 0.0833 0.0000  plane waves:     878
 k-point 11 :   0.3333 0.0833 0.0000  plane waves:     875
 k-point 12 :   0.4167 0.0833 0.0000  plane waves:     871
 k-point 13 :   0.5000 0.0833 0.0000  plane waves:     870
 k-point 14 :   0.1667 0.1667 0.0000  plane waves:     867
 k-point 15 :   0.2500 0.1667 0.0000  plane waves:     874
 k-point 16 :   0.3333 0.1667 0.0000  plane waves:     872
 k-point 17 :   0.4167 0.1667 0.0000  plane waves:     871
 k-point 18 :   0.5000 0.1667 0.0000  plane waves:     876
 k-point 19 :   0.2500 0.2500 0.0000  plane waves:     876
 k-point 20 :   0.3333 0.2500 0.0000  plane waves:     870
 k-point 21 :   0.4167 0.2500 0.0000  plane waves:     879
 k-point 22 :   0.5000 0.2500 0.0000  plane waves:     884
 k-point 23 :   0.3333 0.3333 0.0000  plane waves:     884
 k-point 24 :   0.4167 0.3333 0.0000  plane waves:     881
 k-point 25 :   0.5000 0.3333 0.0000  plane waves:     878
 k-point 26 :   0.4167 0.4167 0.0000  plane waves:     874
 k-point 27 :   0.5000 0.4167 0.0000  plane waves:     876
 k-point 28 :   0.5000 0.5000 0.0000  plane waves:     872
 k-point 29 :   0.0833 0.0833 0.0833  plane waves:     877
 k-point 30 :   0.1667 0.0833 0.0833  plane waves:     877
 k-point 31 :   0.2500 0.0833 0.0833  plane waves:     872
 k-point 32 :   0.3333 0.0833 0.0833  plane waves:     871
 k-point 33 :   0.4167 0.0833 0.0833  plane waves:     868
 k-point 34 :   0.5000 0.0833 0.0833  plane waves:     870
 k-point 35 :   0.1667 0.1667 0.0833  plane waves:     876
 k-point 36 :   0.2500 0.1667 0.0833  plane waves:     876
 k-point 37 :   0.3333 0.1667 0.0833  plane waves:     876
 k-point 38 :   0.4167 0.1667 0.0833  plane waves:     873
 k-point 39 :   0.5000 0.1667 0.0833  plane waves:     876
 k-point 40 :   0.2500 0.2500 0.0833  plane waves:     882
 k-point 41 :   0.3333 0.2500 0.0833  plane waves:     878
 k-point 42 :   0.4167 0.2500 0.0833  plane waves:     878
 k-point 43 :   0.5000 0.2500 0.0833  plane waves:     884
 k-point 44 :   0.3333 0.3333 0.0833  plane waves:     874
 k-point 45 :   0.4167 0.3333 0.0833  plane waves:     881
 k-point 46 :   0.5000 0.3333 0.0833  plane waves:     882
 k-point 47 :   0.4167 0.4167 0.0833  plane waves:     880
 k-point 48 :   0.5000 0.4167 0.0833  plane waves:     876
 k-point 49 :   0.5000 0.5000 0.0833  plane waves:     880
 k-point 50 :   0.1667 0.1667 0.1667  plane waves:     868
 k-point 51 :   0.2500 0.1667 0.1667  plane waves:     882
 k-point 52 :   0.3333 0.1667 0.1667  plane waves:     883
 k-point 53 :   0.4167 0.1667 0.1667  plane waves:     879
 k-point 54 :   0.5000 0.1667 0.1667  plane waves:     882
 k-point 55 :   0.2500 0.2500 0.1667  plane waves:     875
 k-point 56 :   0.3333 0.2500 0.1667  plane waves:     879
 k-point 57 :   0.4167 0.2500 0.1667  plane waves:     884
 k-point 58 :   0.5000 0.2500 0.1667  plane waves:     882
 k-point 59 :   0.3333 0.3333 0.1667  plane waves:     884
 k-point 60 :   0.4167 0.3333 0.1667  plane waves:     885
 k-point 61 :   0.5000 0.3333 0.1667  plane waves:     878
 k-point 62 :   0.4167 0.4167 0.1667  plane waves:     882
 k-point 63 :   0.5000 0.4167 0.1667  plane waves:     886
 k-point 64 :   0.5000 0.5000 0.1667  plane waves:     884
 k-point 65 :   0.2500 0.2500 0.2500  plane waves:     886
 k-point 66 :   0.3333 0.2500 0.2500  plane waves:     884
 k-point 67 :   0.4167 0.2500 0.2500  plane waves:     889
 k-point 68 :   0.5000 0.2500 0.2500  plane waves:     874
 k-point 69 :   0.3333 0.3333 0.2500  plane waves:     888
 k-point 70 :   0.4167 0.3333 0.2500  plane waves:     885
 k-point 71 :   0.5000 0.3333 0.2500  plane waves:     884
 k-point 72 :   0.4167 0.4167 0.2500  plane waves:     884
 k-point 73 :   0.5000 0.4167 0.2500  plane waves:     886
 k-point 74 :   0.5000 0.5000 0.2500  plane waves:     880
 k-point 75 :   0.3333 0.3333 0.3333  plane waves:     874
 k-point 76 :   0.4167 0.3333 0.3333  plane waves:     893
 k-point 77 :   0.5000 0.3333 0.3333  plane waves:     892
 k-point 78 :   0.4167 0.4167 0.3333  plane waves:     895
 k-point 79 :   0.5000 0.4167 0.3333  plane waves:     896
 k-point 80 :   0.5000 0.5000 0.3333  plane waves:     900
 k-point 81 :   0.4167 0.4167 0.4167  plane waves:     892
 k-point 82 :   0.5000 0.4167 0.4167  plane waves:     892
 k-point 83 :   0.5000 0.5000 0.4167  plane waves:     892
 k-point 84 :   0.5000 0.5000 0.5000  plane waves:     912

 maximum and minimum number of plane-waves per node :       241      206

 maximum number of plane-waves:       912
 maximum index in each direction: 
   IXMAX=    5   IYMAX=    5   IZMAX=    5
   IXMIN=   -6   IYMIN=   -6   IZMIN=   -6


 parallel 3D FFT for wavefunctions:
    minimum data exchange during FFTs selected (reduces bandwidth)
 parallel 3D FFT for charge:
    minimum data exchange during FFTs selected (reduces bandwidth)


 total amount of memory used by VASP MPI-rank0    34053. kBytes
=======================================================================

   base      :      30000. kBytes
   nonl-proj :       1254. kBytes
   fftplans  :        345. kBytes
   grid      :        481. kBytes
   one-center:          6. kBytes
   wavefun   :       1967. kBytes
 
     INWAV:  cpu time    0.0004: real time    0.0006
 Broyden mixing: mesh for mixing (old mesh)
   NGX = 11   NGY = 11   NGZ = 11
  (NGX  = 48   NGY  = 48   NGZ  = 48)
  gives a total of   1331 points

 initial charge density was supplied:
 charge density of overlapping atoms calculated
 number of electron      32.0000000 magnetization 
 keeping initial charge density in first step


--------------------------------------------------------------------------------------------------------


 Maximum index for augmentation-charges          261 (set IRDMAX)


--------------------------------------------------------------------------------------------------------


 First call to EWALD:  gamma=   0.486
 Maximum number of real-space cells 3x 3x 3
 Maximum number of reciprocal cells 3x 3x 3

    FEWALD:  cpu time    0.0053: real time    0.0053


--------------------------------------- Iteration      1(   1)  ---------------------------------------


    POTLOK:  cpu time    0.0346: real time    0.0389
    SETDIJ:  cpu time    0.0064: real time    0.0064
     EDDAV:  cpu time    4.4248: real time    4.4330
 BZINTS: Fermi energy: 17.662826; 32.000000 electrons
         Band energy: 105.181278;  BLOECHL correction: -0.127147
       DOS:  cpu time    0.1435: real time    0.1435
    --------------------------------------------
      LOOP:  cpu time    4.6094: real time    4.6219

 eigenvalue-minimisations  :  4032
 total energy-change (2. order) : 0.5507731E+02  (-0.1418052E+04)
 number of electron      32.0000000 magnetization 
 augmentation part       32.0000000 magnetization 

 Free energy of the ion-electron system (eV)
  ---------------------------------------------------
  alpha Z        PSCENC =       107.72688005
  Ewald energy   TEWEN  =     -1362.16849954
  -Hartree energ DENC   =       -76.25092114
  -exchange      EXHF   =         0.00000000
  -V(xc)+E(xc)   XCENC  =       112.77461831
  PAW double counting   =       302.65154477     -311.85538214
  entropy T*S    EENTRO =         0.00000000
  eigenvalues    EBANDS =       105.18127762
  atomic energy  EATOM  =      1177.01779097
  Solvation  Ediel_sol  =         0.00000000
  ---------------------------------------------------
  free energy    TOTEN  =        55.07730890 eV

  energy without entropy =       55.07730890  energy(sigma->0) =       55.07730890


--------------------------------------------------------------------------------------------------------




--------------------------------------- Iteration      1(   2)  ---------------------------------------


     EDDAV:  cpu time    5.4144: real time    5.4153
 BZINTS: Fermi energy:  8.203682; 32.000000 electrons
         Band energy: -20.120988;  BLOECHL correction:  0.000000
       DOS:  cpu time    0.0449: real time    0.0449
    --------------------------------------------
      LOOP:  cpu time    5.4593: real time    5.4601

 eigenvalue-minimisations  :  5544
 total energy-change (2. order) :-0.1253023E+03  (-0.1187009E+03)
 number of electron      32.0000000 magnetization 
 augmentation part       32.0000000 magnetization 

 Free energy of the ion-electron system (eV)
  ---------------------------------------------------
  alpha Z        PSCENC =       107.72688005
  Ewald energy   TEWEN  =     -1362.16849954
  -Hartree energ DENC   =       -76.25092114
  -exchange      EXHF   =         0.00000000
  -V(xc)+E(xc)   XCENC  =       112.77461831
  PAW double counting   =       302.65154477     -311.85538214
  entropy T*S    EENTRO =         0.00000000
  eigenvalues    EBANDS =       -20.12098789
  atomic energy  EATOM  =      1177.01779097
  Solvation  Ediel_sol  =         0.00000000
  ---------------------------------------------------
  free energy    TOTEN  =       -70.22495661 eV

  energy without entropy =      -70.22495661  energy(sigma->0) =      -70.22495661


--------------------------------------------------------------------------------------------------------




--------------------------------------- Iteration      1(   3)  ---------------------------------------


     EDDAV:  cpu time    5.1786: real time    5.1819
 BZINTS: Fermi energy:  7.652479; 32.000000 electrons
         Band energy: -24.444114;  BLOECHL correction:  0.000000
       DOS:  cpu time    0.0403: real time    0.0403
    --------------------------------------------
      LOOP:  cpu time    5.2190: real time    5.2222

 eigenvalue-minimisations  :  5208
 total energy-change (2. order) :-0.4323126E+01  (-0.4297822E+01)
 number of electron      32.0000000 magnetization 
 augmentation part       32.0000000 magnetization 

 Free energy of the ion-electron system (eV)
  ---------------------------------------------------
  alpha Z        PSCENC =       107.72688005
  Ewald energy   TEWEN  =     -1362.16849954
  -Hartree energ DENC   =       -76.25092114
  -exchange      EXHF   =         0.00000000
  -V(xc)+E(xc)   XCENC  =       112.77461831
  PAW double counting   =       302.65154477     -311.85538214
  entropy T*S    EENTRO =         0.00000000
  eigenvalues    EBANDS =       -24.44411372
  atomic energy  EATOM  =      1177.01779097
  Solvation  Ediel_sol  =         0.00000000
  ---------------------------------------------------
  free energy    TOTEN  =       -74.54808244 eV

  energy without entropy =      -74.54808244  energy(sigma->0) =      -74.54808244


--------------------------------------------------------------------------------------------------------




--------------------------------------- Iteration      1(   4)  ---------------------------------------


     EDDAV:  cpu time    5.1839: real time    5.1845
 BZINTS: Fermi energy:  7.550712; 32.000000 electrons
         Band energy: -24.493156;  BLOECHL correction:  0.000000
       DOS:  cpu time    0.0362: real time    0.1098
    --------------------------------------------
      LOOP:  cpu time    5.2201: real time    5.2943

 eigenvalue-minimisations  :  5208
 total energy-change (2. order) :-0.4904178E-01  (-0.4899380E-01)
 number of electron      32.0000000 magnetization 
 augmentation part       32.0000000 magnetization 

 Free energy of the ion-electron system (eV)
  ---------------------------------------------------
  alpha Z        PSCENC =       107.72688005
  Ewald energy   TEWEN  =     -1362.16849954
  -Hartree energ DENC   =       -76.25092114
  -exchange      EXHF   =         0.00000000
  -V(xc)+E(xc)   XCENC  =       112.77461831
  PAW double counting   =       302.65154477     -311.85538214
  entropy T*S    EENTRO =         0.00000000
  eigenvalues    EBANDS =       -24.49315550
  atomic energy  EATOM  =      1177.01779097
  Solvation  Ediel_sol  =         0.00000000
  ---------------------------------------------------
  free energy    TOTEN  =       -74.59712422 eV

  energy without entropy =      -74.59712422  energy(sigma->0) =      -74.59712422


--------------------------------------------------------------------------------------------------------




--------------------------------------- Iteration      1(   5)  ---------------------------------------


     EDDAV:  cpu time    5.2276: real time    5.2284
 BZINTS: Fermi energy:  7.532954; 32.000000 electrons
         Band energy: -24.494202;  BLOECHL correction:  0.000000
       DOS:  cpu time    0.0359: real time    0.0359
    CHARGE:  cpu time    0.1424: real time    0.1425
    MIXING:  cpu time    0.0013: real time    0.0013
    --------------------------------------------
      LOOP:  cpu time    5.4073: real time    5.4082

 eigenvalue-minimisations  :  5224
 total energy-change (2. order) :-0.1046177E-02  (-0.1045506E-02)
 number of electron      32.0000026 magnetization 
 augmentation part        0.7373045 magnetization 

 Broyden mixing:
  rms(total) = 0.87830E+00    rms(broyden)= 0.87812E+00
  rms(prec ) = 0.20446E+01
  weight for this iteration     100.00

 Free energy of the ion-electron system (eV)
  ---------------------------------------------------
  alpha Z        PSCENC =       107.72688005
  Ewald energy   TEWEN  =     -1362.16849954
  -Hartree energ DENC   =       -76.25092114
  -exchange      EXHF   =         0.00000000
  -V(xc)+E(xc)   XCENC  =       112.77461831
  PAW double counting   =       302.65154477     -311.85538214
  entropy T*S    EENTRO =         0.00000000
  eigenvalues    EBANDS =       -24.49420168
  atomic energy  EATOM  =      1177.01779097
  Solvation  Ediel_sol  =         0.00000000
  ---------------------------------------------------
  free energy    TOTEN  =       -74.59817040 eV

  energy without entropy =      -74.59817040  energy(sigma->0) =      -74.59817040


--------------------------------------------------------------------------------------------------------




--------------------------------------- Iteration      1(   6)  ---------------------------------------


    POTLOK:  cpu time    0.0201: real time    0.0207
    SETDIJ:  cpu time    0.0058: real time    0.0058
     EDDAV:  cpu time    4.9587: real time    4.9592
 BZINTS: Fermi energy:  8.237092; 32.000000 electrons
         Band energy:  -9.548325;  BLOECHL correction:  0.000000
       DOS:  cpu time    0.0361: real time    0.0746
    CHARGE:  cpu time    0.1355: real time    0.1355
    MIXING:  cpu time    0.0017: real time    0.0017
    --------------------------------------------
      LOOP:  cpu time    5.1580: real time    5.1975

 eigenvalue-minimisations  :  4816
 total energy-change (2. order) : 0.1544306E+01  (-0.1036344E+00)
 number of electron      32.0000025 magnetization 
 augmentation part        0.7215718 magnetization 

 Broyden mixing:
  rms(total) = 0.48680E+00    rms(broyden)= 0.48678E+00
  rms(prec ) = 0.11149E+01
  weight for this iteration     100.00

 eigenvalues of (default mixing * dielectric matrix)
  average eigenvalue GAMMA=   2.1916
  2.1916

 Free energy of the ion-electron system (eV)
  ---------------------------------------------------
  alpha Z        PSCENC =       107.72688005
  Ewald energy   TEWEN  =     -1362.16849954
  -Hartree energ DENC   =       -90.52032382
  -exchange      EXHF   =         0.00000000
  -V(xc)+E(xc)   XCENC  =       114.10186396
  PAW double counting   =       382.37382104     -392.03707191
  entropy T*S    EENTRO =         0.00000000
  eigenvalues    EBANDS =        -9.54832488
  atomic energy  EATOM  =      1177.01779097
  Solvation  Ediel_sol  =         0.00000000
  ---------------------------------------------------
  free energy    TOTEN  =       -73.05386414 eV

  energy without entropy =      -73.05386414  energy(sigma->0) =      -73.05386414


--------------------------------------------------------------------------------------------------------




--------------------------------------- Iteration      1(   7)  ---------------------------------------


    POTLOK:  cpu time    0.0224: real time    0.0235
    SETDIJ:  cpu time    0.0058: real time    0.0058
     EDDAV:  cpu time    4.9097: real time    4.9102
 BZINTS: Fermi energy:  8.919745; 32.000000 electrons
         Band energy:   7.960197;  BLOECHL correction:  0.000000
       DOS:  cpu time    0.0368: real time    0.0845
    CHARGE:  cpu time    0.1553: real time    0.1553
    MIXING:  cpu time    0.0040: real time    0.0040
    --------------------------------------------
      LOOP:  cpu time    5.1340: real time    5.1833

 eigenvalue-minimisations  :  4752
 total energy-change (2. order) : 0.5226342E+00  (-0.1192346E+00)
 number of electron      32.0000025 magnetization 
 augmentation part        0.7046732 magnetization 

 Broyden mixing:
  rms(total) = 0.67618E-01    rms(broyden)= 0.67295E-01
  rms(prec ) = 0.11768E+00
  weight for this iteration     100.00

 eigenvalues of (default mixing * dielectric matrix)
  average eigenvalue GAMMA=   2.2662
  2.0000  2.5325

 Free energy of the ion-electron system (eV)
  ---------------------------------------------------
  alpha Z        PSCENC =       107.72688005
  Ewald energy   TEWEN  =     -1362.16849954
  -Hartree energ DENC   =      -108.79763233
  -exchange      EXHF   =         0.00000000
  -V(xc)+E(xc)   XCENC  =       115.82656779
  PAW double counting   =       489.73234289     -499.82887723
  entropy T*S    EENTRO =         0.00000000
  eigenvalues    EBANDS =         7.96019744
  atomic energy  EATOM  =      1177.01779097
  Solvation  Ediel_sol  =         0.00000000
  ---------------------------------------------------
  free energy    TOTEN  =       -72.53122996 eV

  energy without entropy =      -72.53122996  energy(sigma->0) =      -72.53122996


--------------------------------------------------------------------------------------------------------




--------------------------------------- Iteration      1(   8)  ---------------------------------------


    POTLOK:  cpu time    0.0204: real time    0.0226
    SETDIJ:  cpu time    0.0059: real time    0.0059
     EDDAV:  cpu time    5.2232: real time    5.2237
 BZINTS: Fermi energy:  8.922639; 32.000000 electrons
         Band energy:   8.220282;  BLOECHL correction:  0.000000
       DOS:  cpu time    0.0360: real time    0.0360
    CHARGE:  cpu time    0.1495: real time    0.1495
    MIXING:  cpu time    0.0020: real time    0.0020
    --------------------------------------------
      LOOP:  cpu time    5.4371: real time    5.4397

 eigenvalue-minimisations  :  5192
 total energy-change (2. order) :-0.6709775E-02  (-0.2436511E-02)
 number of electron      32.0000025 magnetization 
 augmentation part        0.7053298 magnetization 

 Broyden mixing:
  rms(total) = 0.76465E-02    rms(broyden)= 0.75536E-02
  rms(prec ) = 0.13238E-01
  weight for this iteration     100.00

 eigenvalues of (default mixing * dielectric matrix)
  average eigenvalue GAMMA=   2.1029
  1.4550  2.6741  2.1795

 Free energy of the ion-electron system (eV)
  ---------------------------------------------------
  alpha Z        PSCENC =       107.72688005
  Ewald energy   TEWEN  =     -1362.16849954
  -Hartree energ DENC   =      -109.23082388
  -exchange      EXHF   =         0.00000000
  -V(xc)+E(xc)   XCENC  =       115.87001320
  PAW double counting   =       496.35223059     -506.32581357
  entropy T*S    EENTRO =         0.00000000
  eigenvalues    EBANDS =         8.22028245
  atomic energy  EATOM  =      1177.01779097
  Solvation  Ediel_sol  =         0.00000000
  ---------------------------------------------------
  free energy    TOTEN  =       -72.53793974 eV

  energy without entropy =      -72.53793974  energy(sigma->0) =      -72.53793974


--------------------------------------------------------------------------------------------------------




--------------------------------------- Iteration      1(   9)  ---------------------------------------


    POTLOK:  cpu time    0.0202: real time    0.0206
    SETDIJ:  cpu time    0.0056: real time    0.0056
     EDDAV:  cpu time    5.0939: real time    5.0944
 BZINTS: Fermi energy:  8.915751; 32.000000 electrons
         Band energy:   8.118321;  BLOECHL correction:  0.000000
       DOS:  cpu time    0.0360: real time    0.0360
    CHARGE:  cpu time    0.1473: real time    0.1474
    MIXING:  cpu time    0.0020: real time    0.0020
    --------------------------------------------
      LOOP:  cpu time    5.3051: real time    5.3060

 eigenvalue-minimisations  :  5000
 total energy-change (2. order) :-0.2258820E-03  (-0.4314451E-04)
 number of electron      32.0000025 magnetization 
 augmentation part        0.7052710 magnetization 

 Broyden mixing:
  rms(total) = 0.27471E-02    rms(broyden)= 0.27407E-02
  rms(prec ) = 0.49311E-02
  weight for this iteration     100.00

 eigenvalues of (default mixing * dielectric matrix)
  average eigenvalue GAMMA=   2.0618
  0.9798  2.7902  2.4838  1.9935

 Free energy of the ion-electron system (eV)
  ---------------------------------------------------
  alpha Z        PSCENC =       107.72688005
  Ewald energy   TEWEN  =     -1362.16849954
  -Hartree energ DENC   =      -109.13291693
  -exchange      EXHF   =         0.00000000
  -V(xc)+E(xc)   XCENC  =       115.86050812
  PAW double counting   =       495.55080502     -505.51105445
  entropy T*S    EENTRO =         0.00000000
  eigenvalues    EBANDS =         8.11832114
  atomic energy  EATOM  =      1177.01779097
  Solvation  Ediel_sol  =         0.00000000
  ---------------------------------------------------
  free energy    TOTEN  =       -72.53816562 eV

  energy without entropy =      -72.53816562  energy(sigma->0) =      -72.53816562


--------------------------------------------------------------------------------------------------------




--------------------------------------- Iteration      1(  10)  ---------------------------------------


    POTLOK:  cpu time    0.0231: real time    0.0236
    SETDIJ:  cpu time    0.0061: real time    0.0061
     EDDAV:  cpu time    5.1513: real time    5.1517
 BZINTS: Fermi energy:  8.915793; 32.000000 electrons
         Band energy:   8.157375;  BLOECHL correction:  0.000000
       DOS:  cpu time    0.0361: real time    0.0361
    CHARGE:  cpu time    0.1439: real time    0.1439
    MIXING:  cpu time    0.0021: real time    0.0021
    --------------------------------------------
      LOOP:  cpu time    5.3627: real time    5.3636

 eigenvalue-minimisations  :  5112
 total energy-change (2. order) :-0.5788096E-04  (-0.5361332E-05)
 number of electron      32.0000025 magnetization 
 augmentation part        0.7052446 magnetization 

 Broyden mixing:
  rms(total) = 0.26326E-03    rms(broyden)= 0.25875E-03
  rms(prec ) = 0.61153E-03
  weight for this iteration     100.00

 eigenvalues of (default mixing * dielectric matrix)
  average eigenvalue GAMMA=   1.9691
  2.9412  2.5574  2.0664  0.9892  1.2914

 Free energy of the ion-electron system (eV)
  ---------------------------------------------------
  alpha Z        PSCENC =       107.72688005
  Ewald energy   TEWEN  =     -1362.16849954
  -Hartree energ DENC   =      -109.17409692
  -exchange      EXHF   =         0.00000000
  -V(xc)+E(xc)   XCENC  =       115.86404183
  PAW double counting   =       495.08288067     -505.04459586
  entropy T*S    EENTRO =         0.00000000
  eigenvalues    EBANDS =         8.15737530
  atomic energy  EATOM  =      1177.01779097
  Solvation  Ediel_sol  =         0.00000000
  ---------------------------------------------------
  free energy    TOTEN  =       -72.53822350 eV

  energy without entropy =      -72.53822350  energy(sigma->0) =      -72.53822350


--------------------------------------------------------------------------------------------------------




--------------------------------------- Iteration      1(  11)  ---------------------------------------


    POTLOK:  cpu time    0.0319: real time    0.0324
    SETDIJ:  cpu time    0.0056: real time    0.0056
     EDDAV:  cpu time    4.2547: real time    4.2550
 BZINTS: Fermi energy:  8.914384; 32.000000 electrons
         Band energy:   8.169890;  BLOECHL correction:  0.000000
       DOS:  cpu time    0.0357: real time    0.0357
    --------------------------------------------
      LOOP:  cpu time    4.3278: real time    4.3287

 eigenvalue-minimisations  :  3760
 total energy-change (2. order) :-0.4978556E-06  (-0.1148430E-06)
 number of electron      32.0000025 magnetization 
 augmentation part        0.7052446 magnetization 

 Free energy of the ion-electron system (eV)
  ---------------------------------------------------
  alpha Z        PSCENC =       107.72688005
  Ewald energy   TEWEN  =     -1362.16849954
  -Hartree energ DENC   =      -109.18717745
  -exchange      EXHF   =         0.00000000
  -V(xc)+E(xc)   XCENC  =       115.86525709
  PAW double counting   =       495.11852510     -505.08089058
  entropy T*S    EENTRO =         0.00000000
  eigenvalues    EBANDS =         8.16989035
  atomic energy  EATOM  =      1177.01779097
  Solvation  Ediel_sol  =         0.00000000
  ---------------------------------------------------
  free energy    TOTEN  =       -72.53822400 eV

  energy without entropy =      -72.53822400  energy(sigma->0) =      -72.53822400


--------------------------------------------------------------------------------------------------------




 average (electrostatic) potential at core
  the test charge radii are     0.6991
  (the norm of the test charge is              1.0000)
       1 -46.3053       2 -46.3053       3 -46.3053       4 -46.3053       5 -46.3053
       6 -46.3053       7 -46.3053       8 -46.3053
 
 
 
 E-fermi :   8.9144     XC(G=0): -12.9020     alpha+bet :-16.5910


 k-point     1 :       0.0000    0.0000    0.0000
  band No.  band energies     occupation 
      1     -11.7876      2.00000
      2      -3.4818      2.00000
      3      -3.4818      2.00000
      4      -3.4818      2.00000
      5      -3.4818      2.00000
      6      -3.4818      2.00000
      7      -3.4818      2.00000
      8       2.9267      2.00000
      9       2.9267      2.00000
     10       2.9267      2.00000
     11       2.9267      2.00000
     12       2.9267      2.00000
     13       2.9267      2.00000
     14       8.8598      2.00000
     15       8.8598      2.00000
     16       8.8598      2.00000
     17      13.4657      0.00000
     18      13.4657      0.00000
     19      13.4657      0.00000
     20      13.4657      0.00000
     21      13.4657      0.00000
     22      13.4657      0.00000
     23      14.2573      0.00000
     24      14.2573      0.00000

 k-point     2 :       0.0833    0.0000    0.0000
  band No.  band energies     occupation 
      1     -11.7262      2.00000
      2      -4.7191      2.00000
      3      -3.4450      2.00000
      4      -3.4450      2.00000
      5      -3.4450      2.00000
      6      -3.4450      2.00000
      7      -2.1874      2.00000
      8       2.7946      2.00000
      9       2.7946      2.00000
     10       2.7946      2.00000
     11       2.7946      2.00000
     12       2.9859      2.00000
     13       2.9859      2.00000
     14       8.6212      2.00000
     15       8.6212      2.00000
     16       8.7044      2.00000
     17      13.1304      0.00000
     18      13.7161      0.00000
     19      13.7161      0.00000
     20      13.7161      0.00000
     21      13.7161      0.00000
     22      13.9447      0.00000
     23      14.2193      0.00000
     24      14.5584      0.00000

 k-point     3 :       0.1667    0.0000    0.0000
  band No.  band energies     occupation 
      1     -11.5425      2.00000
      2      -5.8838      2.00000
      3      -3.3394      2.00000
      4      -3.3394      2.00000
      5      -3.3394      2.00000
      6      -3.3394      2.00000
      7      -0.8543      2.00000
      8       2.4440      2.00000
      9       2.4440      2.00000
     10       2.4440      2.00000
     11       2.4440      2.00000
     12       3.1645      2.00000
     13       3.1645      2.00000
     14       8.0166      2.00000
     15       8.0166      2.00000
     16       8.2321      2.00000
     17      12.9270      0.00000
     18      14.0738      0.00000
     19      14.4214      0.00000
     20      14.4214      0.00000
     21      14.4214      0.00000
     22      14.4214      0.00000
     23      14.5798      0.00000
     24      15.3180      0.00000

 k-point     4 :       0.2500    0.0000    0.0000
  band No.  band energies     occupation 
      1     -11.2370      2.00000
      2      -6.9637      2.00000
      3      -3.1808      2.00000
      4      -3.1808      2.00000
      5      -3.1808      2.00000
      6      -3.1808      2.00000
      7       0.4956      2.00000
      8       1.9834      2.00000
      9       1.9834      2.00000
     10       1.9834      2.00000
     11       1.9834      2.00000
     12       3.4577      2.00000
     13       3.4577      2.00000
     14       7.2482      2.00000
     15       7.2482      2.00000
     16       7.5187      2.00000
     17      12.8370      0.00000
     18      13.8602      0.00000
     19      15.3817      0.00000
     20      15.4782      0.00000
     21      15.4782      0.00000
     22      15.4782      0.00000
     23      15.4782      0.00000
     24      16.3310      0.00000

 k-point     5 :       0.3333    0.0000    0.0000
  band No.  band energies     occupation 
      1     -10.8109      2.00000
      2      -7.9486      2.00000
      3      -3.0010      2.00000
      4      -3.0010      2.00000
      5      -3.0010      2.00000
      6      -3.0010      2.00000
      7       1.5274      2.00000
      8       1.5274      2.00000
      9       1.5274      2.00000
     10       1.5274      2.00000
     11       1.8366      2.00000
     12       3.8632      2.00000
     13       3.8632      2.00000
     14       6.4512      2.00000
     15       6.4512      2.00000
     16       6.6126      2.00000
     17      12.8530      0.00000
     18      13.6113      0.00000
     19      16.3413      0.00000
     20      16.7675      0.00000
     21      16.7675      0.00000
     22      16.7675      0.00000
     23      16.7676      0.00000
     24      17.4721      0.00000

 k-point     6 :       0.4167    0.0000    0.0000
  band No.  band energies     occupation 
      1     -10.2660      2.00000
      2      -8.8309      2.00000
      3      -2.8508      2.00000
      4      -2.8508      2.00000
      5      -2.8508      2.00000
      6      -2.8508      2.00000
      7       1.1902      2.00000
      8       1.1902      2.00000
      9       1.1902      2.00000
     10       1.1902      2.00000
     11       3.1444      2.00000
     12       4.3760      2.00000
     13       4.3760      2.00000
     14       5.5592      2.00000
     15       5.6862      2.00000
     16       5.6862      2.00000
     17      12.9575      0.00000
     18      13.3606      0.00000
     19      17.4429      0.00000
     20      18.1656      0.00000
     21      18.1656      0.00000
     22      18.1656      0.00000
     23      18.1662      0.00000
     24      18.6717      0.00000

 k-point     7 :       0.5000    0.0000    0.0000
  band No.  band energies     occupation 
      1      -9.6049      2.00000
      2      -9.6049      2.00000
      3      -2.7909      2.00000
      4      -2.7909      2.00000
      5      -2.7909      2.00000
      6      -2.7909      2.00000
      7       1.0627      2.00000
      8       1.0627      2.00000
      9       1.0627      2.00000
     10       1.0627      2.00000
     11       4.3938      2.00000
     12       4.3938      2.00000
     13       4.9878      2.00000
     14       4.9878      2.00000
     15       4.9878      2.00000
     16       4.9878      2.00000
     17      13.1334      0.00000
     18      13.1334      0.00000
     19      18.6246      0.00000
     20      18.6246      0.00000
     21      19.1850      0.00000
     22      19.1850      0.00000
     23      19.1851      0.00000
     24      19.1854      0.00000

 k-point     8 :       0.0833    0.0833    0.0000
  band No.  band energies     occupation 
      1     -11.6650      2.00000
      2      -4.6740      2.00000
      3      -4.6740      2.00000
      4      -3.4500      2.00000
      5      -3.3705      2.00000
      6      -2.1639      2.00000
      7      -2.1639      2.00000
      8       2.3412      2.00000
      9       2.8406      2.00000
     10       2.8406      2.00000
     11       2.8725      2.00000
     12       2.8725      2.00000
     13       3.0279      2.00000
     14       8.1754      2.00000
     15       8.3838      2.00000
     16       8.7888      2.00000
     17      13.3872      0.00000
     18      13.3872      0.00000
     19      13.5662      0.00000
     20      14.1869      0.00000
     21      14.1869      0.00000
     22      14.3260      0.00000
     23      14.3936      0.00000
     24      14.6307      0.00000

 k-point     9 :       0.1667    0.0833    0.0000
  band No.  band energies     occupation 
      1     -11.4813      2.00000
      2      -5.8335      2.00000
      3      -4.5416      2.00000
      4      -3.4006      2.00000
      5      -3.2227      2.00000
      6      -2.1017      2.00000
      7      -0.8534      2.00000
      8       1.7737      2.00000
      9       2.4532      2.00000
     10       2.5767      2.00000
     11       2.9964      2.00000
     12       3.0082      2.00000
     13       3.0779      2.00000
     14       7.4701      2.00000
     15       7.7901      2.00000
     16       8.5200      2.00000
     17      13.1885      0.00000
     18      13.9141      0.00000
     19      14.1090      0.00000
     20      14.3163      0.00000
     21      14.8114      0.00000
     22      14.8715      0.00000
     23      15.2998      0.00000
     24      15.3079      0.00000

 k-point    10 :       0.2500    0.0833    0.0000
  band No.  band energies     occupation 
      1     -11.1761      2.00000
      2      -6.9098      2.00000
      3      -4.3314      2.00000
      4      -3.3277      2.00000
      5      -3.0079      2.00000
      6      -2.0275      2.00000
      7       0.4569      2.00000
      8       1.2110      2.00000
      9       1.9311      2.00000
     10       2.2049      2.00000
     11       2.7494      2.00000
     12       3.2940      2.00000
     13       3.4154      2.00000
     14       6.6524      2.00000
     15       7.0384      2.00000
     16       7.9387      2.00000
     17      13.1020      0.00000
     18      14.1152      0.00000
     19      14.7045      0.00000
     20      15.1825      0.00000
     21      15.5991      0.00000
     22      15.8986      0.00000
     23      16.3151      0.00000
     24      16.3317      0.00000

 k-point    11 :       0.3333    0.0833    0.0000
  band No.  band energies     occupation 
      1     -10.7504      2.00000
      2      -7.8923      2.00000
      3      -4.0623      2.00000
      4      -3.2835      2.00000
      5      -2.7426      2.00000
      6      -1.9876      2.00000
      7       0.7699      2.00000
      8       1.3879      2.00000
      9       1.7288      2.00000
     10       1.8866      2.00000
     11       2.3908      2.00000
     12       3.6926      2.00000
     13       3.8942      2.00000
     14       5.7908      2.00000
     15       6.2516      2.00000
     16       7.1469      2.00000
     17      13.1199      0.00000
     18      13.8731      0.00000
     19      15.8251      0.00000
     20      16.4950      0.00000
     21      16.5474      0.00000
     22      17.1494      0.00000
     23      17.3796      0.00000
     24      17.4560      0.00000

 k-point    12 :       0.4167    0.0833    0.0000
  band No.  band energies     occupation 
      1     -10.2061      2.00000
      2      -8.7730      2.00000
      3      -3.7685      2.00000
      4      -3.3314      2.00000
      5      -2.4584      2.00000
      6      -2.0375      2.00000
      7       0.5546      2.00000
      8       0.9190      2.00000
      9       1.7308      2.00000
     10       2.0371      2.00000
     11       2.9120      2.00000
     12       4.1989      2.00000
     13       4.5322      2.00000
     14       4.9056      2.00000
     15       5.4949      2.00000
     16       6.2416      2.00000
     17      13.2249      0.00000
     18      13.6238      0.00000
     19      17.1478      0.00000
     20      17.6321      0.00000
     21      17.9390      0.00000
     22      18.4269      0.00000
     23      18.5042      0.00000
     24      18.6566      0.00000

 k-point    13 :       0.5000    0.0833    0.0000
  band No.  band energies     occupation 
      1      -9.5458      2.00000
      2      -9.5458      2.00000
      3      -3.5036      2.00000
      4      -3.5036      2.00000
      5      -2.2042      2.00000
      6      -2.2042      2.00000
      7       0.6145      2.00000
      8       0.6145      2.00000
      9       1.7899      2.00000
     10       1.7899      2.00000
     11       3.9659      2.00000
     12       3.9659      2.00000
     13       4.8043      2.00000
     14       4.8043      2.00000
     15       5.3333      2.00000
     16       5.3333      2.00000
     17      13.4001      0.00000
     18      13.4001      0.00000
     19      18.4626      0.00000
     20      18.4626      0.00000
     21      18.7863      0.00000
     22      18.7863      0.00000
     23      19.3643      0.00000
     24      19.3758      0.00000

 k-point    14 :       0.1667    0.1667    0.0000
  band No.  band energies     occupation 
      1     -11.2982      2.00000
      2      -5.6840      2.00000
      3      -5.6840      2.00000
      4      -3.4367      2.00000
      5      -3.0371      2.00000
      6      -0.8629      2.00000
      7      -0.8629      2.00000
      8       1.1050      2.00000
      9       2.5937      2.00000
     10       2.5937      2.00000
     11       2.8642      2.00000
     12       2.8642      2.00000
     13       3.3250      2.00000
     14       6.6943      2.00000
     15       7.2311      2.00000
     16       8.5522      2.00000
     17      13.8645      0.00000
     18      13.9202      0.00000
     19      13.9202      0.00000
     20      14.7595      0.00000
     21      15.4708      0.00000
     22      15.4708      0.00000
     23      15.4778      0.00000
     24      15.7866      0.00000

 k-point    15 :       0.2500    0.1667    0.0000
  band No.  band energies     occupation 
      1     -10.9937      2.00000
      2      -6.7492      2.00000
      3      -5.4415      2.00000
      4      -3.5002      2.00000
      5      -2.7799      2.00000
      6      -0.9221      2.00000
      7       0.3285      2.00000
      8       0.5545      2.00000
      9       2.0309      2.00000
     10       2.6313      2.00000
     11       2.8575      2.00000
     12       3.3276      2.00000
     13       3.3906      2.00000
     14       5.8515      2.00000
     15       6.5042      2.00000
     16       8.2081      2.00000
     17      13.8409      0.00000
     18      14.3006      0.00000
     19      14.7520      0.00000
     20      15.0045      0.00000
     21      16.2235      0.00000
     22      16.3014      0.00000
     23      16.3871      0.00000
     24      16.4592      0.00000

 k-point    16 :       0.3333    0.1667    0.0000
  band No.  band energies     occupation 
      1     -10.5693      2.00000
      2      -7.7243      2.00000
      3      -5.1173      2.00000
      4      -3.6566      2.00000
      5      -2.4578      2.00000
      6      -1.0771      2.00000
      7       0.2369      2.00000
      8       1.4234      2.00000
      9       1.4308      2.00000
     10       2.4975      2.00000
     11       3.2388      2.00000
     12       3.2413      2.00000
     13       3.9857      2.00000
     14       4.9926      2.00000
     15       5.7373      2.00000
     16       7.5644      2.00000
     17      13.8581      0.00000
     18      14.5609      0.00000
     19      15.1610      0.00000
     20      16.3242      0.00000
     21      17.1338      0.00000
     22      17.1875      0.00000
     23      17.4231      0.00000
     24      17.6424      0.00000

 k-point    17 :       0.4167    0.1667    0.0000
  band No.  band energies     occupation 
      1     -10.0268      2.00000
      2      -8.5998      2.00000
      3      -4.7320      2.00000
      4      -3.9409      2.00000
      5      -2.0881      2.00000
      6      -1.3472      2.00000
      7       0.2086      2.00000
      8       0.8768      2.00000
      9       2.3979      2.00000
     10       2.5269      2.00000
     11       2.9779      2.00000
     12       3.7304      2.00000
     13       4.1386      2.00000
     14       4.8277      2.00000
     15       4.9968      2.00000
     16       6.7204      2.00000
     17      13.9608      0.00000
     18      14.3359      0.00000
     19      16.3236      0.00000
     20      17.7765      0.00000
     21      18.1201      0.00000
     22      18.1718      0.00000
     23      18.5389      0.00000
     24      18.6369      0.00000

 k-point    18 :       0.5000    0.1667    0.0000
  band No.  band energies     occupation 
      1      -9.3691      2.00000
      2      -9.3691      2.00000
      3      -4.3214      2.00000
      4      -4.3214      2.00000
      5      -1.7025      2.00000
      6      -1.7025      2.00000
      7       0.4446      2.00000
      8       0.4446      2.00000
      9       2.7104      2.00000
     10       2.7104      2.00000
     11       3.2848      2.00000
[...]

 k-point    72 :       0.4167    0.4167    0.2500
  band No.  band energies     occupation 
      1      -8.2825      2.00000
      2      -6.9776      2.00000
      3      -6.9776      2.00000
      4      -5.9623      2.00000
      5      -3.0677      2.00000
      6      -2.0834      2.00000
      7      -2.0834      2.00000
      8      -0.8176      2.00000
      9       3.6351      2.00000
     10       4.3732      2.00000
     11       4.3732      2.00000
     12       5.4385      2.00000
     13       5.4769      2.00000
     14       5.6393      2.00000
     15       5.6393      2.00000
     16       6.6550      2.00000
     17      16.0983      0.00000
     18      16.6350      0.00000
     19      16.6350      0.00000
     20      16.9526      0.00000
     21      16.9760      0.00000
     22      17.4447      0.00000
     23      17.4447      0.00000
     24      17.5110      0.00000

 k-point    73 :       0.5000    0.4167    0.2500
  band No.  band energies     occupation 
      1      -7.6710      2.00000
      2      -7.6710      2.00000
      3      -6.4619      2.00000
      4      -6.4619      2.00000
      5      -2.6831      2.00000
      6      -2.6831      2.00000
      7      -1.5113      2.00000
      8      -1.5113      2.00000
      9       4.0220      2.00000
     10       4.0220      2.00000
     11       4.9355      2.00000
     12       4.9355      2.00000
     13       5.6772      2.00000
     14       5.6772      2.00000
     15       6.2633      2.00000
     16       6.2633      2.00000
     17      16.5843      0.00000
     18      16.5843      0.00000
     19      16.8894      0.00000
     20      16.8894      0.00000
     21      17.0968      0.00000
     22      17.0968      0.00000
     23      17.7466      0.00000
     24      17.7471      0.00000

 k-point    74 :       0.5000    0.5000    0.2500
  band No.  band energies     occupation 
      1      -7.0924      2.00000
      2      -7.0924      2.00000
      3      -7.0924      2.00000
      4      -7.0924      2.00000
      5      -2.1730      2.00000
      6      -2.1730      2.00000
      7      -2.1730      2.00000
      8      -2.1730      2.00000
      9       4.4961      2.00000
     10       4.4961      2.00000
     11       4.4961      2.00000
     12       4.4961      2.00000
     13       6.1139      2.00000
     14       6.1139      2.00000
     15       6.1139      2.00000
     16       6.1139      2.00000
     17      16.6907      0.00000
     18      16.6907      0.00000
     19      16.6907      0.00000
     20      16.6907      0.00000
     21      17.6799      0.00000
     22      17.6799      0.00000
     23      17.6799      0.00000
     24      17.6799      0.00000

 k-point    75 :       0.3333    0.3333    0.3333
  band No.  band energies     occupation 
      1      -8.9135      2.00000
      2      -6.3437      2.00000
      3      -6.3437      2.00000
      4      -6.3437      2.00000
      5      -2.6044      2.00000
      6      -2.6044      2.00000
      7      -2.6044      2.00000
      8      -0.1058      2.00000
      9       4.0897      2.00000
     10       4.0897      2.00000
     11       4.0897      2.00000
     12       5.1238      2.00000
     13       5.1238      2.00000
     14       5.1238      2.00000
     15       6.6640      2.00000
     16       6.6640      2.00000
     17      15.6911      0.00000
     18      15.6911      0.00000
     19      15.6911      0.00000
     20      16.6660      0.00000
     21      16.8340      0.00000
     22      16.8340      0.00000
     23      19.1412      0.00000
     24      19.1799      0.00000

 k-point    76 :       0.4167    0.3333    0.3333
  band No.  band energies     occupation 
      1      -8.3988      2.00000
      2      -7.0888      2.00000
      3      -6.0659      2.00000
      4      -6.0659      2.00000
      5      -3.1804      2.00000
      6      -3.1804      2.00000
      7      -2.1861      2.00000
      8      -0.9106      2.00000
      9       4.2943      2.00000
     10       4.2943      2.00000
     11       5.1468      2.00000
     12       5.3291      2.00000
     13       5.3291      2.00000
     14       5.4709      2.00000
     15       6.2651      2.00000
     16       6.5356      2.00000
     17      16.0017      0.00000
     18      16.1997      0.00000
     19      16.1997      0.00000
     20      16.5912      0.00000
     21      16.9465      0.00000
     22      17.2612      0.00000
     23      18.1086      0.00000
     24      18.1140      0.00000

 k-point    77 :       0.5000    0.3333    0.3333
  band No.  band energies     occupation 
      1      -7.7851      2.00000
      2      -7.7851      2.00000
      3      -5.9394      2.00000
      4      -5.9394      2.00000
      5      -3.4074      2.00000
      6      -3.4074      2.00000
      7      -1.6112      2.00000
      8      -1.6112      2.00000
      9       4.3634      2.00000
     10       4.3634      2.00000
     11       5.3987      2.00000
     12       5.3987      2.00000
     13       5.8577      2.00000
     14       5.8577      2.00000
     15       5.9992      2.00000
     16       5.9992      2.00000
     17      16.3185      0.00000
     18      16.3185      0.00000
     19      16.8247      0.00000
     20      16.8247      0.00000
     21      17.2910      0.00000
     22      17.2910      0.00000
     23      17.5140      0.00000
     24      17.5144      0.00000

 k-point    78 :       0.4167    0.4167    0.3333
  band No.  band energies     occupation 
      1      -7.9011      2.00000
      2      -6.6813      2.00000
      3      -6.6813      2.00000
      4      -6.0479      2.00000
      5      -3.5126      2.00000
      6      -2.8929      2.00000
      7      -2.8929      2.00000
      8      -1.7045      2.00000
      9       4.6989      2.00000
     10       5.1455      2.00000
     11       5.1455      2.00000
     12       5.6689      2.00000
     13       5.7334      2.00000
     14       5.7334      2.00000
     15       6.0661      2.00000
     16       6.5084      2.00000
     17      16.3364      0.00000
     18      16.4858      0.00000
     19      16.4858      0.00000
     20      16.8806      0.00000
     21      16.9186      0.00000
     22      17.1446      0.00000
     23      17.5260      0.00000
     24      17.5260      0.00000

 k-point    79 :       0.5000    0.4167    0.3333
  band No.  band energies     occupation 
      1      -7.3177      2.00000
      2      -7.3177      2.00000
      3      -6.2873      2.00000
      4      -6.2873      2.00000
      5      -3.3834      2.00000
      6      -3.3834      2.00000
      7      -2.3770      2.00000
      8      -2.3770      2.00000
      9       4.9724      2.00000
     10       4.9724      2.00000
     11       5.6871      2.00000
     12       5.6871      2.00000
     13       5.8233      2.00000
     14       5.8233      2.00000
     15       6.2176      2.00000
     16       6.2176      2.00000
     17      16.7598      0.00000
     18      16.7598      0.00000
     19      16.7710      0.00000
     20      16.7710      0.00000
     21      17.1119      0.00000
     22      17.1119      0.00000
     23      17.2936      0.00000
     24      17.2936      0.00000

 k-point    80 :       0.5000    0.5000    0.3333
  band No.  band energies     occupation 
      1      -6.7943      2.00000
      2      -6.7943      2.00000
      3      -6.7943      2.00000
      4      -6.7943      2.00000
      5      -2.9929      2.00000
      6      -2.9929      2.00000
      7      -2.9929      2.00000
      8      -2.9929      2.00000
      9       5.3813      2.00000
     10       5.3813      2.00000
     11       5.3813      2.00000
     12       5.3813      2.00000
     13       6.1581      2.00000
     14       6.1581      2.00000
     15       6.1581      2.00000
     16       6.1581      2.00000
     17      16.8255      0.00000
     18      16.8255      0.00000
     19      16.8255      0.00000
     20      16.8255      0.00000
     21      17.3494      0.00000
     22      17.3494      0.00000
     23      17.3495      0.00000
     24      17.3496      0.00000

 k-point    81 :       0.4167    0.4167    0.4167
  band No.  band energies     occupation 
      1      -7.4318      2.00000
      2      -6.3964      2.00000
      3      -6.3964      2.00000
      4      -6.3964      2.00000
      5      -3.4913      2.00000
      6      -3.4913      2.00000
      7      -3.4913      2.00000
      8      -2.4780      2.00000
      9       5.5767      2.00000
     10       5.5767      2.00000
     11       5.5767      2.00000
     12       5.8845      2.00000
     13       5.8845      2.00000
     14       5.8845      2.00000
     15       6.3224      2.00000
     16       6.3224      2.00000
     17      16.5946      0.00000
     18      16.5946      0.00000
     19      16.5946      0.00000
     20      16.7884      0.00000
     21      17.0099      0.00000
     22      17.0099      0.00000
     23      17.5722      0.00000
     24      17.5733      0.00000

 k-point    82 :       0.5000    0.4167    0.4167
  band No.  band energies     occupation 
      1      -6.9059      2.00000
      2      -6.9059      2.00000
      3      -6.2659      2.00000
      4      -6.2659      2.00000
      5      -3.7272      2.00000
      6      -3.7272      2.00000
      7      -3.0988      2.00000
      8      -3.0988      2.00000
      9       5.6655      2.00000
     10       5.6655      2.00000
     11       6.0021      2.00000
     12       6.0021      2.00000
     13       6.1091      2.00000
     14       6.1091      2.00000
     15       6.1521      2.00000
     16       6.1521      2.00000
     17      16.8015      0.00000
     18      16.8016      0.00000
     19      16.9471      0.00000
     20      16.9473      0.00000
     21      17.0092      0.00000
     22      17.0099      0.00000
     23      17.0512      0.00000
     24      17.0525      0.00000

 k-point    83 :       0.5000    0.5000    0.4167
  band No.  band energies     occupation 
      1      -6.5071      2.00000
      2      -6.5071      2.00000
      3      -6.5071      2.00000
      4      -6.5071      2.00000
      5      -3.5980      2.00000
      6      -3.5980      2.00000
      7      -3.5980      2.00000
      8      -3.5980      2.00000
      9       5.9916      2.00000
     10       5.9916      2.00000
     11       5.9916      2.00000
     12       5.9916      2.00000
     13       6.1946      2.00000
     14       6.1946      2.00000
     15       6.1946      2.00000
     16       6.1946      2.00000
     17      16.8998      0.00000
     18      16.8999      0.00000
     19      16.9002      0.00000
     20      16.9005      0.00000
     21      17.1078      0.00000
     22      17.1089      0.00000
     23      17.1159      0.00000
     24      17.1179      0.00000

 k-point    84 :       0.5000    0.5000    0.5000
  band No.  band energies     occupation 
      1      -6.3753      2.00000
      2      -6.3753      2.00000
      3      -6.3753      2.00000
      4      -6.3753      2.00000
      5      -3.8366      2.00000
      6      -3.8366      2.00000
      7      -3.8366      2.00000
      8      -3.8366      2.00000
      9       6.2059      2.00000
     10       6.2059      2.00000
     11       6.2059      2.00000
     12       6.2059      2.00000
     13       6.2059      2.00000
     14       6.2059      2.00000
     15       6.2059      2.00000
     16       6.2059      2.00000
     17      16.8242      0.00000
     18      16.8242      0.00000
     19      16.8242      0.00000
     20      16.8245      0.00000
     21      17.0413      0.00000
     22      17.0413      0.00000
     23      17.0413      0.00000
     24      17.0413      0.00000


--------------------------------------------------------------------------------------------------------


 soft charge-density along one line, spin component           1
         0         1         2         3         4         5         6         7         8         9
 total charge-density along one line
 
 pseudopotential strength for first ion, spin component:           1
  9.489  -0.003   0.000   0.000   0.000  -0.000  -0.000  -0.000
 -0.003  -0.002  -0.000  -0.000  -0.000  -0.000  -0.000   0.000
  0.000  -0.000  -3.712  -0.000  -0.000  -0.007  -0.000  -0.000
  0.000  -0.000  -0.000  -3.712   0.000  -0.000  -0.007   0.000
  0.000  -0.000  -0.000   0.000  -3.712  -0.000   0.000  -0.007
 -0.000  -0.000  -0.007  -0.000  -0.000  -0.758  -0.000  -0.000
 -0.000  -0.000  -0.000  -0.007   0.000  -0.000  -0.758   0.000
 -0.000   0.000  -0.000   0.000  -0.007  -0.000   0.000  -0.758
 total augmentation occupancy for first ion, spin component:           1
  1.418  -0.948  -0.000   0.000   0.000   0.000   0.000   0.000
 -0.948   0.903   0.000   0.000  -0.000   0.000  -0.000  -0.000
 -0.000   0.000   1.063   0.000   0.000   0.174   0.000   0.000
  0.000  -0.000   0.000   1.063  -0.000   0.000   0.174   0.000
  0.000   0.000   0.000  -0.000   1.063   0.000  -0.000   0.174
  0.000   0.000   0.174   0.000   0.000   0.033  -0.000   0.000
 -0.000  -0.000  -0.000   0.174   0.000   0.000   0.033   0.000
  0.000   0.000   0.000   0.000   0.174  -0.000   0.000   0.033


------------------------ aborting loop because EDIFF is reached ----------------------------------------


    CHARGE:  cpu time    0.1428: real time    0.1428
    FORLOC:  cpu time    0.0017: real time    0.0017
    FORNL :  cpu time    0.2079: real time    0.2079
    STRESS:  cpu time    0.5134: real time    0.5136
    FORHAR:  cpu time    0.0073: real time    0.0073
    MIXING:  cpu time    0.0021: real time    0.0021
    OFIELD:  cpu time    0.0001: real time    0.0001

  FORCE on cell =-STRESS in cart. coord.  units (eV):
  Direction    XX          YY          ZZ          XY          YZ          ZX
  --------------------------------------------------------------------------------------
  Alpha Z   107.72688   107.72688   107.72688
  Ewald    -454.05694  -454.05694  -454.05694     0.00000     0.00000    -0.00000
  Hartree    36.39487    36.39487    36.39487    -0.00000    -0.00000    -0.00000
  E(xc)    -117.97110  -117.97110  -117.97110     0.00000     0.00000     0.00000
  Local     -51.13414   -51.13414   -51.13414    -0.00000     0.00000     0.00000
  n-local   -25.39005   -26.20735   -25.39662     0.69355     0.86049     0.41351
  augment    -2.60269    -2.60269    -2.60269    -0.00000    -0.00000    -0.00000
  Kinetic   488.64345   504.17305   504.51568    -4.63968    -6.48945    -3.23718
  Fock        0.00000     0.00000     0.00000     0.00000     0.00000     0.00000
  -------------------------------------------------------------------------------------
  Total      -8.19706    -8.19706    -8.19706    -0.00000    -0.00000     0.00000
  in kB    -271.30700  -271.30700  -271.30700    -0.00000    -0.00000     0.00000
  external pressure =     -271.31 kB  Pullay stress =        0.00 kB


 VOLUME and BASIS-vectors are now :
 -----------------------------------------------------------------------------
  energy-cutoff  :      400.00
  volume of cell :       48.41
      direct lattice vectors                 reciprocal lattice vectors
     3.644483000  0.000000000  0.000000000     0.274387341  0.000000000  0.000000000
     0.000000000  3.644483000  0.000000000     0.000000000  0.274387341  0.000000000
     0.000000000  0.000000000  3.644483000     0.000000000  0.000000000  0.274387341

  length of vectors
     3.644483000  3.644483000  3.644483000     0.274387341  0.274387341  0.274387341


 FORCES acting on ions
    electron-ion (+dipol)            ewald-force                    non-local-force                 convergence-correction
 -----------------------------------------------------------------------------------------------
   -.780E-14 -.148E-12 -.123E-13   -.142E-13 0.000E+00 0.711E-14   -.432E-17 0.164E-16 -.661E-17   0.699E-15 -.900E-14 0.107E-13
   0.156E-13 -.353E-14 0.144E-15   0.789E-14 -.401E-15 -.712E-14   0.112E-17 -.276E-16 0.107E-17   -.201E-14 0.169E-15 0.124E-13
   0.000E+00 -.167E-12 0.507E-14   -.142E-13 0.000E+00 -.711E-14   0.168E-16 0.220E-16 -.964E-17   0.655E-15 -.778E-14 0.125E-13
   0.000E+00 0.235E-13 -.214E-13   0.693E-14 0.141E-16 -.208E-13   0.311E-17 -.211E-16 0.758E-17   -.243E-14 -.211E-14 0.139E-13
   0.780E-14 0.207E-12 0.367E-12   0.711E-14 0.000E+00 0.213E-13   -.439E-17 0.300E-16 -.266E-17   -.990E-14 -.916E-14 0.124E-13
   0.234E-13 -.323E-14 -.439E-12   0.711E-14 -.207E-15 0.757E-14   0.156E-16 -.230E-16 0.450E-17   -.278E-14 0.760E-15 0.130E-13
   0.234E-13 -.193E-12 -.308E-13   0.711E-14 0.000E+00 0.711E-14   -.461E-17 0.119E-16 -.107E-16   -.947E-14 -.710E-14 0.108E-13
   0.312E-13 0.377E-12 -.460E-14   0.701E-14 -.826E-16 -.712E-14   -.637E-17 -.617E-17 0.442E-17   -.245E-14 -.105E-14 0.117E-13
 -----------------------------------------------------------------------------------------------
   0.936E-13 0.942E-13 -.136E-12   0.147E-13 -.677E-15 0.909E-15   0.169E-16 0.252E-17 -.121E-16   -.277E-13 -.353E-13 0.973E-13
 
 
 POSITION                                       TOTAL-FORCE (eV/Angst)
 -----------------------------------------------------------------------------------
      0.91112      2.73336      0.91112         0.000000     -0.000000     -0.000000
      0.00000      0.00000      1.82224        -0.000000     -0.000000     -0.000000
      0.91112      0.91112      2.73336        -0.000000      0.000000     -0.000000
      0.00000      1.82224      0.00000         0.000000     -0.000000      0.000000
      2.73336      2.73336      2.73336         0.000000      0.000000      0.000000
      1.82224      0.00000      0.00000        -0.000000      0.000000      0.000000
      2.73336      0.91112      0.91112        -0.000000      0.000000     -0.000000
      1.82224      1.82224      1.82224         0.000000     -0.000000      0.000000
 -----------------------------------------------------------------------------------
    total drift:                                0.000000      0.000000     -0.000000


--------------------------------------------------------------------------------------------------------



  FREE ENERGIE OF THE ION-ELECTRON SYSTEM (eV)
  ---------------------------------------------------
  free  energy   TOTEN  =       -72.53822400 eV

  energy  without entropy=      -72.53822400  energy(sigma->0) =      -72.53822400
 


--------------------------------------------------------------------------------------------------------


    POTLOK:  cpu time    0.0266: real time    0.0266


--------------------------------------------------------------------------------------------------------


     LOOP+:  cpu time   57.5949: real time   57.7890
    4ORBIT:  cpu time    0.0000: real time    0.0000
 BZINTS: Fermi energy:  8.914384; 32.000000 electrons
         Band energy:   8.169890;  BLOECHL correction:  0.000000

 total amount of memory used by VASP MPI-rank0    34053. kBytes
=======================================================================

   base      :      30000. kBytes
   nonl-proj :       1254. kBytes
   fftplans  :        345. kBytes
   grid      :        481. kBytes
   one-center:          6. kBytes
   wavefun   :       1967. kBytes
 
  
  
 General timing and accounting informations for this job:
 ========================================================
  
                  Total CPU time used (sec):       60.099
                            User time (sec):       58.219
                          System time (sec):        1.881
                         Elapsed time (sec):       60.359
  
                   Maximum memory used (kb):      187560.
                   Average memory used (kb):           0.
  
                          Minor page faults:        36887
                          Major page faults:           36
                 Voluntary context switches:          794
