  64  64   0   0
  0.5034422E+01  0.6855564E-09  0.6855564E-09  0.6855564E-09  0.5000000E-15
  1.000000000000000E-004
  CAR 
 unknown system                          
     26.04936935    -13.37685950  301     11.86414076      1.00000000
    -13.377  0.0000E+00  0.0000E+00
    -13.245  0.0000E+00  0.0000E+00
    -13.114  0.0000E+00  0.0000E+00
    -12.983  0.0000E+00  0.0000E+00
    -12.851  0.0000E+00  0.0000E+00
    -12.720  0.0000E+00  0.0000E+00
    -12.588  0.0000E+00  0.0000E+00
    -12.457  0.0000E+00  0.0000E+00
    -12.325  0.0000E+00  0.0000E+00
    -12.194  0.0000E+00  0.0000E+00
    -12.063  0.0000E+00  0.0000E+00
    -11.931  0.4950E-17  0.6505E-18
    -11.800  0.6137E-08  0.8065E-09
    -11.668  0.1090E-02  0.1432E-03
    -11.537  0.2263E+00  0.2989E-01
    -11.406  0.1002E+01  0.1615E+00
    -11.274  0.1497E+01  0.3583E+00
    -11.143  0.2109E+01  0.6354E+00
    -11.011  0.2259E+01  0.9323E+00
    -10.880  0.2481E+01  0.1258E+01
    -10.748  0.3093E+01  0.1665E+01
    -10.617  0.2323E+01  0.1970E+01
    -10.486  0.3839E+01  0.2475E+01
    -10.354  0.3328E+01  0.2912E+01
    -10.223  0.3655E+01  0.3393E+01
    -10.091  0.3790E+01  0.3891E+01
     -9.960  0.4400E+01  0.4469E+01
     -9.828  0.4275E+01  0.5031E+01
     -9.697  0.3135E+01  0.5443E+01
     -9.566  0.5305E+01  0.6140E+01
     -9.434  0.5426E+01  0.6853E+01
     -9.303  0.4123E+01  0.7395E+01
     -9.171  0.5005E+01  0.8052E+01
     -9.040  0.4963E+01  0.8705E+01
     -8.909  0.6139E+01  0.9512E+01
     -8.777  0.4251E+01  0.1007E+02
     -8.646  0.6725E+01  0.1095E+02
     -8.514  0.4682E+01  0.1157E+02
     -8.383  0.5841E+01  0.1234E+02
     -8.251  0.6315E+01  0.1317E+02
     -8.120  0.7465E+01  0.1415E+02
     -7.989  0.5575E+01  0.1488E+02
     -7.857  0.4405E+01  0.1546E+02
     -7.726  0.7683E+01  0.1647E+02
     -7.594  0.6710E+01  0.1735E+02
     -7.463  0.7384E+01  0.1832E+02
     -7.332  0.6966E+01  0.1924E+02
     -7.200  0.6391E+01  0.2008E+02
     -7.069  0.7797E+01  0.2110E+02
     -6.937  0.6391E+01  0.2194E+02
     -6.806  0.7465E+01  0.2292E+02
     -6.674  0.7631E+01  0.2393E+02
     -6.543  0.8761E+01  0.2508E+02
     -6.412  0.7710E+01  0.2609E+02
     -6.280  0.7981E+01  0.2714E+02
     -6.149  0.5947E+01  0.2792E+02
     -6.017  0.8999E+01  0.2910E+02
     -5.886  0.1021E+02  0.3045E+02
     -5.754  0.9592E+01  0.3171E+02
     -5.623  0.6715E+01  0.3259E+02
     -5.492  0.9569E+01  0.3385E+02
     -5.360  0.9863E+01  0.3514E+02
     -5.229  0.7348E+01  0.3611E+02
     -5.097  0.1303E+02  0.3782E+02
     -4.966  0.9246E+01  0.3904E+02
     -4.835  0.1114E+02  0.4050E+02
     -4.703  0.1146E+02  0.4201E+02
     -4.572  0.1173E+02  0.4355E+02
     -4.440  0.8090E+01  0.4461E+02
     -4.309  0.7908E+01  0.4565E+02
     -4.177  0.9669E+01  0.4692E+02
     -4.046  0.1136E+02  0.4841E+02
     -3.915  0.8201E+01  0.4949E+02
     -3.783  0.1016E+02  0.5083E+02
     -3.652  0.6452E+01  0.5167E+02
     -3.520  0.9782E+01  0.5296E+02
     -3.389  0.7693E+01  0.5397E+02
     -3.257  0.5011E+01  0.5463E+02
     -3.126  0.8381E+01  0.5573E+02
     -2.995  0.1105E+02  0.5718E+02
     -2.863  0.7535E+01  0.5817E+02
     -2.732  0.8360E+01  0.5927E+02
     -2.600  0.1014E+02  0.6060E+02
     -2.469  0.9558E+01  0.6186E+02
     -2.338  0.9594E+01  0.6312E+02
     -2.206  0.8932E+01  0.6429E+02
     -2.075  0.6809E+01  0.6519E+02
     -1.943  0.9431E+01  0.6643E+02
     -1.812  0.1353E+02  0.6821E+02
     -1.680  0.9463E+01  0.6945E+02
     -1.549  0.7617E+01  0.7045E+02
     -1.418  0.9902E+01  0.7175E+02
     -1.286  0.8246E+01  0.7284E+02
     -1.155  0.1033E+02  0.7419E+02
     -1.023  0.1069E+02  0.7560E+02
     -0.892  0.1269E+02  0.7727E+02
     -0.760  0.1787E+02  0.7961E+02
     -0.629  0.2200E+02  0.8251E+02
     -0.498  0.1787E+02  0.8485E+02
     -0.366  0.1134E+02  0.8635E+02
     -0.235  0.9319E+01  0.8757E+02
     -0.103  0.1096E+02  0.8901E+02
      0.028  0.8999E+01  0.9019E+02
      0.159  0.1154E+02  0.9171E+02
      0.291  0.1835E+02  0.9412E+02
      0.422  0.9728E+01  0.9540E+02
      0.554  0.6428E+01  0.9624E+02
      0.685  0.6701E+01  0.9712E+02
      0.817  0.9809E+01  0.9841E+02
      0.948  0.8594E+01  0.9954E+02
      1.079  0.8187E+01  0.1006E+03
      1.211  0.1010E+02  0.1019E+03
      1.342  0.1535E+02  0.1040E+03
      1.474  0.1272E+02  0.1056E+03
      1.605  0.1095E+02  0.1071E+03
      1.737  0.1534E+02  0.1091E+03
      1.868  0.1538E+02  0.1111E+03
      1.999  0.9948E+01  0.1124E+03
      2.131  0.1133E+02  0.1139E+03
      2.262  0.2053E+02  0.1166E+03
      2.394  0.1901E+02  0.1191E+03
      2.525  0.1478E+02  0.1210E+03
      2.656  0.1005E+02  0.1224E+03
      2.788  0.1298E+02  0.1241E+03
      2.919  0.1758E+02  0.1264E+03
      3.051  0.1561E+02  0.1284E+03
      3.182  0.1573E+02  0.1305E+03
      3.314  0.1438E+02  0.1324E+03
      3.445  0.2239E+02  0.1353E+03
      3.576  0.1292E+02  0.1370E+03
      3.708  0.1193E+02  0.1386E+03
      3.839  0.2203E+02  0.1415E+03
      3.971  0.1686E+02  0.1437E+03
      4.102  0.1871E+02  0.1462E+03
      4.234  0.2022E+02  0.1488E+03
      4.365  0.1849E+02  0.1513E+03
      4.496  0.2060E+02  0.1540E+03
      4.628  0.2172E+02  0.1568E+03
      4.759  0.2597E+02  0.1602E+03
      4.891  0.2559E+02  0.1636E+03
      5.022  0.1801E+02  0.1660E+03
      5.153  0.2065E+02  0.1687E+03
      5.285  0.2513E+02  0.1720E+03
      5.416  0.2680E+02  0.1755E+03
      5.548  0.1937E+02  0.1780E+03
      5.679  0.1694E+02  0.1803E+03
      5.811  0.2131E+02  0.1831E+03
      5.942  0.2356E+02  0.1862E+03
      6.073  0.2667E+02  0.1897E+03
      6.205  0.1674E+02  0.1919E+03
      6.336  0.1845E+02  0.1943E+03
      6.468  0.2166E+02  0.1971E+03
      6.599  0.2114E+02  0.1999E+03
      6.731  0.2077E+02  0.2027E+03
      6.862  0.1964E+02  0.2052E+03
      6.993  0.1706E+02  0.2075E+03
      7.125  0.2072E+02  0.2102E+03
      7.256  0.2413E+02  0.2134E+03
      7.388  0.1509E+02  0.2154E+03
      7.519  0.1950E+02  0.2179E+03
      7.650  0.1622E+02  0.2200E+03
      7.782  0.1922E+02  0.2226E+03
      7.913  0.2437E+02  0.2258E+03
      8.045  0.1494E+02  0.2277E+03
      8.176  0.1719E+02  0.2300E+03
      8.308  0.1577E+02  0.2321E+03
      8.439  0.1869E+02  0.2345E+03
      8.570  0.2141E+02  0.2373E+03
      8.702  0.9180E+01  0.2385E+03
      8.833  0.1056E+02  0.2399E+03
      8.965  0.1498E+02  0.2419E+03
      9.096  0.1018E+02  0.2432E+03
      9.228  0.1026E+02  0.2446E+03
      9.359  0.6322E+01  0.2454E+03
      9.490  0.9744E+01  0.2467E+03
      9.622  0.9116E+01  0.2479E+03
      9.753  0.7229E+01  0.2488E+03
      9.885  0.6873E+01  0.2498E+03
     10.016  0.4403E+01  0.2503E+03
     10.147  0.7115E+01  0.2513E+03
     10.279  0.6112E+01  0.2521E+03
     10.410  0.5080E+01  0.2527E+03
     10.542  0.3850E+01  0.2532E+03
     10.673  0.3665E+01  0.2537E+03
     10.805  0.5023E+01  0.2544E+03
     10.936  0.2610E+01  0.2547E+03
     11.067  0.3316E+01  0.2552E+03
     11.199  0.2078E+01  0.2554E+03
     11.330  0.2017E+01  0.2557E+03
     11.462  0.1700E+01  0.2559E+03
     11.593  0.5342E+00  0.2560E+03
     11.725  0.4539E-01  0.2560E+03
     11.856  0.1380E-04  0.2560E+03
     11.987  0.8585E-12  0.2560E+03
     12.119  0.0000E+00  0.2560E+03
     12.250  0.0000E+00  0.2560E+03
     12.382  0.0000E+00  0.2560E+03
     12.513  0.0000E+00  0.2560E+03
     12.644  0.0000E+00  0.2560E+03
     12.776  0.0000E+00  0.2560E+03
     12.907  0.0000E+00  0.2560E+03
     13.039  0.0000E+00  0.2560E+03
     13.170  0.0000E+00  0.2560E+03
     13.302  0.0000E+00  0.2560E+03
     13.433  0.0000E+00  0.2560E+03
     13.564  0.0000E+00  0.2560E+03
     13.696  0.0000E+00  0.2560E+03
     13.827  0.0000E+00  0.2560E+03
     13.959  0.0000E+00  0.2560E+03
     14.090  0.0000E+00  0.2560E+03
     14.222  0.0000E+00  0.2560E+03
     14.353  0.0000E+00  0.2560E+03
     14.484  0.0000E+00  0.2560E+03
     14.616  0.0000E+00  0.2560E+03
     14.747  0.0000E+00  0.2560E+03
     14.879  0.0000E+00  0.2560E+03
     15.010  0.0000E+00  0.2560E+03
     15.141  0.0000E+00  0.2560E+03
     15.273  0.0000E+00  0.2560E+03
     15.404  0.0000E+00  0.2560E+03
     15.536  0.0000E+00  0.2560E+03
     15.667  0.1543E-12  0.2560E+03
     15.799  0.7734E-05  0.2560E+03
     15.930  0.5848E-01  0.2560E+03
     16.061  0.6019E+00  0.2561E+03
     16.193  0.2179E+01  0.2564E+03
     16.324  0.3761E+01  0.2569E+03
     16.456  0.3145E+01  0.2573E+03
     16.587  0.2877E+01  0.2577E+03
     16.718  0.7354E+01  0.2586E+03
     16.850  0.1010E+02  0.2600E+03
     16.981  0.6149E+01  0.2608E+03
     17.113  0.6315E+01  0.2616E+03
     17.244  0.8636E+01  0.2627E+03
     17.376  0.1191E+02  0.2643E+03
     17.507  0.1420E+02  0.2662E+03
     17.638  0.1227E+02  0.2678E+03
     17.770  0.1263E+02  0.2694E+03
     17.901  0.1186E+02  0.2710E+03
     18.033  0.1342E+02  0.2728E+03
     18.164  0.1452E+02  0.2747E+03
     18.296  0.1710E+02  0.2769E+03
     18.427  0.1596E+02  0.2790E+03
     18.558  0.1710E+02  0.2813E+03
     18.690  0.1571E+02  0.2833E+03
     18.821  0.1866E+02  0.2858E+03
     18.953  0.1518E+02  0.2878E+03
     19.084  0.1560E+02  0.2898E+03
     19.215  0.2481E+02  0.2931E+03
     19.347  0.1687E+02  0.2953E+03
     19.478  0.2084E+02  0.2980E+03
     19.610  0.2425E+02  0.3012E+03
     19.741  0.1953E+02  0.3038E+03
     19.873  0.2275E+02  0.3068E+03
     20.004  0.2597E+02  0.3102E+03
     20.135  0.3301E+02  0.3145E+03
     20.267  0.2737E+02  0.3181E+03
     20.398  0.2801E+02  0.3218E+03
     20.530  0.2655E+02  0.3253E+03
     20.661  0.2786E+02  0.3290E+03
     20.793  0.2022E+02  0.3316E+03
     20.924  0.2042E+02  0.3343E+03
     21.055  0.3295E+02  0.3386E+03
     21.187  0.2527E+02  0.3419E+03
     21.318  0.1825E+02  0.3443E+03
     21.450  0.2598E+02  0.3478E+03
     21.581  0.1824E+02  0.3502E+03
     21.712  0.2171E+02  0.3530E+03
     21.844  0.2425E+02  0.3562E+03
     21.975  0.2552E+02  0.3595E+03
     22.107  0.3488E+02  0.3641E+03
     22.238  0.2998E+02  0.3681E+03
     22.370  0.2101E+02  0.3708E+03
     22.501  0.2157E+02  0.3737E+03
     22.632  0.1898E+02  0.3762E+03
     22.764  0.1532E+02  0.3782E+03
     22.895  0.1454E+02  0.3801E+03
     23.027  0.9329E+01  0.3813E+03
     23.158  0.7064E+01  0.3822E+03
     23.290  0.3664E+01  0.3827E+03
     23.421  0.2504E+01  0.3831E+03
     23.552  0.2060E+01  0.3833E+03
     23.684  0.3023E+01  0.3837E+03
     23.815  0.2748E+00  0.3838E+03
     23.947  0.8329E+00  0.3839E+03
     24.078  0.3206E+00  0.3839E+03
     24.209  0.1025E+00  0.3839E+03
     24.341  0.5961E+00  0.3840E+03
     24.472  0.1512E-01  0.3840E+03
     24.604  0.1060E-06  0.3840E+03
     24.735  0.3960E-16  0.3840E+03
     24.867  0.0000E+00  0.3840E+03
     24.998  0.0000E+00  0.3840E+03
     25.129  0.0000E+00  0.3840E+03
     25.261  0.0000E+00  0.3840E+03
     25.392  0.0000E+00  0.3840E+03
     25.524  0.0000E+00  0.3840E+03
     25.655  0.0000E+00  0.3840E+03
     25.787  0.0000E+00  0.3840E+03
     25.918  0.0000E+00  0.3840E+03
     26.049  0.0000E+00  0.3840E+03
