  64   64
1 1
    56.615769299119989    -0.000000000000000    -0.000000000000000
    -0.000000000000000    56.615769299119989    -0.000000000000000
    -0.000000000000000    -0.000000000000000    56.615769299119989
1 2
    -0.204240448950000    -0.000000000000000     0.000000000000000
    -0.000000000000000    -0.102311980090000     0.000000000000000
     0.000000000000000     0.000000000000000    -0.102311980090000
1 3
    -0.102311980090000    -0.000000000000000     0.000000000000000
    -0.000000000000000    -0.204240448950000     0.000000000000000
     0.000000000000000     0.000000000000000    -0.102311980090000
1 4
    -0.167886635140000    -0.000000000000000    -0.000000000000000
    -0.000000000000000    -0.167886635140000    -0.000000000000000
    -0.000000000000000    -0.000000000000000     0.604978936140000
1 5
    -0.102311980090000     0.000000000000000    -0.000000000000000
     0.000000000000000    -0.102311980090000    -0.000000000000000
    -0.000000000000000    -0.000000000000000    -0.204240448950000
1 6
    -0.167886635140000     0.000000000000000    -0.000000000000000
     0.000000000000000     0.604978936140000     0.000000000000000
    -0.000000000000000     0.000000000000000    -0.167886635140000
1 7
     0.604978936140000     0.000000000000000     0.000000000000000
     0.000000000000000    -0.167886635140000    -0.000000000000000
     0.000000000000000    -0.000000000000000    -0.167886635140000
1 8
    -0.063241278080000     0.000000000000000     0.000000000000000
     0.000000000000000    -0.063241278080000     0.000000000000000
     0.000000000000000     0.000000000000000    -0.063241278080000
1 9
     0.171663133760000     0.099150324560000    -0.054932788940000
     0.099150324560000     0.069948220480000    -0.099150324560000
    -0.054932788940000    -0.099150324560000     0.171663133760000
1 10
    -0.107265917040000     0.145249503440000     0.259584614640000
     0.145249503440000    -0.107265917040000    -0.259584614640000
     0.259584614640000    -0.259584614640000    -0.366736066850000
1 11
   -11.703942868739999     4.548129220260000     4.548129220260000
     4.548129220260000   -11.703942868739999    -4.548129220260000
     4.548129220260000    -4.548129220260000   -11.703942868739999
1 12
     0.069948220480000     0.099150324560000     0.099150324560000
     0.099150324560000     0.171663133760000     0.054932788940000
     0.099150324560000     0.054932788940000     0.171663133760000
1 13
    -0.366736066850000     0.259584614640000     0.259584614640000
     0.259584614640000    -0.107265917040000    -0.145249503440000
     0.259584614640000    -0.145249503440000    -0.107265917040000
1 14
     0.034598045830000     0.029988704470000     0.029988704470000
     0.029988704470000     0.034598045830000    -0.029988704470000
     0.029988704470000    -0.029988704470000     0.034598045830000
1 15
     0.171663133760000    -0.054932788940000     0.099150324560000
    -0.054932788940000     0.171663133760000    -0.099150324560000
     0.099150324560000    -0.099150324560000     0.069948220480000
1 16
    -0.107265917040000     0.259584614640000     0.145249503440000
     0.259584614640000    -0.366736066850000    -0.259584614640000
     0.145249503440000    -0.259584614640000    -0.107265917040000
1 17
     1.569249521330000    -0.871578935660000     0.871578935660000
     0.871578935660000    -1.863277239900000     1.952791859820000
    -0.871578935660000     1.952791859820000    -1.863277239900000
1 18
     0.081097791560000    -0.048079672670000     0.048079672670000
     0.048079672670000    -0.094835853250000    -0.069774421310000
    -0.048079672670000    -0.069774421310000    -0.094835853250000
1 19
     1.569249521330000    -0.871578935660000    -0.871578935660000
     0.871578935660000    -1.863277239900000    -1.952791859820000
     0.871578935660000    -1.952791859820000    -1.863277239900000
1 20
     0.081097791560000    -0.048079672670000    -0.048079672670000
     0.048079672670000    -0.094835853250000     0.069774421310000
     0.048079672670000     0.069774421310000    -0.094835853250000
1 21
     1.569249521330000     0.871578935660000     0.871578935660000
    -0.871578935660000    -1.863277239900000    -1.952791859820000
    -0.871578935660000    -1.952791859820000    -1.863277239900000
1 22
     0.081097791560000     0.048079672670000     0.048079672670000
    -0.048079672670000    -0.094835853250000     0.069774421310000
    -0.048079672670000     0.069774421310000    -0.094835853250000
1 23
     1.569249521330000     0.871578935660000    -0.871578935660000
    -0.871578935660000    -1.863277239900000     1.952791859820000
     0.871578935660000     1.952791859820000    -1.863277239900000
1 24
     0.081097791560000     0.048079672670000    -0.048079672670000
    -0.048079672670000    -0.094835853250000    -0.069774421310000
     0.048079672670000    -0.069774421310000    -0.094835853250000
1 25
   -11.703942868739999    -4.548129220260000    -4.548129220260000
    -4.548129220260000   -11.703942868739999    -4.548129220260000
    -4.548129220260000    -4.548129220260000   -11.703942868739999
1 26
     0.069948220480000    -0.099150324560000    -0.099150324560000
    -0.099150324560000     0.171663133760000     0.054932788940000
    -0.099150324560000     0.054932788940000     0.171663133760000
1 27
     0.171663133760000    -0.099150324560000     0.054932788940000
    -0.099150324560000     0.069948220480000    -0.099150324560000
     0.054932788940000    -0.099150324560000     0.171663133760000
1 28
    -0.107265917040000    -0.145249503440000    -0.259584614640000
    -0.145249503440000    -0.107265917040000    -0.259584614640000
    -0.259584614640000    -0.259584614640000    -0.366736066850000
1 29
     0.171663133760000     0.054932788940000    -0.099150324560000
     0.054932788940000     0.171663133760000    -0.099150324560000
    -0.099150324560000    -0.099150324560000     0.069948220480000
1 30
    -0.107265917040000    -0.259584614640000    -0.145249503440000
    -0.259584614640000    -0.366736066850000    -0.259584614640000
    -0.145249503440000    -0.259584614640000    -0.107265917040000
1 31
    -0.366736066850000    -0.259584614640000    -0.259584614640000
    -0.259584614640000    -0.107265917040000    -0.145249503440000
    -0.259584614640000    -0.145249503440000    -0.107265917040000
1 32
     0.034598045830000    -0.029988704470000    -0.029988704470000
    -0.029988704470000     0.034598045830000    -0.029988704470000
    -0.029988704470000    -0.029988704470000     0.034598045830000
1 33
    -1.863277239900000     0.871578935660000    -1.952791859820000
    -0.871578935660000     1.569249521330000    -0.871578935660000
    -1.952791859820000     0.871578935660000    -1.863277239900000
1 34
    -1.863277239900000     0.871578935660000     1.952791859820000
    -0.871578935660000     1.569249521330000     0.871578935660000
     1.952791859820000    -0.871578935660000    -1.863277239900000
1 35
    -0.094835853250000     0.048079672670000     0.069774421310000
    -0.048079672670000     0.081097791560000    -0.048079672670000
     0.069774421310000     0.048079672670000    -0.094835853250000
1 36
    -0.094835853250000     0.048079672670000    -0.069774421310000
    -0.048079672670000     0.081097791560000     0.048079672670000
    -0.069774421310000    -0.048079672670000    -0.094835853250000
1 37
    -1.863277239900000    -0.871578935660000     1.952791859820000
     0.871578935660000     1.569249521330000    -0.871578935660000
     1.952791859820000     0.871578935660000    -1.863277239900000
1 38
    -1.863277239900000    -0.871578935660000    -1.952791859820000
     0.871578935660000     1.569249521330000     0.871578935660000
    -1.952791859820000    -0.871578935660000    -1.863277239900000
1 39
    -0.094835853250000    -0.048079672670000    -0.069774421310000
     0.048079672670000     0.081097791560000    -0.048079672670000
    -0.069774421310000     0.048079672670000    -0.094835853250000
1 40
    -0.094835853250000    -0.048079672670000     0.069774421310000
     0.048079672670000     0.081097791560000     0.048079672670000
     0.069774421310000    -0.048079672670000    -0.094835853250000
1 41
     0.171663133760000    -0.099150324560000    -0.054932788940000
    -0.099150324560000     0.069948220480000     0.099150324560000
    -0.054932788940000     0.099150324560000     0.171663133760000
1 42
    -0.107265917040000    -0.145249503440000     0.259584614640000
    -0.145249503440000    -0.107265917040000     0.259584614640000
     0.259584614640000     0.259584614640000    -0.366736066850000
1 43
   -11.703942868739999    -4.548129220260000     4.548129220260000
    -4.548129220260000   -11.703942868739999     4.548129220260000
     4.548129220260000     4.548129220260000   -11.703942868739999
1 44
     0.069948220480000    -0.099150324560000     0.099150324560000
    -0.099150324560000     0.171663133760000    -0.054932788940000
     0.099150324560000    -0.054932788940000     0.171663133760000
1 45
    -0.366736066850000    -0.259584614640000     0.259584614640000
    -0.259584614640000    -0.107265917040000     0.145249503440000
     0.259584614640000     0.145249503440000    -0.107265917040000
1 46
     0.034598045830000    -0.029988704470000     0.029988704470000
    -0.029988704470000     0.034598045830000     0.029988704470000
     0.029988704470000     0.029988704470000     0.034598045830000
1 47
     0.171663133760000     0.054932788940000     0.099150324560000
     0.054932788940000     0.171663133760000     0.099150324560000
     0.099150324560000     0.099150324560000     0.069948220480000
1 48
    -0.107265917040000    -0.259584614640000     0.145249503440000
    -0.259584614640000    -0.366736066850000     0.259584614640000
     0.145249503440000     0.259584614640000    -0.107265917040000
1 49
    -1.863277239900000     1.952791859820000    -0.871578935660000
     1.952791859820000    -1.863277239900000     0.871578935660000
     0.871578935660000    -0.871578935660000     1.569249521330000
1 50
    -1.863277239900000    -1.952791859820000    -0.871578935660000
    -1.952791859820000    -1.863277239900000    -0.871578935660000
     0.871578935660000     0.871578935660000     1.569249521330000
1 51
    -1.863277239900000    -1.952791859820000     0.871578935660000
    -1.952791859820000    -1.863277239900000     0.871578935660000
    -0.871578935660000    -0.871578935660000     1.569249521330000
1 52
    -1.863277239900000     1.952791859820000     0.871578935660000
     1.952791859820000    -1.863277239900000    -0.871578935660000
    -0.871578935660000     0.871578935660000     1.569249521330000
1 53
    -0.094835853250000    -0.069774421310000    -0.048079672670000
    -0.069774421310000    -0.094835853250000     0.048079672670000
     0.048079672670000    -0.048079672670000     0.081097791560000
1 54
    -0.094835853250000     0.069774421310000    -0.048079672670000
     0.069774421310000    -0.094835853250000    -0.048079672670000
     0.048079672670000     0.048079672670000     0.081097791560000
1 55
    -0.094835853250000     0.069774421310000     0.048079672670000
     0.069774421310000    -0.094835853250000     0.048079672670000
    -0.048079672670000    -0.048079672670000     0.081097791560000
1 56
    -0.094835853250000    -0.069774421310000     0.048079672670000
    -0.069774421310000    -0.094835853250000    -0.048079672670000
    -0.048079672670000     0.048079672670000     0.081097791560000
1 57
   -11.703942868739999     4.548129220260000    -4.548129220260000
     4.548129220260000   -11.703942868739999     4.548129220260000
    -4.548129220260000     4.548129220260000   -11.703942868739999
1 58
     0.069948220480000     0.099150324560000    -0.099150324560000
     0.099150324560000     0.171663133760000    -0.054932788940000
    -0.099150324560000    -0.054932788940000     0.171663133760000
1 59
     0.171663133760000     0.099150324560000     0.054932788940000
     0.099150324560000     0.069948220480000     0.099150324560000
     0.054932788940000     0.099150324560000     0.171663133760000
1 60
    -0.107265917040000     0.145249503440000    -0.259584614640000
     0.145249503440000    -0.107265917040000     0.259584614640000
    -0.259584614640000     0.259584614640000    -0.366736066850000
1 61
     0.171663133760000    -0.054932788940000    -0.099150324560000
    -0.054932788940000     0.171663133760000     0.099150324560000
    -0.099150324560000     0.099150324560000     0.069948220480000
1 62
    -0.107265917040000     0.259584614640000    -0.145249503440000
     0.259584614640000    -0.366736066850000     0.259584614640000
    -0.145249503440000     0.259584614640000    -0.107265917040000
1 63
    -0.366736066850000     0.259584614640000    -0.259584614640000
     0.259584614640000    -0.107265917040000     0.145249503440000
    -0.259584614640000     0.145249503440000    -0.107265917040000
1 64
     0.034598045830000     0.029988704470000    -0.029988704470000
     0.029988704470000     0.034598045830000     0.029988704470000
    -0.029988704470000     0.029988704470000     0.034598045830000
2 1
    -0.204240448950000    -0.000000000000000     0.000000000000000
    -0.000000000000000    -0.102311980090000     0.000000000000000
     0.000000000000000     0.000000000000000    -0.102311980090000
2 2
    56.615769299119989    -0.000000000000000    -0.000000000000000
    -0.000000000000000    56.615769299119989    -0.000000000000000
    -0.000000000000000    -0.000000000000000    56.615769299119989
2 3
    -0.167886635140000    -0.000000000000000    -0.000000000000000
    -0.000000000000000    -0.167886635140000    -0.000000000000000
    -0.000000000000000    -0.000000000000000     0.604978936140000
2 4
    -0.102311980090000    -0.000000000000000     0.000000000000000
    -0.000000000000000    -0.204240448950000     0.000000000000000
     0.000000000000000     0.000000000000000    -0.102311980090000
2 5
    -0.167886635140000     0.000000000000000    -0.000000000000000
     0.000000000000000     0.604978936140000     0.000000000000000
    -0.000000000000000     0.000000000000000    -0.167886635140000
2 6
    -0.102311980090000     0.000000000000000    -0.000000000000000
     0.000000000000000    -0.102311980090000    -0.000000000000000
    -0.000000000000000    -0.000000000000000    -0.204240448950000
2 7
    -0.063241278080000     0.000000000000000     0.000000000000000
     0.000000000000000    -0.063241278080000     0.000000000000000
     0.000000000000000     0.000000000000000    -0.063241278080000
2 8
     0.604978936140000     0.000000000000000     0.000000000000000
     0.000000000000000    -0.167886635140000    -0.000000000000000
     0.000000000000000    -0.000000000000000    -0.167886635140000
2 9
    -0.107265917040000     0.145249503440000     0.259584614640000
     0.145249503440000    -0.107265917040000    -0.259584614640000
     0.259584614640000    -0.259584614640000    -0.366736066850000
2 10
     0.171663133760000     0.099150324560000    -0.054932788940000
     0.099150324560000     0.069948220480000    -0.099150324560000
    -0.054932788940000    -0.099150324560000     0.171663133760000
2 11
     0.069948220480000     0.099150324560000     0.099150324560000
     0.099150324560000     0.171663133760000     0.054932788940000
     0.099150324560000     0.054932788940000     0.171663133760000
2 12
   -11.703942868739999     4.548129220260000     4.548129220260000
     4.548129220260000   -11.703942868739999    -4.548129220260000
     4.548129220260000    -4.548129220260000   -11.703942868739999
2 13
     0.034598045830000     0.029988704470000     0.029988704470000
     0.029988704470000     0.034598045830000    -0.029988704470000
     0.029988704470000    -0.029988704470000     0.034598045830000
2 14
    -0.366736066850000     0.259584614640000     0.259584614640000
     0.259584614640000    -0.107265917040000    -0.145249503440000
     0.259584614640000    -0.145249503440000    -0.107265917040000
2 15
    -0.107265917040000     0.259584614640000     0.145249503440000
     0.259584614640000    -0.366736066850000    -0.259584614640000
     0.145249503440000    -0.259584614640000    -0.107265917040000
2 16
     0.171663133760000    -0.054932788940000     0.099150324560000
    -0.054932788940000     0.171663133760000    -0.099150324560000
     0.099150324560000    -0.099150324560000     0.069948220480000
2 17
     0.081097791560000    -0.048079672670000     0.048079672670000
     0.048079672670000    -0.094835853250000    -0.069774421310000
    -0.048079672670000    -0.069774421310000    -0.094835853250000
2 18
     1.569249521330000    -0.871578935660000     0.871578935660000
     0.871578935660000    -1.863277239900000     1.952791859820000
    -0.871578935660000     1.952791859820000    -1.863277239900000
2 19
     0.081097791560000    -0.048079672670000    -0.048079672670000
     0.048079672670000    -0.094835853250000     0.069774421310000
     0.048079672670000     0.069774421310000    -0.094835853250000
2 20
     1.569249521330000    -0.871578935660000    -0.871578935660000
     0.871578935660000    -1.863277239900000    -1.952791859820000
     0.871578935660000    -1.952791859820000    -1.863277239900000
2 21
     0.081097791560000     0.048079672670000     0.048079672670000
    -0.048079672670000    -0.094835853250000     0.069774421310000
    -0.048079672670000     0.069774421310000    -0.094835853250000
2 22
     1.569249521330000     0.871578935660000     0.871578935660000
    -0.871578935660000    -1.863277239900000    -1.952791859820000
    -0.871578935660000    -1.952791859820000    -1.863277239900000
2 23
     0.081097791560000     0.048079672670000    -0.048079672670000
    -0.048079672670000    -0.094835853250000    -0.069774421310000
     0.048079672670000    -0.069774421310000    -0.094835853250000
2 24
     1.569249521330000     0.871578935660000    -0.871578935660000
    -0.871578935660000    -1.863277239900000     1.952791859820000
     0.871578935660000     1.952791859820000    -1.863277239900000
2 25
     0.069948220480000    -0.099150324560000    -0.099150324560000
    -0.099150324560000     0.171663133760000     0.054932788940000
    -0.099150324560000     0.054932788940000     0.171663133760000
2 26
   -11.703942868739999    -4.548129220260000    -4.548129220260000
    -4.548129220260000   -11.703942868739999    -4.548129220260000
    -4.548129220260000    -4.548129220260000   -11.703942868739999
2 27
    -0.107265917040000    -0.145249503440000    -0.259584614640000
    -0.145249503440000    -0.107265917040000    -0.259584614640000
    -0.259584614640000    -0.259584614640000    -0.366736066850000
2 28
     0.171663133760000    -0.099150324560000     0.054932788940000
    -0.099150324560000     0.069948220480000    -0.099150324560000
     0.054932788940000    -0.099150324560000     0.171663133760000
2 29
    -0.107265917040000    -0.259584614640000    -0.145249503440000
    -0.259584614640000    -0.366736066850000    -0.259584614640000
    -0.145249503440000    -0.259584614640000    -0.107265917040000
2 30
     0.171663133760000     0.054932788940000    -0.099150324560000
     0.054932788940000     0.171663133760000    -0.099150324560000
    -0.099150324560000    -0.099150324560000     0.069948220480000
2 31
     0.034598045830000    -0.029988704470000    -0.029988704470000
    -0.029988704470000     0.034598045830000    -0.029988704470000
    -0.029988704470000    -0.029988704470000     0.034598045830000
2 32
    -0.366736066850000    -0.259584614640000    -0.259584614640000
    -0.259584614640000    -0.107265917040000    -0.145249503440000
    -0.259584614640000    -0.145249503440000    -0.107265917040000
2 33
    -1.863277239900000     0.871578935660000     1.952791859820000
    -0.871578935660000     1.569249521330000     0.871578935660000
     1.952791859820000    -0.871578935660000    -1.863277239900000
2 34
    -1.863277239900000     0.871578935660000    -1.952791859820000
    -0.871578935660000     1.569249521330000    -0.871578935660000
    -1.952791859820000     0.871578935660000    -1.863277239900000
2 35
    -0.094835853250000     0.048079672670000    -0.069774421310000
    -0.048079672670000     0.081097791560000     0.048079672670000
    -0.069774421310000    -0.048079672670000    -0.094835853250000
2 36
    -0.094835853250000     0.048079672670000     0.069774421310000
    -0.048079672670000     0.081097791560000    -0.048079672670000
     0.069774421310000     0.048079672670000    -0.094835853250000
2 37
    -1.863277239900000    -0.871578935660000    -1.952791859820000
     0.871578935660000     1.569249521330000     0.871578935660000
    -1.952791859820000    -0.871578935660000    -1.863277239900000
2 38
    -1.863277239900000    -0.871578935660000     1.952791859820000
     0.871578935660000     1.569249521330000    -0.871578935660000
     1.952791859820000     0.871578935660000    -1.863277239900000
2 39
    -0.094835853250000    -0.048079672670000     0.069774421310000
     0.048079672670000     0.081097791560000     0.048079672670000
     0.069774421310000    -0.048079672670000    -0.094835853250000
2 40
    -0.094835853250000    -0.048079672670000    -0.069774421310000
     0.048079672670000     0.081097791560000    -0.048079672670000
    -0.069774421310000     0.048079672670000    -0.094835853250000
2 41
    -0.107265917040000    -0.145249503440000     0.259584614640000
    -0.145249503440000    -0.107265917040000     0.259584614640000
     0.259584614640000     0.259584614640000    -0.366736066850000
2 42
     0.171663133760000    -0.099150324560000    -0.054932788940000
    -0.099150324560000     0.069948220480000     0.099150324560000
    -0.054932788940000     0.099150324560000     0.171663133760000
2 43
     0.069948220480000    -0.099150324560000     0.099150324560000
    -0.099150324560000     0.171663133760000    -0.054932788940000
     0.099150324560000    -0.054932788940000     0.171663133760000
2 44
   -11.703942868739999    -4.548129220260000     4.548129220260000
    -4.548129220260000   -11.703942868739999     4.548129220260000
     4.548129220260000     4.548129220260000   -11.703942868739999
2 45
     0.034598045830000    -0.029988704470000     0.029988704470000
    -0.029988704470000     0.034598045830000     0.029988704470000
     0.029988704470000     0.029988704470000     0.034598045830000
2 46
    -0.366736066850000    -0.259584614640000     0.259584614640000
    -0.259584614640000    -0.107265917040000     0.145249503440000
     0.259584614640000     0.145249503440000    -0.107265917040000
2 47
    -0.107265917040000    -0.259584614640000     0.145249503440000
    -0.259584614640000    -0.366736066850000     0.259584614640000
     0.145249503440000     0.259584614640000    -0.107265917040000
2 48
     0.171663133760000     0.054932788940000     0.099150324560000
     0.054932788940000     0.171663133760000     0.099150324560000
     0.099150324560000     0.099150324560000     0.069948220480000
2 49
    -1.863277239900000    -1.952791859820000    -0.871578935660000
    -1.952791859820000    -1.863277239900000    -0.871578935660000
     0.871578935660000     0.871578935660000     1.569249521330000
2 50
    -1.863277239900000     1.952791859820000    -0.871578935660000
     1.952791859820000    -1.863277239900000     0.871578935660000
     0.871578935660000    -0.871578935660000     1.569249521330000
2 51
    -1.863277239900000     1.952791859820000     0.871578935660000
     1.952791859820000    -1.863277239900000    -0.871578935660000
    -0.871578935660000     0.871578935660000     1.569249521330000
2 52
    -1.863277239900000    -1.952791859820000     0.871578935660000
    -1.952791859820000    -1.863277239900000     0.871578935660000
    -0.871578935660000    -0.871578935660000     1.569249521330000
2 53
    -0.094835853250000     0.069774421310000    -0.048079672670000
     0.069774421310000    -0.094835853250000    -0.048079672670000
     0.048079672670000     0.048079672670000     0.081097791560000
2 54
    -0.094835853250000    -0.069774421310000    -0.048079672670000
    -0.069774421310000    -0.094835853250000     0.048079672670000
     0.048079672670000    -0.048079672670000     0.081097791560000
2 55
    -0.094835853250000    -0.069774421310000     0.048079672670000
    -0.069774421310000    -0.094835853250000    -0.048079672670000
    -0.048079672670000     0.048079672670000     0.081097791560000
2 56
    -0.094835853250000     0.069774421310000     0.048079672670000
     0.069774421310000    -0.094835853250000     0.048079672670000
    -0.048079672670000    -0.048079672670000     0.081097791560000
2 57
     0.069948220480000     0.099150324560000    -0.099150324560000
     0.099150324560000     0.171663133760000    -0.054932788940000
    -0.099150324560000    -0.054932788940000     0.171663133760000
2 58
   -11.703942868739999     4.548129220260000    -4.548129220260000
     4.548129220260000   -11.703942868739999     4.548129220260000
    -4.548129220260000     4.548129220260000   -11.703942868739999
2 59
    -0.107265917040000     0.145249503440000    -0.259584614640000
     0.145249503440000    -0.107265917040000     0.259584614640000
    -0.259584614640000     0.259584614640000    -0.366736066850000
2 60
     0.171663133760000     0.099150324560000     0.054932788940000
     0.099150324560000     0.069948220480000     0.099150324560000
     0.054932788940000     0.099150324560000     0.171663133760000
2 61
    -0.107265917040000     0.259584614640000    -0.145249503440000
     0.259584614640000    -0.366736066850000     0.259584614640000
    -0.145249503440000     0.259584614640000    -0.107265917040000
2 62
     0.171663133760000    -0.054932788940000    -0.099150324560000
    -0.054932788940000     0.171663133760000     0.099150324560000
    -0.099150324560000     0.099150324560000     0.069948220480000
2 63
     0.034598045830000     0.029988704470000    -0.029988704470000
     0.029988704470000     0.034598045830000     0.029988704470000
    -0.029988704470000     0.029988704470000     0.034598045830000
2 64
    -0.366736066850000     0.259584614640000    -0.259584614640000
     0.259584614640000    -0.107265917040000     0.145249503440000
    -0.259584614640000     0.145249503440000    -0.107265917040000
3 1
    -0.102311980090000    -0.000000000000000     0.000000000000000
    -0.000000000000000    -0.204240448950000     0.000000000000000
     0.000000000000000     0.000000000000000    -0.102311980090000
3 2
    -0.167886635140000    -0.000000000000000    -0.000000000000000
    -0.000000000000000    -0.167886635140000    -0.000000000000000
    -0.000000000000000    -0.000000000000000     0.604978936140000
3 3
    56.615769299119989    -0.000000000000000    -0.000000000000000
    -0.000000000000000    56.615769299119989    -0.000000000000000
    -0.000000000000000    -0.000000000000000    56.615769299119989
3 4
    -0.204240448950000    -0.000000000000000     0.000000000000000
    -0.000000000000000    -0.102311980090000     0.000000000000000
     0.000000000000000     0.000000000000000    -0.102311980090000
3 5
     0.604978936140000     0.000000000000000     0.000000000000000
     0.000000000000000    -0.167886635140000    -0.000000000000000
     0.000000000000000    -0.000000000000000    -0.167886635140000
3 6
    -0.063241278080000     0.000000000000000     0.000000000000000
     0.000000000000000    -0.063241278080000     0.000000000000000
     0.000000000000000     0.000000000000000    -0.063241278080000
3 7
    -0.102311980090000     0.000000000000000    -0.000000000000000
     0.000000000000000    -0.102311980090000    -0.000000000000000
    -0.000000000000000    -0.000000000000000    -0.204240448950000
3 8
    -0.167886635140000     0.000000000000000    -0.000000000000000
     0.000000000000000     0.604978936140000     0.000000000000000
    -0.000000000000000     0.000000000000000    -0.167886635140000
3 9
   -11.703942868739999     4.548129220260000     4.548129220260000
     4.548129220260000   -11.703942868739999    -4.548129220260000
     4.548129220260000    -4.548129220260000   -11.703942868739999
3 10
     0.069948220480000     0.099150324560000     0.099150324560000
     0.099150324560000     0.171663133760000     0.054932788940000
     0.099150324560000     0.054932788940000     0.171663133760000
3 11
     0.171663133760000     0.099150324560000    -0.054932788940000
     0.099150324560000     0.069948220480000    -0.099150324560000
    -0.054932788940000    -0.099150324560000     0.171663133760000
3 12
    -0.107265917040000     0.145249503440000     0.259584614640000
     0.145249503440000    -0.107265917040000    -0.259584614640000
     0.259584614640000    -0.259584614640000    -0.366736066850000
3 13
     0.171663133760000    -0.054932788940000     0.099150324560000
    -0.054932788940000     0.171663133760000    -0.099150324560000
     0.099150324560000    -0.099150324560000     0.069948220480000
3 14
    -0.107265917040000     0.259584614640000     0.145249503440000
     0.259584614640000    -0.366736066850000    -0.259584614640000
     0.145249503440000    -0.259584614640000    -0.107265917040000
3 15
    -0.366736066850000     0.259584614640000     0.259584614640000
     0.259584614640000    -0.107265917040000    -0.145249503440000
     0.259584614640000    -0.145249503440000    -0.107265917040000
3 16
     0.034598045830000     0.029988704470000     0.029988704470000
     0.029988704470000     0.034598045830000    -0.029988704470000
     0.029988704470000    -0.029988704470000     0.034598045830000
3 17
     1.569249521330000    -0.871578935660000    -0.871578935660000
     0.871578935660000    -1.863277239900000    -1.952791859820000
     0.871578935660000    -1.952791859820000    -1.863277239900000
3 18
     0.081097791560000    -0.048079672670000    -0.048079672670000
     0.048079672670000    -0.094835853250000     0.069774421310000