mesh: [    48,    48,    48 ]
nqpoint: 2600   
reciprocal_lattice:
- [   0.29173384,   0.00000000,   0.00000000 ] # a*
- [   0.00000000,   0.29173384,   0.00000000 ] # b*
- [   0.00000000,   0.00000000,   0.29173384 ] # c*
natom:   8      
lattice:
- [     3.427782000000000,     0.000000000000000,     0.000000000000000 ] # a
- [     0.000000000000000,     3.427782000000000,     0.000000000000000 ] # b
- [     0.000000000000000,     0.000000000000000,     3.427782000000000 ] # c
points:
- symbol: C  # 1
  coordinates: [  0.250000000000000,  0.750000000000000,  0.250000000000000 ]
  mass: 12.010700
- symbol: C  # 2
  coordinates: [  0.000000000000000,  0.000000000000000,  0.500000000000000 ]
  mass: 12.010700
- symbol: C  # 3
  coordinates: [  0.250000000000000,  0.250000000000000,  0.750000000000000 ]
  mass: 12.010700
- symbol: C  # 4
  coordinates: [  0.000000000000000,  0.500000000000000,  0.000000000000000 ]
  mass: 12.010700
- symbol: C  # 5
  coordinates: [  0.750000000000000,  0.750000000000000,  0.750000000000000 ]
  mass: 12.010700
- symbol: C  # 6
  coordinates: [  0.500000000000000,  0.000000000000000,  0.000000000000000 ]
  mass: 12.010700
- symbol: C  # 7
  coordinates: [  0.750000000000000,  0.250000000000000,  0.250000000000000 ]
  mass: 12.010700
- symbol: C  # 8
  coordinates: [  0.500000000000000,  0.500000000000000,  0.500000000000000 ]
  mass: 12.010700

phonon:
- q-position: [    0.0104167,    0.0104167,    0.0104167 ]
  distance_from_gamma:  0.005263519
  weight: 8    
  band:
  - # 1
    frequency:     0.6339069293
  - # 2
    frequency:     0.6339069293
  - # 3
    frequency:     1.0574622248
  - # 4
    frequency:    23.9798503475
  - # 5
    frequency:    23.9798503475
  - # 6
    frequency:    23.9798503475
  - # 7
    frequency:    23.9971118561
  - # 8
    frequency:    23.9971118561
  - # 9
    frequency:    23.9971118561
  - # 10
    frequency:    38.0895484514
  - # 11
    frequency:    38.0895484514
  - # 12
    frequency:    38.0895484514
  - # 13
    frequency:    38.1069667719
  - # 14
    frequency:    38.1069667719
  - # 15
    frequency:    38.1069667719
  - # 16
    frequency:    39.8239651628
  - # 17
    frequency:    39.8239651628
  - # 18
    frequency:    39.8239651628
  - # 19
    frequency:    40.2014852727
  - # 20
    frequency:    40.2014852727
  - # 21
    frequency:    40.2014852727
  - # 22
    frequency:    43.8940521758
  - # 23
    frequency:    43.8940521758
  - # 24
    frequency:    43.8971066551

- q-position: [    0.0312500,    0.0104167,    0.0104167 ]
  distance_from_gamma:  0.010078872
  weight: 24   
  band:
  - # 1
    frequency:     1.2416902043
  - # 2
    frequency:     1.2951014675
  - # 3
    frequency:     1.9550734368
  - # 4
    frequency:    23.9562334906
  - # 5
    frequency:    23.9735031096
  - # 6
    frequency:    23.9941814766
  - # 7
    frequency:    23.9941814766
  - # 8
    frequency:    24.0458600976
  - # 9
    frequency:    24.0458600976
  - # 10
    frequency:    38.0404484226
  - # 11
    frequency:    38.0404484226
  - # 12
    frequency:    38.0920515314
  - # 13
    frequency:    38.0920515314
  - # 14
    frequency:    38.1000017787
  - # 15
    frequency:    38.1199896078
  - # 16
    frequency:    39.4294992605
  - # 17
    frequency:    39.8361462462
  - # 18
    frequency:    39.8361462462
  - # 19
    frequency:    40.2091364709
  - # 20
    frequency:    40.2091364709
  - # 21
    frequency:    40.5596584396
  - # 22
    frequency:    43.8828159447
  - # 23
    frequency:    43.8836434938
  - # 24
    frequency:    43.9002872507

- q-position: [    0.0520833,    0.0104167,    0.0104167 ]
  distance_from_gamma:  0.015790557
  weight: 24   
  band:
  - # 1
    frequency:     2.0110693202
  - # 2
    frequency:     2.0548621785
  - # 3
    frequency:     2.9987730351
  - # 4
    frequency:    23.9089743762
  - # 5
    frequency:    23.9262590567
  - # 6
    frequency:    24.0399090605
  - # 7
    frequency:    24.0399090605
  - # 8
    frequency:    24.1256911062
  - # 9
    frequency:    24.1256911062
  - # 10
    frequency:    37.9612223809
  - # 11
    frequency:    37.9612223809
  - # 12
    frequency:    38.0455087629
  - # 13
    frequency:    38.0455087629
  - # 14
    frequency:    38.1184719305
  - # 15
    frequency:    38.1459892317
  - # 16
    frequency:    39.0195629855
  - # 17
    frequency:    39.8591627830
  - # 18
    frequency:    39.8591627830
  - # 19
    frequency:    40.2237354254
  - # 20
    frequency:    40.2237354254
  - # 21
    frequency:    40.8994303866
  - # 22
    frequency:    43.8603750888
  - # 23
    frequency:    43.8612774110
  - # 24
    frequency:    43.9081642579

- q-position: [    0.0729167,    0.0104167,    0.0104167 ]
  distance_from_gamma:  0.021702045
  weight: 24   
  band:
  - # 1
    frequency:     2.7995004003
  - # 2
    frequency:     2.8330049596
  - # 3
    frequency:     4.0830679076
  - # 4
    frequency:    23.8380246472
  - # 5
    frequency:    23.8553290816
  - # 6
    frequency:    24.1165379351
  - # 7
    frequency:    24.1165379351
  - # 8
    frequency:    24.2359093327
  - # 9
    frequency:    24.2359093327
  - # 10
    frequency:    37.8541897652
  - # 11
    frequency:    37.8541897652
  - # 12
    frequency:    37.9689343762
  - # 13
    frequency:    37.9689343762
  - # 14
    frequency:    38.1308462843
  - # 15
    frequency:    38.1848722563
  - # 16
    frequency:    38.6082972303
  - # 17
    frequency:    39.8907552090
  - # 18
    frequency:    39.8907552090
  - # 19
    frequency:    40.2440538088
  - # 20
    frequency:    40.2440538088
  - # 21
    frequency:    41.2207410611
  - # 22
    frequency:    43.8267929564
  - # 23
    frequency:    43.8277109789
  - # 24
    frequency:    43.9199155470

- q-position: [    0.0937500,    0.0104167,    0.0104167 ]
  distance_from_gamma:  0.027685643
  weight: 24   
  band:
  - # 1
    frequency:     3.5894263456
  - # 2
    frequency:     3.6153250143
  - # 3
    frequency:     5.1816827669
  - # 4
    frequency:    23.7433176774
  - # 5
    frequency:    23.7606433144
  - # 6
    frequency:    24.2232803316
  - # 7
    frequency:    24.2232803316
  - # 8
    frequency:    24.3755395088
  - # 9
    frequency:    24.3755395088
  - # 10
    frequency:    37.7219018582
  - # 11
    frequency:    37.7219018582
  - # 12
    frequency:    37.8644890308
  - # 13
    frequency:    37.8644890308
  - # 14
    frequency:    38.0012324291
  - # 15
    frequency:    38.2364955457
  - # 16
    frequency:    38.3313742472
  - # 17
    frequency:    39.9283435081
  - # 18
    frequency:    39.9283435081
  - # 19
    frequency:    40.2686064908
  - # 20
    frequency:    40.2686064908
  - # 21
    frequency:    41.5237604649
  - # 22
    frequency:    43.7821649068
  - # 23
    frequency:    43.7830845252
  - # 24
    frequency:    43.9353049787

- q-position: [    0.1145833,    0.0104167,    0.0104167 ]
  distance_from_gamma:  0.033702967
  weight: 24   
  band:
  - # 1
    frequency:     4.3767695186
  - # 2
    frequency:     4.3970173785
  - # 3
    frequency:     6.2846401101
  - # 4
    frequency:    23.6247751242
  - # 5
    frequency:    23.6421193444
  - # 6
    frequency:    24.3590663387
  - # 7
    frequency:    24.3590663387
  - # 8
    frequency:    24.5433412764
  - # 9
    frequency:    24.5433412764
  - # 10
    frequency:    37.5668187901
  - # 11
    frequency:    37.5668187901
  - # 12
    frequency:    37.5864553576
  - # 13
    frequency:    37.7345037669
  - # 14
    frequency:    37.7345037669
  - # 15
    frequency:    38.3006630072
  - # 16
    frequency:    38.3316607513
  - # 17
    frequency:    39.9695024955
  - # 18
    frequency:    39.9695024955
  - # 19
    frequency:    40.2959010765
  - # 20
    frequency:    40.2959010765
  - # 21
    frequency:    41.8087258324
  - # 22
    frequency:    43.7266187044
  - # 23
    frequency:    43.7275341051
  - # 24
    frequency:    43.9540720797

- q-position: [    0.1354167,    0.0104167,    0.0104167 ]
  distance_from_gamma:  0.039738697
  weight: 24   
  band:
  - # 1
    frequency:     5.1597682961
  - # 2
    frequency:     5.1756471080
  - # 3
    frequency:     7.3870418210
  - # 4
    frequency:    23.4823148395
  - # 5
    frequency:    23.4996703244
  - # 6
    frequency:    24.5225568527
  - # 7
    frequency:    24.5225568527
  - # 8
    frequency:    24.7378255594
  - # 9
    frequency:    24.7378255594
  - # 10
    frequency:    37.1008118851
  - # 11
    frequency:    37.3911541314
  - # 12
    frequency:    37.3911541314
  - # 13
    frequency:    37.5812282345
  - # 14
    frequency:    37.5812282345
  - # 15
    frequency:    38.3771220130
  - # 16
    frequency:    38.3944882043
  - # 17
    frequency:    40.0122122484
  - # 18
    frequency:    40.0122122484
  - # 19
    frequency:    40.3246058848
  - # 20
    frequency:    40.3246058848
  - # 21
    frequency:    42.0759142583
  - # 22
    frequency:    43.6603150289
  - # 23
    frequency:    43.6612229314
  - # 24
    frequency:    43.9759033842

- q-position: [    0.1562500,    0.0104167,    0.0104167 ]
  distance_from_gamma:  0.045785557
  weight: 24   
  band:
  - # 1
    frequency:     5.9372349284
  - # 2
    frequency:     5.9496000367
  - # 3
    frequency:     8.4859590063
  - # 4
    frequency:    23.3158595545
  - # 5
    frequency:    23.3332138680
  - # 6
    frequency:    24.7121574084
  - # 7
    frequency:    24.7121574084
  - # 8
    frequency:    24.9572709243
  - # 9
    frequency:    24.9572709243
  - # 10
    frequency:    36.5863150254
  - # 11
    frequency:    37.1968550468
  - # 12
    frequency:    37.1968550468
  - # 13
    frequency:    37.4067233317
  - # 14
    frequency:    37.4067233317
  - # 15
    frequency:    38.4655599304
  - # 16
    frequency:    38.4774165158
  - # 17
    frequency:    40.0549226126
  - # 18
    frequency:    40.0549226126
  - # 19
    frequency:    40.3536289371
  - # 20
    frequency:    40.3536289371
  - # 21
    frequency:    42.3256322716
  - # 22
    frequency:    43.5834480869
  - # 23
    frequency:    43.5843462901
  - # 24
    frequency:    44.0004308844

- q-position: [    0.1770833,    0.0104167,    0.0104167 ]
  distance_from_gamma:  0.051839651
  weight: 24   
  band:
  - # 1
    frequency:     6.7081663297
  - # 2
    frequency:     6.7176095750
  - # 3
    frequency:     9.5793539556
  - # 4
    frequency:    23.1253457483
  - # 5
    frequency:    23.1426811339
  - # 6
    frequency:    24.9260308739
  - # 7
    frequency:    24.9260308739
  - # 8
    frequency:    25.1997378793
  - # 9
    frequency:    25.1997378793
  - # 10
    frequency:    36.0484295479
  - # 11
    frequency:    36.9856577637
  - # 12
    frequency:    36.9856577637
  - # 13
    frequency:    37.2128549232
  - # 14
    frequency:    37.2128549232
  - # 15
    frequency:    38.5656012318
  - # 16
    frequency:    38.5745017061
  - # 17
    frequency:    40.0965138404
  - # 18
    frequency:    40.0965138404
  - # 19
    frequency:    40.3821313396
  - # 20
    frequency:    40.3821313396
  - # 21
    frequency:    42.5582110560
  - # 22
    frequency:    43.4962463087
  - # 23
    frequency:    43.4971332314
  - # 24
    frequency:    44.0272342300

- q-position: [    0.1979167,    0.0104167,    0.0104167 ]
  distance_from_gamma:  0.057898710
  weight: 24   
  band:
  - # 1
    frequency:     7.4716331095
  - # 2
    frequency:     7.4785793732
  - # 3
    frequency:    10.6656447829
  - # 4
    frequency:    22.9107321530
  - # 5
    frequency:    22.9280255367
  - # 6
    frequency:    25.1621065838
  - # 7
    frequency:    25.1621065838
  - # 8
    frequency:    25.4630787053
  - # 9
    frequency:    25.4630787053
  - # 10
    frequency:    35.4885158307
  - # 11
    frequency:    36.7591737233
  - # 12
    frequency:    36.7591737233
  - # 13
    frequency:    37.0013426882
  - # 14
    frequency:    37.0013426882
  - # 15
    frequency:    38.6768055980
  - # 16
    frequency:    38.6838539544
  - # 17
    frequency:    40.1362178975
  - # 18
    frequency:    40.1362178975
  - # 19
    frequency:    40.4095037678
  - # 20
    frequency:    40.4095037678
  - # 21
    frequency:    42.7740041708
  - # 22
    frequency:    43.3989731099
  - # 23
    frequency:    43.3998476403
  - # 24
    frequency:    44.0558440047

- q-position: [    0.2187500,    0.0104167,    0.0104167 ]
  distance_from_gamma:  0.063961323
  weight: 24   
  band:
  - # 1
    frequency:     8.2267421013
  - # 2
    frequency:     8.2315069251
  - # 3
    frequency:    11.7435086481
  - # 4
    frequency:    22.6720074422
  - # 5
    frequency:    22.6892306190
  - # 6
    frequency:    25.4180829924
  - # 7
    frequency:    25.4180829924
  - # 8
    frequency:    25.7449399435
  - # 9
    frequency:    25.7449399435
  - # 10
    frequency:    34.9070344537
  - # 11
    frequency:    36.5189835841
  - # 12
    frequency:    36.5189835841
  - # 13
    frequency:    36.7738335220
  - # 14
    frequency:    36.7738335220
  - # 15
    frequency:    38.7986673262
  - # 16
    frequency:    38.8044351224
  - # 17
    frequency:    40.1735358952
  - # 18
    frequency:    40.1735358952
  - # 19
    frequency:    40.4353278231
  - # 20
    frequency:    40.4353278231
  - # 21
    frequency:    42.9733865290
  - # 22
    frequency:    43.2919276931
  - # 23
    frequency:    43.2927891580
  - # 24
    frequency:    44.0857455225

- q-position: [    0.2395833,    0.0104167,    0.0104167 ]
  distance_from_gamma:  0.070026567
  weight: 24   
  band:
  - # 1
    frequency:     8.9726222083
  - # 2
    frequency:     8.9754472359
  - # 3
    frequency:    12.8117849111
  - # 4
    frequency:    22.4091967719
  - # 5
    frequency:    22.4263167449
  - # 6
    frequency:    25.6914202569
  - # 7
    frequency:    25.6914202569
  - # 8
    frequency:    26.0427539773
  - # 9
    frequency:    26.0427539773
  - # 10
    frequency:    34.3041709835
  - # 11
    frequency:    36.2667318690
  - # 12
    frequency:    36.2667318690
  - # 13
    frequency:    36.5319846386
  - # 14
    frequency:    36.5319846386
  - # 15
    frequency:    38.9306162316
  - # 16
    frequency:    38.9354370437
  - # 17
    frequency:    40.2081663146
  - # 18
    frequency:    40.2081663146
  - # 19
    frequency:    40.4593351380
  - # 20
    frequency:    40.4593351380
  - # 21
    frequency:    43.1567540506
  - # 22
    frequency:    43.1754458637
  - # 23
    frequency:    43.1762940534
  - # 24
    frequency:    44.1163829561

- q-position: [    0.2604167,    0.0104167,    0.0104167 ]
  distance_from_gamma:  0.076093812
  weight: 24   
  band:
  - # 1
    frequency:     9.7084187590
  - # 2
    frequency:     9.7094942929
  - # 3
    frequency:    13.8694242680
  - # 4
    frequency:    22.1223669735
  - # 5
    frequency:    22.1393464080
  - # 6
    frequency:    25.9793181782
  - # 7
    frequency:    25.9793181782
  - # 8
    frequency:    26.3537150818
  - # 9
    frequency:    26.3537150818
  - # 10
    frequency:    33.6800150859
  - # 11
    frequency:    36.0042240456
  - # 12
    frequency:    36.0042240456
  - # 13
    frequency:    36.2775525767
  - # 14
    frequency:    36.2775525767
  - # 15
    frequency:    39.0720200987
  - # 16
    frequency:    39.0761067720
  - # 17
    frequency:    40.2399477350
  - # 18
    frequency:    40.2399477350
  - # 19
    frequency:    40.4813704124
  - # 20
    frequency:    40.4813704124
  - # 21
    frequency:    43.0499008287
  - # 22
    frequency:    43.0507360535
  - # 23
    frequency:    43.3245236862
  - # 24
    frequency:    44.1471636951

- q-position: [    0.2812500,    0.0104167,    0.0104167 ]
  distance_from_gamma:  0.082162617
  weight: 24   
  band:
  - # 1
    frequency:    10.4327711765
  - # 2
    frequency:    10.4332913417
  - # 3
    frequency:    14.9154606889
  - # 4
    frequency:    21.8116303250
  - # 5
    frequency:    21.8284280811
  - # 6
    frequency:    26.2786734794
  - # 7
    frequency:    26.2786734794
  - # 8
    frequency:    26.6747337116
  - # 9
    frequency:    26.6747337116
  - # 10
    frequency:    33.0346258005
  - # 11
    frequency:    35.7335328610
  - # 12
    frequency:    35.7335328610
  - # 13
    frequency:    36.0124913598
  - # 14
    frequency:    36.0124913598
  - # 15
    frequency:    39.2221886215
  - # 16
    frequency:    39.2256870262
  - # 17
    frequency:    40.2688151423
  - # 18
    frequency:    40.2688151423
  - # 19
    frequency:    40.5013605642
  - # 20
    frequency:    40.5013605642
  - # 21
    frequency:    42.9157039454
  - # 22
    frequency:    42.9165271128
  - # 23
    frequency:    43.4771336309
  - # 24
    frequency:    44.1774628543

- q-position: [    0.3020833,    0.0104167,    0.0104167 ]
  distance_from_gamma:  0.088232658
  weight: 24   
  band:
  - # 1
    frequency:    11.1444246776
  - # 2
    frequency:    11.1464132031
  - # 3
    frequency:    15.9489953522
  - # 4
    frequency:    21.4771469373
  - # 5
    frequency:    21.4937186416
  - # 6
    frequency:    26.5860083537
  - # 7
    frequency:    26.5860083537
  - # 8
    frequency:    27.0023604482
  - # 9
    frequency:    27.0023604482
  - # 10
    frequency:    32.3680598256
  - # 11
    frequency:    35.4571240811
  - # 12
    frequency:    35.4571240811
  - # 13
    frequency:    35.7390679884
  - # 14
    frequency:    35.7390679884
  - # 15
    frequency:    39.3803786669
  - # 16
    frequency:    39.3833948881
  - # 17
    frequency:    40.2947674406
  - # 18
    frequency:    40.2947674406
  - # 19
    frequency:    40.5192901414
  - # 20
    frequency:    40.5192901414
  - # 21
    frequency:    42.7733053813
  - # 22
    frequency:    42.7741180905
  - # 23
    frequency:    43.6150436198
  - # 24
    frequency:    44.2066278631

- q-position: [    0.3229167,    0.0104167,    0.0104167 ]
  distance_from_gamma:  0.094303697
  weight: 24   
  band:
  - # 1
    frequency:    11.8436224150
  - # 2
    frequency:    11.8469714189
  - # 3
    frequency:    16.9691871959
  - # 4
    frequency:    21.1191258738
  - # 5
    frequency:    21.1354244970
  - # 6
    frequency:    26.8973595652
  - # 7
    frequency:    26.8973595652
  - # 8
    frequency:    27.3326679096
  - # 9
    frequency:    27.3326679096
  - # 10
    frequency:    31.6803856287
  - # 11
    frequency:    35.1780144953
  - # 12
    frequency:    35.1780144953
  - # 13
    frequency:    35.4600078082
  - # 14
    frequency:    35.4600078082
  - # 15
    frequency:    39.5458006294
  - # 16
    frequency:    39.5484157337
  - # 17
    frequency:    40.3178436856
  - # 18
    frequency:    40.3178436856
  - # 19
    frequency:    40.5351822776
  - # 20
    frequency:    40.5351822776
  - # 21
    frequency:    42.6231946472
  - # 22
    frequency:    42.6239992973
  - # 23
    frequency:    43.7387352243
  - # 24
    frequency:    44.2339830723

- q-position: [    0.3437500,    0.0104167,    0.0104167 ]
  distance_from_gamma:  0.100375552
  weight: 24   
  band:
  - # 1
    frequency:    12.5295514192
  - # 2
    frequency:    12.5341674835
  - # 3
    frequency:    17.9752472493
  - # 4
    frequency:    20.7378251766
  - # 5
    frequency:    20.7538015867
  - # 6
    frequency:    27.2081146914
  - # 7
    frequency:    27.2081146914
  - # 8
    frequency:    27.6610755134
  - # 9
    frequency:    27.6610755134
  - # 10
    frequency:    30.9716914198
  - # 11
    frequency:    34.8999767285
  - # 12
    frequency:    34.8999767285
  - # 13
    frequency:    35.1786868991
  - # 14
    frequency:    35.1786868991
  - # 15
    frequency:    39.7176256016
  - # 16
    frequency:    39.7199040921
  - # 17
    frequency:    40.3381059150
  - # 18
    frequency:    40.3381059150
  - # 19
    frequency:    40.5490842097
  - # 20
    frequency:    40.5490842097
  - # 21
    frequency:    42.4659009574
  - # 22
    frequency:    42.4667008687
  - # 23
    frequency:    43.8487120914
  - # 24
    frequency:    44.2588343189

- q-position: [    0.3645833,    0.0104167,    0.0104167 ]
  distance_from_gamma:  0.106448085
  weight: 24   
  band:
  - # 1
    frequency:    13.2014176250
  - # 2
    frequency:    13.2072181559
  - # 3
    frequency:    18.9664351771
  - # 4
    frequency:    20.3335510029
  - # 5
    frequency:    20.3491544706
  - # 6
    frequency:    27.5127814924
  - # 7
    frequency:    27.5127814924
  - # 8
    frequency:    27.9821004977
  - # 9
    frequency:    27.9821004977
  - # 10
    frequency:    30.2420901959
  - # 11
    frequency:    34.6278029090
  - # 12
    frequency:    34.6278029090
  - # 13
    frequency:    34.8993929701
  - # 14
    frequency:    34.8993929701
  - # 15
    frequency:    39.8949930697
  - # 16
    frequency:    39.8969879291
  - # 17
    frequency:    40.3556268962
  - # 18
    frequency:    40.3556268962
  - # 19
    frequency:    40.5610563985
  - # 20
    frequency:    40.5610563985
  - # 21
    frequency:    42.3019933723
  - # 22
    frequency:    42.3027929193
  - # 23
    frequency:    43.9455000798
  - # 24
    frequency:    44.2804733949

- q-position: [    0.3854167,    0.0104167,    0.0104167 ]
  distance_from_gamma:  0.112521186
  weight: 24   
  band:
  - # 1
    frequency:    13.8584459609
  - # 2
    frequency:    13.8653564844
  - # 3
    frequency:    19.9066560791
  - # 4
    frequency:    19.9218347161
  - # 5
    frequency:    19.9420571334
  - # 6
    frequency:    27.8046839889
  - # 7
    frequency:    27.8046839889
  - # 8
    frequency:    28.2890256764
  - # 9
    frequency:    28.2890256764
  - # 10
    frequency:    29.4917232671
  - # 11
    frequency:    34.3676234916
  - # 12
    frequency:    34.3676234916
  - # 13
    frequency:    34.6276769409
  - # 14
    frequency:    34.6276769409
  - # 15
    frequency:    40.0770188578
  - # 16
    frequency:    40.0787746566
  - # 17
    frequency:    40.3704815083
  - # 18
    frequency:    40.3704815083
  - # 19
    frequency:    40.5711644216
  - # 20
    frequency:    40.5711644216
  - # 21
    frequency:    42.1320806725
  - # 22
    frequency:    42.1328854288
  - # 23
    frequency:    44.0296472515
  - # 24
    frequency:    44.2981823690

- q-position: [    0.4062500,    0.0104167,    0.0104167 ]
  distance_from_gamma:  0.118594767
  weight: 24   
  band:
  - # 1
    frequency:    14.4998808576
  - # 2
    frequency:    14.5078329781
  - # 3
    frequency:    19.4575376697
  - # 4
    frequency:    19.4722387867
  - # 5
    frequency:    20.9014643853
  - # 6
    frequency:    28.0756094638
  - # 7
    frequency:    28.0756094638
  - # 8
    frequency:    28.5735065552
  - # 9
    frequency:    28.5735065552
  - # 10
    frequency:    28.7207629274
  - # 11
    frequency:    34.1272272654
  - # 12
    frequency:    34.1272272654
  - # 13
    frequency:    34.3708044953
  - # 14
    frequency:    34.3708044953
  - # 15
    frequency:    40.2628030663
  - # 16
    frequency:    40.2643579373
  - # 17
    frequency:    40.3827407894
  - # 18
    frequency:    40.3827407894
  - # 19
    frequency:    40.5794729661
  - # 20
    frequency:    40.5794729661
  - # 21
    frequency:    41.9568109130
  - # 22
    frequency:    41.9576278067
  - # 23
    frequency:    44.1017236856
  - # 24
    frequency:    44.3112377202

- q-position: [    0.4270833,    0.0104167,    0.0104167 ]
  distance_from_gamma:  0.124668757
  weight: 24   
  band:
  - # 1
    frequency:    15.1249870725
  - # 2
    frequency:    15.1339169114
  - # 3
    frequency:    18.9866352355
  - # 4
    frequency:    19.0008056109
  - # 5
    frequency:    21.8440523753
  - # 6
    frequency:    27.9294146033
  - # 7
    frequency:    28.3155129963
  - # 8
    frequency:    28.3155129963
  - # 9
    frequency:    28.8252302183
  - # 10
    frequency:    28.8252302183
  - # 11
    frequency:    33.9162049336
  - # 12
    frequency:    33.9162049336
  - # 13
    frequency:    34.1382679959
  - # 14
    frequency:    34.1382679959
  - # 15
    frequency:    40.3924679245
  - # 16
    frequency:    40.3924679245
  - # 17
    frequency:    40.4514377914
  - # 18
    frequency:    40.4528247205
  - # 19
    frequency:    40.5860414024
  - # 20
    frequency:    40.5860414024
  - # 21
    frequency:    41.7768706041
  - # 22
    frequency:    41.7777080840
  - # 23
    frequency:    44.1623210819
  - # 24
    frequency:    44.3189142438

- q-position: [    0.4479167,    0.0104167,    0.0104167 ]
  distance_from_gamma:  0.130743101
  weight: 24   
  band:
  - # 1
    frequency:    15.7330507721
  - # 2
    frequency:    15.7428977636
  - # 3
    frequency:    18.4944279287
  - # 4
    frequency:    18.5080139800
  - # 5
    frequency:    22.7692600127
  - # 6
    frequency:    27.1179186525
  - # 7
    frequency:    28.5125538279
  - # 8
    frequency:    28.5125538279
  - # 9
    frequency:    29.0319236964
  - # 10
    frequency:    29.0319236964
  - # 11
    frequency:    33.7455081563
  - # 12
    frequency:    33.7455081563
  - # 13
    frequency:    33.9421963384
  - # 14
    frequency:    33.9421963384
  - # 15
    frequency:    40.3997156236
  - # 16
    frequency:    40.3997156236
  - # 17
    frequency:    40.5909205480
  - # 18
    frequency:    40.5909205480
  - # 19
    frequency:    40.6420144514
  - # 20
    frequency:    40.6432621510
  - # 21
    frequency:    41.5929834620
  - # 22
    frequency:    41.5938516748
  - # 23
    frequency:    44.2120521288
  - # 24
    frequency:    44.3204886990

- q-position: [    0.4687500,    0.0104167,    0.0104167 ]
  distance_from_gamma:  0.136817751
  weight: 24   
  band:
  - # 1
    frequency:    16.3233808390
  - # 2
    frequency:    16.3340867990
  - # 3
    frequency:    17.9814320391
  - # 4
    frequency:    17.9943798946
  - # 5
    frequency:    23.6765690592
  - # 6
    frequency:    26.2865519041
  - # 7
    frequency:    28.6539573298
  - # 8
    frequency:    28.6539573298
  - # 9
    frequency:    29.1802507206
  - # 10
    frequency:    29.1802507206
  - # 11
    frequency:    33.6258052714
  - # 12
    frequency:    33.6258052714
  - # 13
    frequency:    33.7972500411
  - # 14
    frequency:    33.7972500411
  - # 15
    frequency:    40.4045244757
  - # 16
    frequency:    40.4045244757
  - # 17
    frequency:    40.5941503448
  - # 18
    frequency:    40.5941503448
  - # 19
    frequency:    40.8336305922
  - # 20
    frequency:    40.8347641163
  - # 21
    frequency:    41.4059086762
  - # 22
    frequency:    41.4068196556
  - # 23
    frequency:    44.2515496101
  - # 24
    frequency:    44.3152431734

- q-position: [    0.4895833,    0.0104167,    0.0104167 ]
  distance_from_gamma:  0.142892668
  weight: 24   
  band:
  - # 1
    frequency:    16.8953103882
  - # 2
    frequency:    16.9068187978
  - # 3
    frequency:    17.4481984820
  - # 4
    frequency:    17.4604539464
  - # 5
    frequency:    24.5655035218
  - # 6
    frequency:    25.4356289936
  - # 7
    frequency:    28.7281917517
  - # 8
    frequency:    28.7281917517
  - # 9
    frequency:    29.2581230737
  - # 10
    frequency:    29.2581230737
  - # 11
    frequency:    33.5645914212
  - # 12
    frequency:    33.5645914212
  - # 13
    frequency:    33.7190293814
  - # 14
    frequency:    33.7190293814
  - # 15
    frequency:    40.4069219715
  - # 16
    frequency:    40.4069219715
  - # 17
    frequency:    40.5957582557
  - # 18
    frequency:    40.5957582557
  - # 19
    frequency:    41.0253960812
  - # 20
    frequency:    41.0264372793
  - # 21
    frequency:    41.2164386379
  - # 22
    frequency:    41.2174065082
  - # 23
    frequency:    44.2814652309
  - # 24
    frequency:    44.3024681453

- q-position: [    0.0312500,    0.0312500,    0.0104167 ]
  distance_from_gamma:  0.013246232
  weight: 24   
  band:
  - # 1
    frequency:     1.5278994327
  - # 2
    frequency:     1.7077874782
  - # 3
    frequency:     2.6263474231
  - # 4
    frequency:    23.9704792090
  - # 5
    frequency:    23.9704792090
  - # 6
    frequency:    23.9739419673
  - # 7
    frequency:    24.0222082489
  - # 8
    frequency:    24.0222082489
  - # 9
    frequency:    24.1286427872
  - # 10
    frequency:    37.9630776736
  - # 11
    frequency:    38.0408039265
  - # 12
    frequency:    38.0408039265
  - # 13
    frequency:    38.1060959284
  - # 14
    frequency:    38.1060959284
  - # 15
    frequency:    38.1117222721
  - # 16
    frequency:    39.4591416768
  - # 17
    frequency:    39.4591416768
  - # 18
    frequency:    39.8257755525
  - # 19
    frequency:    40.2331018565
  - # 20
    frequency:    40.5591148301
  - # 21
    frequency:    40.5591148301
  - # 22
    frequency:    43.8719559147
  - # 23
    frequency:    43.8786832304
  - # 24
    frequency:    43.8976840231

- q-position: [    0.0520833,    0.0312500,    0.0104167 ]
  distance_from_gamma:  0.017978340
  weight: 48   
  band:
  - # 1
    frequency:     2.1221067502
  - # 2
    frequency:     2.3370011958
  - # 3
    frequency:     3.5181852044
  - # 4
    frequency:    23.9230512659
  - # 5
    frequency:    23.9748784606
  - # 6
    frequency:    23.9851607771
  - # 7
    frequency:    24.0160109909
  - # 8
    frequency:    24.1019766443
  - # 9
    frequency:    24.2419219621
  - # 10
    frequency:    37.8614182747
  - # 11
    frequency:    37.9415171646
  - # 12
    frequency:    38.0334965025
  - # 13
    frequency:    38.0652938042
  - # 14
    frequency:    38.0981635235
  - # 15
    frequency:    38.1336149450
  - # 16
    frequency:    39.0788021092
  - # 17
    frequency:    39.5125401659
  - # 18
    frequency:    39.8119922548
  - # 19
    frequency:    40.2741045592
  - # 20
    frequency:    40.5580339053
  - # 21
    frequency:    40.8939276041
  - # 22
    frequency:    43.8497266957
  - # 23
    frequency:    43.8591177818
  - # 24
    frequency:    43.9026302530

- q-position: [    0.0729167,    0.0312500,    0.0104167 ]
  distance_from_gamma:  0.023342189
  weight: 48   
  band: