       N       E                     dE             d eps       ncg     rms          rms(c)
DAV:   1     0.534311420883E+03    0.53431E+03   -0.11565E+05 13440   0.108E+03
DAV:   2    -0.563239462239E+03   -0.10976E+04   -0.10485E+04 17568   0.240E+02
DAV:   3    -0.601997615606E+03   -0.38758E+02   -0.38552E+02 17696   0.420E+01
DAV:   4    -0.602341478122E+03   -0.34386E+00   -0.34323E+00 17440   0.445E+00
DAV:   5    -0.602347787717E+03   -0.63096E-02   -0.63074E-02 16672   0.542E-01    0.310E+01
DAV:   6    -0.580964576448E+03    0.21383E+02   -0.13760E+01 15680   0.778E+00    0.167E+01
DAV:   7    -0.573778007202E+03    0.71866E+01   -0.15196E+01 16544   0.841E+00    0.205E+00
DAV:   8    -0.573852386111E+03   -0.74379E-01   -0.32870E-01 16416   0.118E+00    0.240E-01
DAV:   9    -0.573854394673E+03   -0.20086E-02   -0.36097E-03 17440   0.150E-01    0.854E-02
DAV:  10    -0.573854789307E+03   -0.39463E-03   -0.31166E-04 16064   0.488E-02    0.861E-03
DAV:  11    -0.573854796989E+03   -0.76824E-05   -0.96149E-06 17376   0.781E-03    0.194E-03
DAV:  12    -0.573854796522E+03    0.46722E-06   -0.17353E-07 16896   0.114E-03    0.299E-04
DAV:  13    -0.573854796508E+03    0.13382E-07   -0.50743E-09 12768   0.180E-04    0.352E-05
DAV:  14    -0.573854796540E+03   -0.31934E-07   -0.53152E-10 10272   0.662E-05    0.265E-05
DAV:  15    -0.573854796541E+03   -0.94406E-09   -0.50516E-11 10080   0.189E-05
   1 F= -.57385480E+03 E0= -.57385480E+03  d E =-.376013E-14
 Linear response reoptimize wavefunctions
DAV:   1    -0.573854796539E+03    0.24447E-08   -0.80686E-12 10016   0.809E-06
DAV:   2    -0.573854796539E+03    0.26557E-09    0.22413E-12  9984   0.355E-06
DAV:   3    -0.573854796539E+03   -0.25102E-09    0.79045E-13  9984   0.167E-06
 Linear response DOF=           1
 Linear response progress:
  Degree of freedom:   1/  1
       N       E                     dE             d eps       ncg     rms          rms(c)
RMM:   1    -0.154846319974E+00   -0.15485E+00    0.49453E-03114963   0.774E-01
RMM:   2    -0.129339398080E+00    0.25507E-01   -0.71974E-03 67606   0.195E-01    0.217E-01
RMM:   3    -0.128975173568E+00    0.36422E-03   -0.13870E-03 70844   0.627E-02    0.107E-01
RMM:   4    -0.129347346572E+00   -0.37217E-03   -0.39632E-04 71265   0.351E-02    0.307E-02
RMM:   5    -0.129471908351E+00   -0.12456E-03   -0.24176E-05 72634   0.936E-03    0.712E-03
RMM:   6    -0.129458123208E+00    0.13785E-04   -0.12243E-06 73254   0.213E-03    0.145E-03
RMM:   7    -0.129450076878E+00    0.80463E-05   -0.26748E-07 74437   0.585E-04    0.421E-04
RMM:   8    -0.129449489227E+00    0.58765E-06    0.18881E-08 75465   0.240E-04    0.853E-05
RMM:   9    -0.129449217651E+00    0.27158E-06    0.34269E-08 77047   0.120E-04    0.356E-05
RMM:  10    -0.129449267189E+00   -0.49537E-07    0.85337E-11 77801   0.110E-04    0.934E-06
RMM:  11    -0.129449265251E+00    0.19377E-08    0.91138E-09 77991   0.106E-04    0.375E-06
 Linear response finished
