# Thermal properties / unit cell (natom)

unit:
  temperature:   K
  free_energy:   kJ/mol
  entropy:       J/K/mol
  heat_capacity: J/K/mol

natom: 8    
cutoff_frequency:    0.000
num_modes: 2654208
num_integrated_modes: 2654208

zero_point_energy:     155.8842443
high_T_entropy:        411.3544306

thermal_properties:
- temperature:         0.0000000
  free_energy:       155.8842443
  entropy:             0.0000000
  heat_capacity:       0.0000000
  energy:            155.8842443

- temperature:         2.0000000
  free_energy:       155.8842443
  entropy:             0.0000000
  heat_capacity:       0.0000000
  energy:            155.8842443

- temperature:         4.0000000
  free_energy:       155.8842443
  entropy:             0.0000052
  heat_capacity:       0.0000352
  energy:            155.8842444

- temperature:         6.0000000
  free_energy:       155.8842443
  entropy:             0.0000491
  heat_capacity:       0.0002226
  energy:            155.8842446

- temperature:         8.0000000
  free_energy:       155.8842441
  entropy:             0.0001583
  heat_capacity:       0.0005853
  energy:            155.8842454

- temperature:        10.0000000
  free_energy:       155.8842436
  entropy:             0.0003465
  heat_capacity:       0.0011639
  energy:            155.8842471

- temperature:        12.0000000
  free_energy:       155.8842426
  entropy:             0.0006297
  heat_capacity:       0.0020199
  energy:            155.8842502

- temperature:        14.0000000
  free_energy:       155.8842410
  entropy:             0.0010260
  heat_capacity:       0.0032138
  energy:            155.8842554

- temperature:        16.0000000
  free_energy:       155.8842385
  entropy:             0.0015543
  heat_capacity:       0.0048046
  energy:            155.8842633

- temperature:        18.0000000
  free_energy:       155.8842347
  entropy:             0.0022336
  heat_capacity:       0.0068517
  energy:            155.8842749

- temperature:        20.0000000
  free_energy:       155.8842294
  entropy:             0.0030834
  heat_capacity:       0.0094149
  energy:            155.8842911

- temperature:        22.0000000
  free_energy:       155.8842222
  entropy:             0.0041231
  heat_capacity:       0.0125550
  energy:            155.8843129

- temperature:        24.0000000
  free_energy:       155.8842128
  entropy:             0.0053727
  heat_capacity:       0.0163340
  energy:            155.8843417

- temperature:        26.0000000
  free_energy:       155.8842006
  entropy:             0.0068522
  heat_capacity:       0.0208149
  energy:            155.8843787

- temperature:        28.0000000
  free_energy:       155.8841852
  entropy:             0.0085819
  heat_capacity:       0.0260623
  energy:            155.8844255

- temperature:        30.0000000
  free_energy:       155.8841661
  entropy:             0.0105823
  heat_capacity:       0.0321426
  energy:            155.8844836

- temperature:        32.0000000
  free_energy:       155.8841427
  entropy:             0.0128746
  heat_capacity:       0.0391237
  energy:            155.8845547

- temperature:        34.0000000
  free_energy:       155.8841144
  entropy:             0.0154800
  heat_capacity:       0.0470760
  energy:            155.8846407

- temperature:        36.0000000
  free_energy:       155.8840805
  entropy:             0.0184203
  heat_capacity:       0.0560722
  energy:            155.8847437

- temperature:        38.0000000
  free_energy:       155.8840405
  entropy:             0.0217177
  heat_capacity:       0.0661877
  energy:            155.8848657

- temperature:        40.0000000
  free_energy:       155.8839934
  entropy:             0.0253951
  heat_capacity:       0.0775013
  energy:            155.8850092

- temperature:        42.0000000
  free_energy:       155.8839386
  entropy:             0.0294757
  heat_capacity:       0.0900954
  energy:            155.8851766

- temperature:        44.0000000
  free_energy:       155.8838752
  entropy:             0.0339837
  heat_capacity:       0.1040570
  energy:            155.8853705

- temperature:        46.0000000
  free_energy:       155.8838024
  entropy:             0.0389439
  heat_capacity:       0.1194778
  energy:            155.8855938

- temperature:        48.0000000
  free_energy:       155.8837191
  entropy:             0.0443818
  heat_capacity:       0.1364553
  energy:            155.8858495

- temperature:        50.0000000
  free_energy:       155.8836245
  entropy:             0.0503242
  heat_capacity:       0.1550933
  energy:            155.8861407

- temperature:        52.0000000
  free_energy:       155.8835175
  entropy:             0.0567987
  heat_capacity:       0.1755027
  energy:            155.8864710

- temperature:        54.0000000
  free_energy:       155.8833969
  entropy:             0.0638342
  heat_capacity:       0.1978018
  energy:            155.8868440

- temperature:        56.0000000
  free_energy:       155.8832617
  entropy:             0.0714610
  heat_capacity:       0.2221172
  energy:            155.8872636

- temperature:        58.0000000
  free_energy:       155.8831107
  entropy:             0.0797105
  heat_capacity:       0.2485838
  energy:            155.8877339

- temperature:        60.0000000
  free_energy:       155.8829425
  entropy:             0.0886160
  heat_capacity:       0.2773453
  energy:            155.8882594

- temperature:        62.0000000
  free_energy:       155.8827558
  entropy:             0.0982120
  heat_capacity:       0.3085538
  energy:            155.8888449

- temperature:        64.0000000
  free_energy:       155.8825491
  entropy:             0.1085351
  heat_capacity:       0.3423698
  energy:            155.8894954

- temperature:        66.0000000
  free_energy:       155.8823211
  entropy:             0.1196231
  heat_capacity:       0.3789619
  energy:            155.8902162

- temperature:        68.0000000
  free_energy:       155.8820701
  entropy:             0.1315160
  heat_capacity:       0.4185061
  energy:            155.8910132

- temperature:        70.0000000
  free_energy:       155.8817945
  entropy:             0.1442553
  heat_capacity:       0.4611849
  energy:            155.8918923

- temperature:        72.0000000
  free_energy:       155.8814925
  entropy:             0.1578841
  heat_capacity:       0.5071866
  energy:            155.8928601

- temperature:        74.0000000
  free_energy:       155.8811623
  entropy:             0.1724476
  heat_capacity:       0.5567042
  energy:            155.8939234

- temperature:        76.0000000
  free_energy:       155.8808020
  entropy:             0.1879920
  heat_capacity:       0.6099342
  energy:            155.8950894

- temperature:        78.0000000
  free_energy:       155.8804097
  entropy:             0.2045656
  heat_capacity:       0.6670755
  energy:            155.8963658

- temperature:        80.0000000
  free_energy:       155.8799831
  entropy:             0.2222177
  heat_capacity:       0.7283279
  energy:            155.8977605

- temperature:        82.0000000
  free_energy:       155.8795200
  entropy:             0.2409991
  heat_capacity:       0.7938913
  energy:            155.8992820

- temperature:        84.0000000
  free_energy:       155.8790183
  entropy:             0.2609616
  heat_capacity:       0.8639637
  energy:            155.9009391

- temperature:        86.0000000
  free_energy:       155.8784754
  entropy:             0.2821580
  heat_capacity:       0.9387409
  energy:            155.9027410

- temperature:        88.0000000
  free_energy:       155.8778888
  entropy:             0.3046420
  heat_capacity:       1.0184144
  energy:            155.9046973

- temperature:        90.0000000
  free_energy:       155.8772559
  entropy:             0.3284677
  heat_capacity:       1.1031711
  energy:            155.9068180

- temperature:        92.0000000
  free_energy:       155.8765740
  entropy:             0.3536901
  heat_capacity:       1.1931915
  energy:            155.9091135

- temperature:        94.0000000
  free_energy:       155.8758402
  entropy:             0.3803640
  heat_capacity:       1.2886497
  energy:            155.9115944

- temperature:        96.0000000
  free_energy:       155.8750515
  entropy:             0.4085446
  heat_capacity:       1.3897116
  energy:            155.9142718

- temperature:        98.0000000
  free_energy:       155.8742050
  entropy:             0.4382870
  heat_capacity:       1.4965350
  energy:            155.9171571

- temperature:       100.0000000
  free_energy:       155.8732973
  entropy:             0.4696459
  heat_capacity:       1.6092685
  energy:            155.9202619

- temperature:       102.0000000
  free_energy:       155.8723253
  entropy:             0.5026758
  heat_capacity:       1.7280511
  energy:            155.9235982

- temperature:       104.0000000
  free_energy:       155.8712854
  entropy:             0.5374304
  heat_capacity:       1.8530121
  energy:            155.9271782

- temperature:       106.0000000
  free_energy:       155.8701744
  entropy:             0.5739630
  heat_capacity:       1.9842706
  energy:            155.9310144

- temperature:       108.0000000
  free_energy:       155.8689884
  entropy:             0.6123258
  heat_capacity:       2.1219351
  energy:            155.9351196

- temperature:       110.0000000
  free_energy:       155.8677238
  entropy:             0.6525701
  heat_capacity:       2.2661038
  energy:            155.9395065

- temperature:       112.0000000
  free_energy:       155.8663768
  entropy:             0.6947462
  heat_capacity:       2.4168647
  energy:            155.9441884

- temperature:       114.0000000
  free_energy:       155.8649435
  entropy:             0.7389029
  heat_capacity:       2.5742952
  energy:            155.9491784

- temperature:       116.0000000
  free_energy:       155.8634198
  entropy:             0.7850880
  heat_capacity:       2.7384626
  energy:            155.9544900

- temperature:       118.0000000
  free_energy:       155.8618018
  entropy:             0.8333478
  heat_capacity:       2.9094241
  energy:            155.9601368

- temperature:       120.0000000
  free_energy:       155.8600850
  entropy:             0.8837272
  heat_capacity:       3.0872276
  energy:            155.9661323

- temperature:       122.0000000
  free_energy:       155.8582654
  entropy:             0.9362696
  heat_capacity:       3.2719113
  energy:            155.9724903

- temperature:       124.0000000
  free_energy:       155.8563385
  entropy:             0.9910167
  heat_capacity:       3.4635045
  energy:            155.9792246

- temperature:       126.0000000
  free_energy:       155.8542998
  entropy:             1.0480087
  heat_capacity:       3.6620280
  energy:            155.9863489

- temperature:       128.0000000
  free_energy:       155.8521449
  entropy:             1.1072841
  heat_capacity:       3.8674944
  energy:            155.9938773

- temperature:       130.0000000
  free_energy:       155.8498692
  entropy:             1.1688799
  heat_capacity:       4.0799084
  energy:            156.0018235

- temperature:       132.0000000
  free_energy:       155.8474678
  entropy:             1.2328312
  heat_capacity:       4.2992677
  energy:            156.0102016

- temperature:       134.0000000
  free_energy:       155.8449362
  entropy:             1.2991716
  heat_capacity:       4.5255629
  energy:            156.0190252

- temperature:       136.0000000
  free_energy:       155.8422695
  entropy:             1.3679330
  heat_capacity:       4.7587783
  energy:            156.0283084

- temperature:       138.0000000
  free_energy:       155.8394629
  entropy:             1.4391455
  heat_capacity:       4.9988923
  energy:            156.0380650

- temperature:       140.0000000
  free_energy:       155.8365113
  entropy:             1.5128376
  heat_capacity:       5.2458779
  energy:            156.0483086

- temperature:       142.0000000
  free_energy:       155.8334099
  entropy:             1.5890364
  heat_capacity:       5.4997028
  energy:            156.0590530

- temperature:       144.0000000
  free_energy:       155.8301535
  entropy:             1.6677670
  heat_capacity:       5.7603302
  energy:            156.0703119

- temperature:       146.0000000
  free_energy:       155.8267371
  entropy:             1.7490532
  heat_capacity:       6.0277191
  energy:            156.0820989

- temperature:       148.0000000
  free_energy:       155.8231555
  entropy:             1.8329171
  heat_capacity:       6.3018246
  energy:            156.0944273

- temperature:       150.0000000
  free_energy:       155.8194037
  entropy:             1.9193794
  heat_capacity:       6.5825982
  energy:            156.1073106

- temperature:       152.0000000
  free_energy:       155.8154763
  entropy:             2.0084592
  heat_capacity:       6.8699884
  energy:            156.1207621

- temperature:       154.0000000
  free_energy:       155.8113681
  entropy:             2.1001743
  heat_capacity:       7.1639408
  energy:            156.1347949

- temperature:       156.0000000
  free_energy:       155.8070738
  entropy:             2.1945408
  heat_capacity:       7.4643984
  energy:            156.1494222

- temperature:       158.0000000
  free_energy:       155.8025881
  entropy:             2.2915738
  heat_capacity:       7.7713021
  energy:            156.1646568

- temperature:       160.0000000
  free_energy:       155.7979057
  entropy:             2.3912870
  heat_capacity:       8.0845905
  energy:            156.1805116

- temperature:       162.0000000
  free_energy:       155.7930212
  entropy:             2.4936925
  heat_capacity:       8.4042007
  energy:            156.1969994

- temperature:       164.0000000
  free_energy:       155.7879292
  entropy:             2.5988016
  heat_capacity:       8.7300683
  energy:            156.2141326

- temperature:       166.0000000
  free_energy:       155.7826242
  entropy:             2.7066241
  heat_capacity:       9.0621271
  energy:            156.2319238

- temperature:       168.0000000
  free_energy:       155.7771008
  entropy:             2.8171688
  heat_capacity:       9.4003102
  energy:            156.2503852

- temperature:       170.0000000
  free_energy:       155.7713537
  entropy:             2.9304434
  heat_capacity:       9.7445494
  energy:            156.2695291

- temperature:       172.0000000
  free_energy:       155.7653773
  entropy:             3.0464544
  heat_capacity:      10.0947756
  energy:            156.2893674

- temperature:       174.0000000
  free_energy:       155.7591660
  entropy:             3.1652073
  heat_capacity:      10.4509190
  energy:            156.3099121

- temperature:       176.0000000
  free_energy:       155.7527146
  entropy:             3.2867067
  heat_capacity:      10.8129091
  energy:            156.3311750

- temperature:       178.0000000
  free_energy:       155.7460174
  entropy:             3.4109563
  heat_capacity:      11.1806748
  energy:            156.3531676

- temperature:       180.0000000
  free_energy:       155.7390689
  entropy:             3.5379586
  heat_capacity:      11.5541445
  energy:            156.3759015

- temperature:       182.0000000
  free_energy:       155.7318637
  entropy:             3.6677155
  heat_capacity:      11.9332462
  energy:            156.3993879

- temperature:       184.0000000
  free_energy:       155.7243962
  entropy:             3.8002279
  heat_capacity:      12.3179075
  energy:            156.4236382

- temperature:       186.0000000
  free_energy:       155.7166610
  entropy:             3.9354960
  heat_capacity:      12.7080557
  energy:            156.4486632

- temperature:       188.0000000
  free_energy:       155.7086524
  entropy:             4.0735191
  heat_capacity:      13.1036176
  energy:            156.4744740

- temperature:       190.0000000
  free_energy:       155.7003651
  entropy:             4.2142958
  heat_capacity:      13.5045202
  energy:            156.5010813

- temperature:       192.0000000
  free_energy:       155.6917934
  entropy:             4.3578240
  heat_capacity:      13.9106897
  energy:            156.5284956

- temperature:       194.0000000
  free_energy:       155.6829319
  entropy:             4.5041008
  heat_capacity:      14.3220526
  energy:            156.5567275

- temperature:       196.0000000
  free_energy:       155.6737752
  entropy:             4.6531227
  heat_capacity:      14.7385348
  energy:            156.5857872

- temperature:       198.0000000
  free_energy:       155.6643176
  entropy:             4.8048857
  heat_capacity:      15.1600622
  energy:            156.6156850

- temperature:       200.0000000
  free_energy:       155.6545538
  entropy:             4.9593849
  heat_capacity:      15.5865605
  energy:            156.6464308

- temperature:       202.0000000
  free_energy:       155.6444782
  entropy:             5.1166150
  heat_capacity:      16.0179551
  energy:            156.6780345

- temperature:       204.0000000
  free_energy:       155.6340855
  entropy:             5.2765701
  heat_capacity:      16.4541715
  energy:            156.7105058

- temperature:       206.0000000
  free_energy:       155.6233702
  entropy:             5.4392436
  heat_capacity:      16.8951346
  energy:            156.7438543

- temperature:       208.0000000
  free_energy:       155.6123267
  entropy:             5.6046285
  heat_capacity:      17.3407694
  energy:            156.7780895

- temperature:       210.0000000
  free_energy:       155.6009498
  entropy:             5.7727173
  heat_capacity:      17.7910007
  energy:            156.8132205

- temperature:       212.0000000
  free_energy:       155.5892341
  entropy:             5.9435020
  heat_capacity:      18.2457531
  energy:            156.8492565

- temperature:       214.0000000
  free_energy:       155.5771740
  entropy:             6.1169739
  heat_capacity:      18.7049507
  energy:            156.8862065

- temperature:       216.0000000
  free_energy:       155.5647644
  entropy:             6.2931241
  heat_capacity:      19.1685179
  energy:            156.9240792

- temperature:       218.0000000
  free_energy:       155.5519998
  entropy:             6.4719432
  heat_capacity:      19.6363785
  energy:            156.9628834

- temperature:       220.0000000
  free_energy:       155.5388748
  entropy:             6.6534213
  heat_capacity:      20.1084564
  energy:            157.0026275

- temperature:       222.0000000
  free_energy:       155.5253843
  entropy:             6.8375480
  heat_capacity:      20.5846750
  energy:            157.0433200

- temperature:       224.0000000
  free_energy:       155.5115229
  entropy:             7.0243127
  heat_capacity:      21.0649577
  energy:            157.0849689

- temperature:       226.0000000
  free_energy:       155.4972853
  entropy:             7.2137042
  heat_capacity:      21.5492276
  energy:            157.1275825

- temperature:       228.0000000
  free_energy:       155.4826663
  entropy:             7.4057111
  heat_capacity:      22.0374077
  energy:            157.1711685

- temperature:       230.0000000
  free_energy:       155.4676607
  entropy:             7.6003214
  heat_capacity:      22.5294209
  energy:            157.2157346

- temperature:       232.0000000
  free_energy:       155.4522633
  entropy:             7.7975229
  heat_capacity:      23.0251895
  energy:            157.2612886

- temperature:       234.0000000
  free_energy:       155.4364689
  entropy:             7.9973032
  heat_capacity:      23.5246362
  energy:            157.3078379

- temperature:       236.0000000
  free_energy:       155.4202724
  entropy:             8.1996491
  heat_capacity:      24.0276831
  energy:            157.3553896

- temperature:       238.0000000
  free_energy:       155.4036686
  entropy:             8.4045475
  heat_capacity:      24.5342523
  energy:            157.4039509

- temperature:       240.0000000
  free_energy:       155.3866525
  entropy:             8.6119849
  heat_capacity:      25.0442658
  energy:            157.4535289

- temperature:       242.0000000
  free_energy:       155.3692190
  entropy:             8.8219473
  heat_capacity:      25.5576454
  energy:            157.5041302

- temperature:       244.0000000
  free_energy:       155.3513630
  entropy:             9.0344205
  heat_capacity:      26.0743129
  energy:            157.5557617

- temperature:       246.0000000
  free_energy:       155.3330797
  entropy:             9.2493902
  heat_capacity:      26.5941899
  energy:            157.6084296

- temperature:       248.0000000
  free_energy:       155.3143638
  entropy:             9.4668414
  heat_capacity:      27.1171980
  energy:            157.6621405

- temperature:       250.0000000
  free_energy:       155.2952106
  entropy:             9.6867593
  heat_capacity:      27.6432587
  energy:            157.7169005

- temperature:       252.0000000
  free_energy:       155.2756152
  entropy:             9.9091284
  heat_capacity:      28.1722935
  energy:            157.7727155

- temperature:       254.0000000
  free_energy:       155.2555725
  entropy:            10.1339333
  heat_capacity:      28.7042239
  energy:            157.8295916

- temperature:       256.0000000
  free_energy:       155.2350778
  entropy:            10.3611581
  heat_capacity:      29.2389714
  energy:            157.8875343

- temperature:       258.0000000
  free_energy:       155.2141263
  entropy:            10.5907869
  heat_capacity:      29.7764575
  energy:            157.9465493

- temperature:       260.0000000
  free_energy:       155.1927131
  entropy:            10.8228032
  heat_capacity:      30.3166038
  energy:            158.0066419

- temperature:       262.0000000
  free_energy:       155.1708335
  entropy:            11.0571906
  heat_capacity:      30.8593321
  energy:            158.0678174

- temperature:       264.0000000
  free_energy:       155.1484827
  entropy:            11.2939324
  heat_capacity:      31.4045640
  energy:            158.1300809

- temperature:       266.0000000
  free_energy:       155.1256562
  entropy:            11.5330117
  heat_capacity:      31.9522217
  energy:            158.1934373

- temperature:       268.0000000
  free_energy:       155.1023492
  entropy:            11.7744112
  heat_capacity:      32.5022271
  energy:            158.2578914

- temperature:       270.0000000
  free_energy:       155.0785570
  entropy:            12.0181137
  heat_capacity:      33.0545027
  energy:            158.3234477

- temperature:       272.0000000
  free_energy:       155.0542752
  entropy:            12.2641017
  heat_capacity:      33.6089709
  energy:            158.3901108

- temperature:       274.0000000
  free_energy:       155.0294991
  entropy:            12.5123574
  heat_capacity:      34.1655545
  energy:            158.4578850

- temperature:       276.0000000
  free_energy:       155.0042242
  entropy:            12.7628629
  heat_capacity:      34.7241766
  energy:            158.5267744

- temperature:       278.0000000
  free_energy:       154.9784462
  entropy:            13.0156002
  heat_capacity:      35.2847605
  energy:            158.5967830

- temperature:       280.0000000
  free_energy:       154.9521604
  entropy:            13.2705512
  heat_capacity:      35.8472300
  energy:            158.6679147

- temperature:       282.0000000
  free_energy:       154.9253625
  entropy:            13.5276974
  heat_capacity:      36.4115090
  energy:            158.7401731

- temperature:       284.0000000
  free_energy:       154.8980481
  entropy:            13.7870203
  heat_capacity:      36.9775221
  energy:            158.8135619

- temperature:       286.0000000
  free_energy:       154.8702130
  entropy:            14.0485013
  heat_capacity:      37.5451940
  energy:            158.8880843

- temperature:       288.0000000
  free_energy:       154.8418527
  entropy:            14.3121216
  heat_capacity:      38.1144501
  energy:            158.9637437

- temperature:       290.0000000
  free_energy:       154.8129631
  entropy:            14.5778624
  heat_capacity:      38.6852161
  energy:            159.0405431

- temperature:       292.0000000
  free_energy:       154.7835398
  entropy:            14.8457045
  heat_capacity:      39.2574181
  energy:            159.1184855

- temperature:       294.0000000
  free_energy:       154.7535789
  entropy:            15.1156288
  heat_capacity:      39.8309831
  energy:            159.1975737

- temperature:       296.0000000
  free_energy:       154.7230760
  entropy:            15.3876162
  heat_capacity:      40.4058382
  energy:            159.2778103

- temperature:       298.0000000
  free_energy:       154.6920270
  entropy:            15.6616472
  heat_capacity:      40.9819113
  energy:            159.3591979

- temperature:       300.0000000
  free_energy:       154.6604280
  entropy:            15.9377024
  heat_capacity:      41.5591307
  energy:            159.4417388

- temperature:       302.0000000
  free_energy:       154.6282749
  entropy:            16.2157624
  heat_capacity:      42.1374257
  energy:            159.5254351

- temperature:       304.0000000
  free_energy:       154.5955636
  entropy:            16.4958075
  heat_capacity:      42.7167256
  energy:            159.6102891

- temperature:       306.0000000
  free_energy:       154.5622903
  entropy:            16.7778180
  heat_capacity:      43.2969610
  energy:            159.6963027

- temperature:       308.0000000
  free_energy:       154.5284511
  entropy:            17.0617743
  heat_capacity:      43.8780627
  energy:            159.7834775

- temperature:       310.0000000
  free_energy:       154.4940420
  entropy:            17.3476564
  heat_capacity:      44.4599624
  energy:            159.8718154

- temperature:       312.0000000
  free_energy:       154.4590592
  entropy:            17.6354446
  heat_capacity:      45.0425924
  energy:            159.9613179

- temperature:       314.0000000
  free_energy:       154.4234989
  entropy:            17.9251189
  heat_capacity:      45.6258858
  energy:            160.0519863

- temperature:       316.0000000
  free_energy:       154.3873575
  entropy:            18.2166594
  heat_capacity:      46.2097765
  energy:            160.1438218

- temperature:       318.0000000
  free_energy:       154.3506311
  entropy:            18.5100461
  heat_capacity:      46.7941988
  energy:            160.2368257

- temperature:       320.0000000
  free_energy:       154.3133161
  entropy:            18.8052590
  heat_capacity:      47.3790883
  energy:            160.3309989

- temperature:       322.0000000
  free_energy:       154.2754088
  entropy:            19.1022780
  heat_capacity:      47.9643810
  energy:            160.4263423

- temperature:       324.0000000
  free_energy:       154.2369058
  entropy:            19.4010831
  heat_capacity:      48.5500138
  energy:            160.5228567

- temperature:       326.0000000
  free_energy:       154.1978033
  entropy:            19.7016542
  heat_capacity:      49.1359244
  energy:            160.6205426

- temperature:       328.0000000
  free_energy:       154.1580980
  entropy:            20.0039712
  heat_capacity:      49.7220513
  energy:            160.7194005

- temperature:       330.0000000
  free_energy:       154.1177863
  entropy:            20.3080140
  heat_capacity:      50.3083339
  energy:            160.8194309

- temperature:       332.0000000
  free_energy:       154.0768648
  entropy:            20.6137625
  heat_capacity:      50.8947124
  energy:            160.9206339

- temperature:       334.0000000
  free_energy:       154.0353301
  entropy:            20.9211966
  heat_capacity:      51.4811279
  energy:            161.0230098

- temperature:       336.0000000
  free_energy:       153.9931789
  entropy:            21.2302962
  heat_capacity:      52.0675222
  energy:            161.1265584

- temperature:       338.0000000
  free_energy:       153.9504078
  entropy:            21.5410414
  heat_capacity:      52.6538382
  energy:            161.2312798

- temperature:       340.0000000
  free_energy:       153.9070136
  entropy:            21.8534119
  heat_capacity:      53.2400194
  energy:            161.3371737

- temperature:       342.0000000
  free_energy:       153.8629931
  entropy:            22.1673879
  heat_capacity:      53.8260104
  energy:            161.4442397

- temperature:       344.0000000
  free_energy:       153.8183430
  entropy:            22.4829492
  heat_capacity:      54.4117565
  energy:            161.5524776

- temperature:       346.0000000
  free_energy:       153.7730603
  entropy:            22.8000761
  heat_capacity:      54.9972042
  energy:            161.6618866

- temperature:       348.0000000
  free_energy:       153.7271417
  entropy:            23.1187484
  heat_capacity:      55.5823006
  energy:            161.7724661

- temperature:       350.0000000
  free_energy:       153.6805842
  entropy:            23.4389465
  heat_capacity:      56.1669936
  energy:            161.8842155

- temperature:       352.0000000
  free_energy:       153.6333849
  entropy:            23.7606503
  heat_capacity:      56.7512325
  energy:            161.9971338

- temperature:       354.0000000
  free_energy:       153.5855407
  entropy:            24.0838402
  heat_capacity:      57.3349669
  energy:            162.1112201

- temperature:       356.0000000
  free_energy:       153.5370486
  entropy:            24.4084965