<?xml version="1.0" encoding="ISO-8859-1"?>
<modeling>
 <generator>
  <i name="program" type="string">vasp </i>
  <i name="version" type="string">5.4.4.18Apr17-6-g9f103f2a35  </i>
  <i name="subversion" type="string">(build Mar 12 2022 03:36:41) complex            parallel </i>
  <i name="platform" type="string">IFC19.0.3.199_CrayMPICH7.7.19 </i>
  <i name="date" type="string">2022 12 01 </i>
  <i name="time" type="string">04:34:31 </i>
 </generator>
 <incar>
  <i type="string" name="PREC">accurate</i>
  <i type="int" name="IALGO">    38</i>
  <i type="logical" name="ADDGRID"> T  </i>
  <i type="int" name="IBRION">     8</i>
  <i name="EDIFF">      0.00000001</i>
  <i type="logical" name="LREAL"> F  </i>
  <i type="int" name="ISMEAR">     0</i>
  <i name="SIGMA">      0.06000000</i>
  <i type="logical" name="LWAVE"> F  </i>
  <i type="logical" name="LCHARG"> F  </i>
  <v type="int" name="KPOINT_BSE">    -1     0     0     0</v>
 </incar>
 <structure name="primitive_cell" >
  <crystal>
   <varray name="basis" >
    <v>       1.71389100       1.71389100       0.00000000 </v>
    <v>       1.71389100       0.00000000      -1.71389100 </v>
    <v>       0.00000000       1.71389100      -1.71389100 </v>
   </varray>
   <i name="volume">     10.06884349 </i>
   <varray name="rec_basis" >
    <v>       0.29173384       0.29173384       0.29173384 </v>
    <v>       0.29173384      -0.29173384      -0.29173384 </v>
    <v>      -0.29173384       0.29173384      -0.29173384 </v>
   </varray>
  </crystal>
  <varray name="positions" >
   <v>       0.25000000       0.25000000       0.25000000 </v>
   <v>      -0.50000000      -0.50000000      -0.50000000 </v>
  </varray>
 </structure>
 <varray name="primitive_index" >
  <v type="int" >        1 </v>
  <v type="int" >       11 </v>
 </varray>
 <kpoints>
  <generation param="Gamma">
   <v type="int" name="divisions">       8        8        8 </v>
   <v name="usershift">      0.00000000       0.00000000       0.00000000 </v>
   <v name="genvec1">      0.12500000       0.00000000       0.00000000 </v>
   <v name="genvec2">      0.00000000       0.12500000       0.00000000 </v>
   <v name="genvec3">      0.00000000       0.00000000       0.12500000 </v>
   <v name="shift">      0.00000000       0.00000000       0.00000000 </v>
  </generation>
  <varray name="kpointlist" >
   <v>       0.00000000       0.00000000       0.00000000 </v>
   <v>       0.12500000       0.00000000       0.00000000 </v>
   <v>       0.25000000       0.00000000       0.00000000 </v>
   <v>       0.37500000       0.00000000       0.00000000 </v>
   <v>       0.50000000       0.00000000       0.00000000 </v>
   <v>       0.12500000       0.12500000       0.00000000 </v>
   <v>       0.25000000       0.12500000       0.00000000 </v>
   <v>       0.37500000       0.12500000       0.00000000 </v>
   <v>       0.50000000       0.12500000       0.00000000 </v>
   <v>       0.25000000       0.25000000       0.00000000 </v>
   <v>       0.37500000       0.25000000       0.00000000 </v>
   <v>       0.50000000       0.25000000       0.00000000 </v>
   <v>       0.37500000       0.37500000       0.00000000 </v>
   <v>       0.50000000       0.37500000       0.00000000 </v>
   <v>       0.50000000       0.50000000       0.00000000 </v>
   <v>       0.12500000       0.12500000       0.12500000 </v>
   <v>       0.25000000       0.12500000       0.12500000 </v>
   <v>       0.37500000       0.12500000       0.12500000 </v>
   <v>       0.50000000       0.12500000       0.12500000 </v>
   <v>       0.25000000       0.25000000       0.12500000 </v>
   <v>       0.37500000       0.25000000       0.12500000 </v>
   <v>       0.50000000       0.25000000       0.12500000 </v>
   <v>       0.37500000       0.37500000       0.12500000 </v>
   <v>       0.50000000       0.37500000       0.12500000 </v>
   <v>       0.50000000       0.50000000       0.12500000 </v>
   <v>       0.25000000       0.25000000       0.25000000 </v>
   <v>       0.37500000       0.25000000       0.25000000 </v>
   <v>       0.50000000       0.25000000       0.25000000 </v>
   <v>       0.37500000       0.37500000       0.25000000 </v>
   <v>       0.50000000       0.37500000       0.25000000 </v>
   <v>       0.50000000       0.50000000       0.25000000 </v>
   <v>       0.37500000       0.37500000       0.37500000 </v>
   <v>       0.50000000       0.37500000       0.37500000 </v>
   <v>       0.50000000       0.50000000       0.37500000 </v>
   <v>       0.50000000       0.50000000       0.50000000 </v>
  </varray>
  <varray name="weights" >
   <v>       0.00195312 </v>
   <v>       0.01171875 </v>
   <v>       0.01171875 </v>
   <v>       0.01171875 </v>
   <v>       0.00585938 </v>
   <v>       0.02343750 </v>
   <v>       0.04687500 </v>
   <v>       0.04687500 </v>
   <v>       0.02343750 </v>
   <v>       0.02343750 </v>
   <v>       0.04687500 </v>
   <v>       0.02343750 </v>
   <v>       0.02343750 </v>
   <v>       0.02343750 </v>
   <v>       0.00585938 </v>
   <v>       0.01562500 </v>
   <v>       0.04687500 </v>
   <v>       0.04687500 </v>
   <v>       0.02343750 </v>
   <v>       0.04687500 </v>
   <v>       0.09375000 </v>
   <v>       0.04687500 </v>
   <v>       0.04687500 </v>
   <v>       0.04687500 </v>
   <v>       0.01171875 </v>
   <v>       0.01562500 </v>
   <v>       0.04687500 </v>
   <v>       0.02343750 </v>
   <v>       0.04687500 </v>
   <v>       0.04687500 </v>
   <v>       0.01171875 </v>
   <v>       0.01562500 </v>
   <v>       0.02343750 </v>
   <v>       0.01171875 </v>
   <v>       0.00195312 </v>
  </varray>
 </kpoints>
 <parameters>
  <separator name="general" >
   <i type="string" name="SYSTEM">unknown system</i>
   <i type="logical" name="LCOMPAT"> F  </i>
  </separator>
  <separator name="electronic" >
   <i type="string" name="PREC">accura</i>
   <i name="ENMAX">    400.00000000</i>
   <i name="ENAUG">    644.87300000</i>
   <i name="EDIFF">      0.00000001</i>
   <i type="int" name="IALGO">    38</i>
   <i type="int" name="IWAVPR">    11</i>
   <i type="int" name="NBANDS">   192</i>
   <i name="NELECT">    256.00000000</i>
   <i type="int" name="TURBO">     0</i>
   <i type="int" name="IRESTART">     0</i>
   <i type="int" name="NREBOOT">     0</i>
   <i type="int" name="NMIN">     0</i>
   <i name="EREF">      0.00000000</i>
   <separator name="electronic smearing" >
    <i type="int" name="ISMEAR">     0</i>
    <i name="SIGMA">      0.06000000</i>
    <i name="KSPACING">      0.50000000</i>
    <i type="logical" name="KGAMMA"> T  </i>
   </separator>
   <separator name="electronic projectors" >
    <i type="logical" name="LREAL"> F  </i>
    <v name="ROPT">      0.00000000</v>
    <i type="int" name="LMAXPAW">  -100</i>
    <i type="int" name="LMAXMIX">     2</i>
    <i type="logical" name="NLSPLINE"> F  </i>
   </separator>
   <separator name="electronic startup" >
    <i type="int" name="ISTART">     0</i>
    <i type="int" name="ICHARG">     2</i>
    <i type="int" name="INIWAV">     1</i>
   </separator>
   <separator name="electronic spin" >
    <i type="int" name="ISPIN">     1</i>
    <i type="logical" name="LNONCOLLINEAR"> F  </i>
    <v name="MAGMOM">      1.00000000      1.00000000      1.00000000      1.00000000      1.00000000      1.00000000      1.00000000      1.00000000      1.00000000      1.00000000      1.00000000      1.00000000      1.00000000      1.00000000      1.00000000      1.00000000      1.00000000      1.00000000      1.00000000      1.00000000
      1.00000000      1.00000000      1.00000000      1.00000000      1.00000000      1.00000000      1.00000000      1.00000000      1.00000000      1.00000000      1.00000000      1.00000000      1.00000000      1.00000000      1.00000000      1.00000000      1.00000000      1.00000000      1.00000000      1.00000000
      1.00000000      1.00000000      1.00000000      1.00000000      1.00000000      1.00000000      1.00000000      1.00000000      1.00000000      1.00000000      1.00000000      1.00000000      1.00000000      1.00000000      1.00000000      1.00000000      1.00000000      1.00000000      1.00000000      1.00000000
      1.00000000      1.00000000      1.00000000      1.00000000</v>
    <i name="NUPDOWN">     -1.00000000</i>
    <i type="logical" name="LSORBIT"> F  </i>
    <v name="SAXIS">      0.00000000      0.00000000      1.00000000</v>
    <i type="logical" name="LSPIRAL"> F  </i>
    <v name="QSPIRAL">      0.00000000      0.00000000      0.00000000</v>
    <i type="logical" name="LZEROZ"> F  </i>
   </separator>
   <separator name="electronic exchange-correlation" >
    <i type="logical" name="LASPH"> F  </i>
    <i type="logical" name="LMETAGGA"> F  </i>
   </separator>
   <separator name="electronic convergence" >
    <i type="int" name="NELM">    60</i>
    <i type="int" name="NELMDL">     0</i>
    <i type="int" name="NELMIN">     2</i>
    <i name="ENINI">    400.00000000</i>
    <separator name="electronic convergence detail" >
     <i type="logical" name="LDIAG"> T  </i>
     <i type="logical" name="LSUBROT"> F  </i>
     <i name="WEIMIN">      0.00100000</i>
     <i name="EBREAK">      0.00000000</i>
     <i name="DEPER">      0.30000000</i>
     <i type="int" name="NRMM">     4</i>
     <i name="TIME">      0.40000000</i>
    </separator>
   </separator>
   <separator name="electronic mixer" >
    <i name="AMIX">      0.40000000</i>
    <i name="BMIX">      1.00000000</i>
    <i name="AMIN">      0.10000000</i>
    <i name="AMIX_MAG">      1.60000000</i>
    <i name="BMIX_MAG">      1.00000000</i>
    <separator name="electronic mixer details" >
     <i type="int" name="IMIX">     4</i>
     <i type="logical" name="MIXFIRST"> F  </i>
     <i type="int" name="MAXMIX">   -45</i>
     <i name="WC">    100.00000000</i>
     <i type="int" name="INIMIX">     1</i>
     <i type="int" name="MIXPRE">     1</i>
     <i type="int" name="MREMOVE">     5</i>
    </separator>
   </separator>
   <separator name="electronic dipolcorrection" >
    <i type="logical" name="LDIPOL"> F  </i>
    <i type="logical" name="LMONO"> F  </i>
    <i type="int" name="IDIPOL">     0</i>
    <i name="EPSILON">      1.00000000</i>
    <v name="DIPOL">   -100.00000000   -100.00000000   -100.00000000</v>
    <i name="EFIELD">      0.00000000</i>
   </separator>
  </separator>
  <separator name="grids" >
   <i type="int" name="NGX">    48</i>
   <i type="int" name="NGY">    48</i>
   <i type="int" name="NGZ">    48</i>
   <i type="int" name="NGXF">    96</i>
   <i type="int" name="NGYF">    96</i>
   <i type="int" name="NGZF">    96</i>
   <i type="logical" name="ADDGRID"> T  </i>
  </separator>
  <separator name="ionic" >
   <i type="int" name="NSW">     1</i>
   <i type="int" name="IBRION">     8</i>
   <i type="int" name="MDALGO">     0</i>
   <i type="int" name="ISIF">     2</i>
   <i name="PSTRESS">      0.00000000</i>
   <i name="EDIFFG">      0.00000010</i>
   <i type="int" name="NFREE">     0</i>
   <i name="POTIM">      0.50000000</i>
   <i name="SMASS">     -3.00000000</i>
   <i name="SCALEE">      1.00000000</i>
  </separator>
  <separator name="ionic md" >
   <i name="TEBEG">      0.00010000</i>
   <i name="TEEND">      0.00010000</i>
   <i type="int" name="NBLOCK">     1</i>
   <i type="int" name="KBLOCK">     1</i>
   <i type="int" name="NPACO">   256</i>
   <i name="APACO">     16.00000000</i>
  </separator>
  <separator name="symmetry" >
   <i type="int" name="ISYM">     2</i>
   <i name="SYMPREC">      0.00001000</i>
  </separator>
  <separator name="dos" >
   <i type="int" name="LORBIT">     0</i>
   <v name="RWIGS">     -1.00000000</v>
   <i type="int" name="NEDOS">   301</i>
   <i name="EMIN">     10.00000000</i>
   <i name="EMAX">    -10.00000000</i>
   <i name="EFERMI">      0.00000000</i>
  </separator>
  <separator name="writing" >
   <i type="int" name="NWRITE">     2</i>
   <i type="logical" name="LWAVE"> F  </i>
   <i type="logical" name="LDOWNSAMPLE"> F  </i>
   <i type="logical" name="LCHARG"> F  </i>
   <i type="logical" name="LPARD"> F  </i>
   <i type="logical" name="LVTOT"> F  </i>
   <i type="logical" name="LVHAR"> F  </i>
   <i type="logical" name="LELF"> F  </i>
   <i type="logical" name="LOPTICS"> F  </i>
   <v name="STM">      0.00000000      0.00000000      0.00000000      0.00000000      0.00000000      0.00000000      0.00000000</v>
  </separator>
  <separator name="performance" >
   <i type="int" name="NPAR">    32</i>
   <i type="int" name="NSIM">     4</i>
   <i type="int" name="NBLK">    -1</i>
   <i type="logical" name="LPLANE"> T  </i>
   <i type="logical" name="LSCALAPACK"> T  </i>
   <i type="logical" name="LSCAAWARE"> F  </i>
   <i type="logical" name="LSCALU"> F  </i>
   <i type="logical" name="LASYNC"> F  </i>
   <i type="logical" name="LORBITALREAL"> F  </i>
  </separator>
  <separator name="miscellaneous" >
   <i type="int" name="IDIOT">     3</i>
   <i type="int" name="ISPECIAL">     0</i>
   <i type="logical" name="LMUSIC"> F  </i>
   <v name="POMASS">     12.01100000</v>
   <v name="DARWINR">      0.00000000</v>
   <v name="DARWINV">      1.00000000</v>
   <i type="logical" name="LCORR"> T  </i>
  </separator>
  <i type="logical" name="GGA_COMPAT"> T  </i>
  <i type="logical" name="LBERRY"> F  </i>
  <i type="int" name="ICORELEVEL">     0</i>
  <i type="logical" name="LDAU"> F  </i>
  <i type="int" name="I_CONSTRAINED_M">     0</i>
  <separator name="electronic exchange-correlation" >
   <i type="string" name="GGA">--</i>
   <i type="int" name="VOSKOWN">     0</i>
   <i type="logical" name="LHFCALC"> F  </i>
   <i type="string" name="PRECFOCK"></i>
   <i type="logical" name="LSYMGRAD"> F  </i>
   <i type="logical" name="LHFONE"> F  </i>
   <i type="logical" name="LRHFCALC"> F  </i>
   <i type="logical" name="LTHOMAS"> F  </i>
   <i type="logical" name="LMODELHF"> F  </i>
   <i name="ENCUT4O">     -1.00000000</i>
   <i type="int" name="EXXOEP">     0</i>
   <i type="int" name="FOURORBIT">     0</i>
   <i name="AEXX">      0.00000000</i>
   <i name="HFALPHA">      0.00000000</i>
   <i name="MCALPHA">      0.00000000</i>
   <i name="ALDAX">      1.00000000</i>
   <i name="AGGAX">      1.00000000</i>
   <i name="ALDAC">      1.00000000</i>
   <i name="AGGAC">      1.00000000</i>
   <i type="int" name="NKREDX">     1</i>
   <i type="int" name="NKREDY">     1</i>
   <i type="int" name="NKREDZ">     1</i>
   <i type="logical" name="SHIFTRED"> F  </i>
   <i type="logical" name="ODDONLY"> F  </i>
   <i type="logical" name="EVENONLY"> F  </i>
   <i type="int" name="LMAXFOCK">     0</i>
   <i type="int" name="NMAXFOCKAE">     0</i>
   <i type="logical" name="LFOCKAEDFT"> F  </i>
   <i name="HFSCREEN">      0.00000000</i>
   <i name="HFSCREENC">      0.00000000</i>
   <i type="int" name="NBANDSGWLOW">     0</i>
  </separator>
  <separator name="vdW DFT" >
   <i type="logical" name="LUSE_VDW"> F  </i>
   <i name="Zab_VDW">     -0.84910000</i>
   <i name="PARAM1">      0.12340000</i>
   <i name="PARAM2">      1.00000000</i>
   <i name="PARAM3">      0.00000000</i>
  </separator>
  <separator name="model GW" >
   <i type="int" name="MODEL_GW">     0</i>
   <i name="MODEL_EPS0">      3.02065305</i>
   <i name="MODEL_ALPHA">      1.00000000</i>
  </separator>
  <separator name="linear response parameters" >
   <i type="logical" name="LEPSILON"> F  </i>
   <i type="logical" name="LRPA"> F  </i>
   <i type="logical" name="LNABLA"> F  </i>
   <i type="logical" name="LVEL"> F  </i>
   <i type="int" name="KINTER">     0</i>
   <i name="CSHIFT">      0.10000000</i>
   <i name="OMEGAMAX">     -1.00000000</i>
   <i name="DEG_THRESHOLD">      0.00200000</i>
   <i name="RTIME">     -0.10000000</i>
   <i name="WPLASMAI">      0.00000000</i>
   <v name="DFIELD">      0.00000000      0.00000000      0.00000000</v>
   <v name="WPLASMA">      0.00000000      0.00000000      0.00000000      0.00000000      0.00000000      0.00000000      0.00000000      0.00000000      0.00000000</v>
  </separator>
  <separator name="orbital magnetization" >
   <i type="logical" name="NUCIND"> F  </i>
   <v name="MAGPOS">      0.00000000      0.00000000      0.00000000</v>
   <i type="logical" name="LNICSALL"> T  </i>
   <i type="logical" name="ORBITALMAG"> F  </i>
   <i type="logical" name="LMAGBLOCH"> F  </i>
   <i type="logical" name="LCHIMAG"> F  </i>
   <i type="logical" name="LGAUGE"> T  </i>
   <i type="int" name="MAGATOM">     0</i>
   <v name="MAGDIPOL">      0.00000000      0.00000000      0.00000000</v>
   <v name="AVECCONST">      0.00000000      0.00000000      0.00000000</v>
  </separator>
  <separator name="response functions" >
   <i type="logical" name="LADDER"> F  </i>
   <i type="logical" name="LRPAFORCE"> F  </i>
   <i type="logical" name="LFXC"> F  </i>
   <i type="logical" name="LHARTREE"> T  </i>
   <i type="int" name="IBSE">     0</i>
   <v type="int" name="KPOINT">    -1     0     0     0</v>
   <i type="logical" name="LTCTE"> F  </i>
   <i type="logical" name="LTETE"> F  </i>
   <i type="logical" name="LTRIPLET"> F  </i>
   <i type="logical" name="LFXCEPS"> F  </i>
   <i type="logical" name="LFXHEG"> F  </i>
   <i type="int" name="NATURALO">     2</i>
   <i type="logical" name="L2ORDER"> F  </i>
   <i type="logical" name="LMP2LT"> F  </i>
   <i type="logical" name="LUSEW"> F  </i>
   <i name="ENCUTGW">     -2.00000000</i>
   <i name="ENCUTGWSOFT">     -2.00000000</i>
   <i name="ENCUTLF">     -1.00000000</i>
   <i type="int" name="LMAXMP2">    -1</i>
   <i name="SCISSOR">      0.00000000</i>
   <i type="int" name="NOMEGA">     0</i>
   <i type="int" name="NOMEGAR">     0</i>
   <i type="int" name="NBANDSGW">    -1</i>
   <i type="int" name="NBANDSO">    -1</i>
   <i type="int" name="NBANDSV">    -1</i>
   <i type="int" name="NELM">     1</i>
   <i type="int" name="NELMHF">     1</i>
   <i type="int" name="DIM">     3</i>
   <i type="int" name="ANTIRES">     0</i>
   <i name="OMEGAMAX">    -30.00000000</i>
   <i name="OMEGAMIN">    -30.00000000</i>
   <i name="OMEGATL">   -200.00000000</i>
   <i type="int" name="OMEGAGRID">   140</i>
   <i name="CSHIFT">     -0.10000000</i>
   <i type="logical" name="SELFENERGY"> F  </i>
   <i type="logical" name="LSPECTRAL"> F  </i>
   <i type="logical" name="LSPECTRALGW"> F  </i>
   <i type="logical" name="LSINGLES"> F  </i>
   <i type="logical" name="LFERMIGW"> F  </i>
   <i type="logical" name="ODDONLYGW"> F  </i>
   <i type="logical" name="EVENONLYGW"> F  </i>
   <i type="int" name="NKREDLFX">     1</i>
   <i type="int" name="NKREDLFY">     1</i>
   <i type="int" name="NKREDLFZ">     1</i>
   <i type="int" name="MAXMEM">  2800</i>
   <i type="int" name="TELESCOPE">     0</i>
   <i type="int" name="TAUPAR">     1</i>
   <i type="int" name="OMEGAPAR">    -1</i>
   <i name="LAMBDA">      1.00000000</i>
  </separator>
  <separator name="External order field" >
   <i name="OFIELD_KAPPA">      0.00000000</i>
   <v name="OFIELD_K">      0.00000000      0.00000000      0.00000000</v>
   <i name="OFIELD_Q6_NEAR">      0.00000000</i>
   <i name="OFIELD_Q6_FAR">      0.00000000</i>
   <i name="OFIELD_A">      0.00000000</i>
  </separator>
 </parameters>
 <atominfo>
  <atoms>      64 </atoms>
  <types>       1 </types>
  <array name="atoms" >
   <dimension dim="1">ion</dimension>
   <field type="string">element</field>
   <field type="int">atomtype</field>
   <set>
    <rc><c>C </c><c>   1</c></rc>
    <rc><c>C </c><c>   1</c></rc>
    <rc><c>C </c><c>   1</c></rc>
    <rc><c>C </c><c>   1</c></rc>
    <rc><c>C </c><c>   1</c></rc>
    <rc><c>C </c><c>   1</c></rc>
    <rc><c>C </c><c>   1</c></rc>
    <rc><c>C </c><c>   1</c></rc>
    <rc><c>C </c><c>   1</c></rc>
    <rc><c>C </c><c>   1</c></rc>
    <rc><c>C </c><c>   1</c></rc>
    <rc><c>C </c><c>   1</c></rc>
    <rc><c>C </c><c>   1</c></rc>
    <rc><c>C </c><c>   1</c></rc>
    <rc><c>C </c><c>   1</c></rc>
    <rc><c>C </c><c>   1</c></rc>
    <rc><c>C </c><c>   1</c></rc>
    <rc><c>C </c><c>   1</c></rc>
    <rc><c>C </c><c>   1</c></rc>
    <rc><c>C </c><c>   1</c></rc>
    <rc><c>C </c><c>   1</c></rc>
    <rc><c>C </c><c>   1</c></rc>
    <rc><c>C </c><c>   1</c></rc>
    <rc><c>C </c><c>   1</c></rc>
    <rc><c>C </c><c>   1</c></rc>
    <rc><c>C </c><c>   1</c></rc>
    <rc><c>C </c><c>   1</c></rc>
    <rc><c>C </c><c>   1</c></rc>
    <rc><c>C </c><c>   1</c></rc>
    <rc><c>C </c><c>   1</c></rc>
    <rc><c>C </c><c>   1</c></rc>
    <rc><c>C </c><c>   1</c></rc>
    <rc><c>C </c><c>   1</c></rc>
    <rc><c>C </c><c>   1</c></rc>
    <rc><c>C </c><c>   1</c></rc>
    <rc><c>C </c><c>   1</c></rc>
    <rc><c>C </c><c>   1</c></rc>
    <rc><c>C </c><c>   1</c></rc>
    <rc><c>C </c><c>   1</c></rc>
    <rc><c>C </c><c>   1</c></rc>
    <rc><c>C </c><c>   1</c></rc>
    <rc><c>C </c><c>   1</c></rc>
    <rc><c>C </c><c>   1</c></rc>
    <rc><c>C </c><c>   1</c></rc>
    <rc><c>C </c><c>   1</c></rc>
    <rc><c>C </c><c>   1</c></rc>
    <rc><c>C </c><c>   1</c></rc>
    <rc><c>C </c><c>   1</c></rc>
    <rc><c>C </c><c>   1</c></rc>
    <rc><c>C </c><c>   1</c></rc>
    <rc><c>C </c><c>   1</c></rc>
    <rc><c>C </c><c>   1</c></rc>
    <rc><c>C </c><c>   1</c></rc>
    <rc><c>C </c><c>   1</c></rc>
    <rc><c>C </c><c>   1</c></rc>
    <rc><c>C </c><c>   1</c></rc>
    <rc><c>C </c><c>   1</c></rc>
    <rc><c>C </c><c>   1</c></rc>
    <rc><c>C </c><c>   1</c></rc>
    <rc><c>C </c><c>   1</c></rc>
    <rc><c>C </c><c>   1</c></rc>
    <rc><c>C </c><c>   1</c></rc>
    <rc><c>C </c><c>   1</c></rc>
    <rc><c>C </c><c>   1</c></rc>
   </set>
  </array>
  <array name="atomtypes" >
   <dimension dim="1">type</dimension>
   <field type="int">atomspertype</field>
   <field type="string">element</field>
   <field>mass</field>
   <field>valence</field>
   <field type="string">pseudopotential</field>
   <set>
    <rc><c>  64</c><c>C </c><c>     12.01100000</c><c>      4.00000000</c><c> PAW_PBE C 08Apr2002                    </c></rc>
   </set>
  </array>
 </atominfo>
 <structure name="initialpos" >
  <crystal>
   <varray name="basis" >
    <v>       6.85556400       0.00000000       0.00000000 </v>
    <v>       0.00000000       6.85556400       0.00000000 </v>
    <v>       0.00000000       0.00000000       6.85556400 </v>
   </varray>
   <i name="volume">    322.20299173 </i>
   <varray name="rec_basis" >
    <v>       0.14586692       0.00000000       0.00000000 </v>
    <v>       0.00000000       0.14586692       0.00000000 </v>
    <v>       0.00000000       0.00000000       0.14586692 </v>
   </varray>
  </crystal>
  <varray name="positions" >
   <v>       0.12500000       0.37500000       0.12500000 </v>
   <v>       0.62500000       0.37500000       0.12500000 </v>
   <v>       0.12500000       0.87500000       0.12500000 </v>
   <v>       0.62500000       0.87500000       0.12500000 </v>
   <v>       0.12500000       0.37500000       0.62500000 </v>
   <v>       0.62500000       0.37500000       0.62500000 </v>
   <v>       0.12500000       0.87500000       0.62500000 </v>
   <v>       0.62500000       0.87500000       0.62500000 </v>
   <v>       0.00000000       0.00000000       0.25000000 </v>
   <v>       0.50000000       0.00000000       0.25000000 </v>
   <v>       0.00000000       0.50000000       0.25000000 </v>
   <v>       0.50000000       0.50000000       0.25000000 </v>
   <v>       0.00000000       0.00000000       0.75000000 </v>
   <v>       0.50000000       0.00000000       0.75000000 </v>
   <v>       0.00000000       0.50000000       0.75000000 </v>
   <v>       0.50000000       0.50000000       0.75000000 </v>
   <v>       0.12500000       0.12500000       0.37500000 </v>
   <v>       0.62500000       0.12500000       0.37500000 </v>
   <v>       0.12500000       0.62500000       0.37500000 </v>
   <v>       0.62500000       0.62500000       0.37500000 </v>
   <v>       0.12500000       0.12500000       0.87500000 </v>
   <v>       0.62500000       0.12500000       0.87500000 </v>
   <v>       0.12500000       0.62500000       0.87500000 </v>
   <v>       0.62500000       0.62500000       0.87500000 </v>
   <v>       0.00000000       0.25000000       0.00000000 </v>
   <v>       0.50000000       0.25000000       0.00000000 </v>
   <v>       0.00000000       0.75000000       0.00000000 </v>
   <v>       0.50000000       0.75000000       0.00000000 </v>
   <v>       0.00000000       0.25000000       0.50000000 </v>
   <v>       0.50000000       0.25000000       0.50000000 </v>
   <v>       0.00000000       0.75000000       0.50000000 </v>
   <v>       0.50000000       0.75000000       0.50000000 </v>
   <v>       0.37500000       0.37500000       0.37500000 </v>
   <v>       0.87500000       0.37500000       0.37500000 </v>
   <v>       0.37500000       0.87500000       0.37500000 </v>
   <v>       0.87500000       0.87500000       0.37500000 </v>
   <v>       0.37500000       0.37500000       0.87500000 </v>
   <v>       0.87500000       0.37500000       0.87500000 </v>
   <v>       0.37500000       0.87500000       0.87500000 </v>
   <v>       0.87500000       0.87500000       0.87500000 </v>
   <v>       0.25000000       0.00000000       0.00000000 </v>
   <v>       0.75000000       0.00000000       0.00000000 </v>
   <v>       0.25000000       0.50000000       0.00000000 </v>
   <v>       0.75000000       0.50000000       0.00000000 </v>
   <v>       0.25000000       0.00000000       0.50000000 </v>
   <v>       0.75000000       0.00000000       0.50000000 </v>
   <v>       0.25000000       0.50000000       0.50000000 </v>
   <v>       0.75000000       0.50000000       0.50000000 </v>
   <v>       0.37500000       0.12500000       0.12500000 </v>
   <v>       0.87500000       0.12500000       0.12500000 </v>
   <v>       0.37500000       0.62500000       0.12500000 </v>
   <v>       0.87500000       0.62500000       0.12500000 </v>
   <v>       0.37500000       0.12500000       0.62500000 </v>
   <v>       0.87500000       0.12500000       0.62500000 </v>
   <v>       0.37500000       0.62500000       0.62500000 </v>
   <v>       0.87500000       0.62500000       0.62500000 </v>
   <v>       0.25000000       0.25000000       0.25000000 </v>
   <v>       0.75000000       0.25000000       0.25000000 </v>
   <v>       0.25000000       0.75000000       0.25000000 </v>
   <v>       0.75000000       0.75000000       0.25000000 </v>
   <v>       0.25000000       0.25000000       0.75000000 </v>
   <v>       0.75000000       0.25000000       0.75000000 </v>
   <v>       0.25000000       0.75000000       0.75000000 </v>
   <v>       0.75000000       0.75000000       0.75000000 </v>
  </varray>
 </structure>
 <calculation>
  <scstep>
   <time name="dav">   22.63   22.64</time>
   <time name="total">   22.76   22.91</time>
   <energy>
    <i name="alphaZ">   1035.81518580 </i>
    <i name="ewald"> -11586.26910307 </i>
    <i name="hartreedc">   -483.28245640 </i>
    <i name="XCdc">    940.33026603 </i>
    <i name="pawpsdc">   2421.21235816 </i>
    <i name="pawaedc">  -2494.84305711 </i>
    <i name="eentropy">     -0.00915722 </i>
    <i name="bandstr">   1285.21505693 </i>
    <i name="atom">   9416.14232778 </i>
    <i name="e_fr_energy">    534.31142088 </i>
    <i name="e_wo_entrp">    534.32057811 </i>
    <i name="e_0_energy">    534.31599949 </i>
   </energy>
  </scstep>
  <scstep>
   <time name="dav">   28.03   28.03</time>
   <time name="total">   28.03   28.03</time>
   <energy>
    <i name="e_fr_energy">   -563.23946224 </i>
    <i name="e_wo_entrp">   -563.23946224 </i>
    <i name="e_0_energy">   -563.23946224 </i>
   </energy>
  </scstep>
  <scstep>
   <time name="dav">   28.34   28.34</time>
   <time name="total">   28.34   28.34</time>
   <energy>
    <i name="e_fr_energy">   -601.99761561 </i>
    <i name="e_wo_entrp">   -601.99761561 </i>
    <i name="e_0_energy">   -601.99761561 </i>
   </energy>
  </scstep>
  <scstep>
   <time name="dav">   27.92   27.92</time>
   <time name="total">   27.92   27.92</time>
   <energy>
    <i name="e_fr_energy">   -602.34147812 </i>
    <i name="e_wo_entrp">   -602.34147812 </i>
    <i name="e_0_energy">   -602.34147812 </i>
   </energy>
  </scstep>
  <scstep>
   <time name="dav">   27.03   27.03</time>
   <time name="total">   27.78   27.78</time>
   <energy>
    <i name="e_fr_energy">   -602.34778772 </i>
    <i name="e_wo_entrp">   -602.34778772 </i>
    <i name="e_0_energy">   -602.34778772 </i>
   </energy>
  </scstep>
  <scstep>
   <time name="dav">   25.73   25.74</time>
   <time name="total">   26.58   26.58</time>
   <energy>
    <i name="e_fr_energy">   -580.96457645 </i>
    <i name="e_wo_entrp">   -580.96457645 </i>
    <i name="e_0_energy">   -580.96457645 </i>
   </energy>
  </scstep>
  <scstep>
   <time name="dav">   27.04   27.05</time>
   <time name="total">   27.89   27.89</time>
   <energy>
    <i name="e_fr_energy">   -573.77800720 </i>
    <i name="e_wo_entrp">   -573.77800720 </i>
    <i name="e_0_energy">   -573.77800720 </i>
   </energy>
  </scstep>
  <scstep>
   <time name="dav">   26.51   26.51</time>
   <time name="total">   27.36   27.36</time>
   <energy>
    <i name="e_fr_energy">   -573.85238611 </i>
    <i name="e_wo_entrp">   -573.85238611 </i>
    <i name="e_0_energy">   -573.85238611 </i>
   </energy>
  </scstep>
  <scstep>
   <time name="dav">   28.43   28.43</time>
   <time name="total">   29.28   29.28</time>
   <energy>
    <i name="e_fr_energy">   -573.85439467 </i>
    <i name="e_wo_entrp">   -573.85439467 </i>
    <i name="e_0_energy">   -573.85439467 </i>
   </energy>
  </scstep>
  <scstep>
   <time name="dav">   26.45   26.45</time>
   <time name="total">   27.30   27.30</time>
   <energy>
    <i name="e_fr_energy">   -573.85478931 </i>
    <i name="e_wo_entrp">   -573.85478931 </i>
    <i name="e_0_energy">   -573.85478931 </i>
   </energy>
  </scstep>
  <scstep>
   <time name="dav">   28.74   28.74</time>
   <time name="total">   29.59   29.59</time>
   <energy>
    <i name="e_fr_energy">   -573.85479699 </i>
    <i name="e_wo_entrp">   -573.85479699 </i>
    <i name="e_0_energy">   -573.85479699 </i>
   </energy>
  </scstep>
  <scstep>
   <time name="dav">   27.99   27.99</time>
   <time name="total">   28.84   28.84</time>
   <energy>
    <i name="e_fr_energy">   -573.85479652 </i>
    <i name="e_wo_entrp">   -573.85479652 </i>
    <i name="e_0_energy">   -573.85479652 </i>
   </energy>
  </scstep>
  <scstep>
   <time name="dav">   23.76   23.77</time>
   <time name="total">   24.62   24.62</time>
   <energy>
    <i name="e_fr_energy">   -573.85479651 </i>
    <i name="e_wo_entrp">   -573.85479651 </i>
    <i name="e_0_energy">   -573.85479651 </i>
   </energy>
  </scstep>
  <scstep>
   <time name="dav">   20.15   20.15</time>
   <time name="total">   21.00   21.01</time>
   <energy>
    <i name="e_fr_energy">   -573.85479654 </i>
    <i name="e_wo_entrp">   -573.85479654 </i>
    <i name="e_0_energy">   -573.85479654 </i>
   </energy>
  </scstep>
  <scstep>
   <time name="dav">   19.91   19.91</time>
   <time name="total">   20.02   20.03</time>
   <energy>
    <i name="alphaZ">   1035.81518580 </i>
    <i name="ewald"> -11586.26910307 </i>
    <i name="hartreedc">   -791.86175280 </i>
    <i name="XCdc">    969.71159302 </i>
    <i name="pawpsdc">   4761.06158328 </i>
    <i name="pawaedc">  -4844.72943233 </i>
    <i name="eentropy">     -0.00000000 </i>
    <i name="bandstr">    466.27480178 </i>
    <i name="atom">   9416.14232778 </i>
    <i name="e_fr_energy">   -573.85479654 </i>
    <i name="e_wo_entrp">   -573.85479654 </i>
    <i name="e_0_energy">   -573.85479654 </i>
   </energy>
  </scstep>
  <structure>
   <crystal>
    <varray name="basis" >
     <v>       6.85556400       0.00000000       0.00000000 </v>
     <v>       0.00000000       6.85556400       0.00000000 </v>
     <v>       0.00000000       0.00000000       6.85556400 </v>
    </varray>
    <i name="volume">    322.20299173 </i>
    <varray name="rec_basis" >
     <v>       0.14586692       0.00000000       0.00000000 </v>
     <v>       0.00000000       0.14586692       0.00000000 </v>
     <v>       0.00000000       0.00000000       0.14586692 </v>
    </varray>
   </crystal>
   <varray name="positions" >
    <v>       0.12500000       0.37500000       0.12500000 </v>
    <v>       0.62500000       0.37500000       0.12500000 </v>
    <v>       0.12500000       0.87500000       0.12500000 </v>
    <v>       0.62500000       0.87500000       0.12500000 </v>
    <v>       0.12500000       0.37500000       0.62500000 </v>
    <v>       0.62500000       0.37500000       0.62500000 </v>
    <v>       0.12500000       0.87500000       0.62500000 </v>
    <v>       0.62500000       0.87500000       0.62500000 </v>
    <v>       0.00000000       0.00000000       0.25000000 </v>
    <v>       0.50000000       0.00000000       0.25000000 </v>
    <v>       0.00000000       0.50000000       0.25000000 </v>
    <v>       0.50000000       0.50000000       0.25000000 </v>
    <v>       0.00000000       0.00000000       0.75000000 </v>
    <v>       0.50000000       0.00000000       0.75000000 </v>
    <v>       0.00000000       0.50000000       0.75000000 </v>
    <v>       0.50000000       0.50000000       0.75000000 </v>
    <v>       0.12500000       0.12500000       0.37500000 </v>
    <v>       0.62500000       0.12500000       0.37500000 </v>
    <v>       0.12500000       0.62500000       0.37500000 </v>
    <v>       0.62500000       0.62500000       0.37500000 </v>
    <v>       0.12500000       0.12500000       0.87500000 </v>
    <v>       0.62500000       0.12500000       0.87500000 </v>
    <v>       0.12500000       0.62500000       0.87500000 </v>
    <v>       0.62500000       0.62500000       0.87500000 </v>
    <v>       0.00000000       0.25000000       0.00000000 </v>
    <v>       0.50000000       0.25000000       0.00000000 </v>
    <v>       0.00000000       0.75000000       0.00000000 </v>
    <v>       0.50000000       0.75000000       0.00000000 </v>
    <v>       0.00000000       0.25000000       0.50000000 </v>
    <v>       0.50000000       0.25000000       0.50000000 </v>
    <v>       0.00000000       0.75000000       0.50000000 </v>
    <v>       0.50000000       0.75000000       0.50000000 </v>
    <v>       0.37500000       0.37500000       0.37500000 </v>
    <v>       0.87500000       0.37500000       0.37500000 </v>
    <v>       0.37500000       0.87500000       0.37500000 </v>
    <v>       0.87500000       0.87500000       0.37500000 </v>
    <v>       0.37500000       0.37500000       0.87500000 </v>
    <v>       0.87500000       0.37500000       0.87500000 </v>
    <v>       0.37500000       0.87500000       0.87500000 </v>
    <v>       0.87500000       0.87500000       0.87500000 </v>
    <v>       0.25000000       0.00000000       0.00000000 </v>
    <v>       0.75000000       0.00000000       0.00000000 </v>
    <v>       0.25000000       0.50000000       0.00000000 </v>
    <v>       0.75000000       0.50000000       0.00000000 </v>
    <v>       0.25000000       0.00000000       0.50000000 </v>
    <v>       0.75000000       0.00000000       0.50000000 </v>
    <v>       0.25000000       0.50000000       0.50000000 </v>
    <v>       0.75000000       0.50000000       0.50000000 </v>
    <v>       0.37500000       0.12500000       0.12500000 </v>
    <v>       0.87500000       0.12500000       0.12500000 </v>
    <v>       0.37500000       0.62500000       0.12500000 </v>
    <v>       0.87500000       0.62500000       0.12500000 </v>
    <v>       0.37500000       0.12500000       0.62500000 </v>
    <v>       0.87500000       0.12500000       0.62500000 </v>
    <v>       0.37500000       0.62500000       0.62500000 </v>
    <v>       0.87500000       0.62500000       0.62500000 </v>
    <v>       0.25000000       0.25000000       0.25000000 </v>
    <v>       0.75000000       0.25000000       0.25000000 </v>
    <v>       0.25000000       0.75000000       0.25000000 </v>
    <v>       0.75000000       0.75000000       0.25000000 </v>
    <v>       0.25000000       0.25000000       0.75000000 </v>
    <v>       0.75000000       0.25000000       0.75000000 </v>
    <v>       0.25000000       0.75000000       0.75000000 </v>
    <v>       0.75000000       0.75000000       0.75000000 </v>
   </varray>
  </structure>
  <varray name="forces" >
   <v>       0.00000000       0.00000000      -0.00000000 </v>
   <v>       0.00000000      -0.00000000       0.00000000 </v>
   <v>       0.00000000       0.00000000       0.00000000 </v>
   <v>      -0.00000000      -0.00000000       0.00000000 </v>
   <v>      -0.00000000       0.00000000       0.00000000 </v>
   <v>       0.00000000       0.00000000      -0.00000000 </v>
   <v>       0.00000000       0.00000000       0.00000000 </v>
   <v>       0.00000000       0.00000000       0.00000000 </v>
   <v>      -0.00000000      -0.00000000       0.00000000 </v>
   <v>       0.00000000      -0.00000000      -0.00000000 </v>
   <v>       0.00000000      -0.00000000      -0.00000000 </v>
   <v>      -0.00000000      -0.00000000      -0.00000000 </v>
   <v>       0.00000000       0.00000000      -0.00000000 </v>
   <v>      -0.00000000       0.00000000       0.00000000 </v>
   <v>      -0.00000000       0.00000000       0.00000000 </v>
   <v>       0.00000000       0.00000000       0.00000000 </v>
   <v>       0.00000000      -0.00000000       0.00000000 </v>
   <v>      -0.00000000       0.00000000      -0.00000000 </v>
   <v>      -0.00000000       0.00000000       0.00000000 </v>
   <v>       0.00000000      -0.00000000       0.00000000 </v>
   <v>      -0.00000000      -0.00000000      -0.00000000 </v>
   <v>       0.00000000      -0.00000000      -0.00000000 </v>
   <v>       0.00000000      -0.00000000      -0.00000000 </v>
   <v>      -0.00000000      -0.00000000      -0.00000000 </v>
   <v>      -0.00000000      -0.00000000      -0.00000000 </v>
   <v>      -0.00000000       0.00000000      -0.00000000 </v>
   <v>       0.00000000       0.00000000      -0.00000000 </v>
   <v>       0.00000000      -0.00000000      -0.00000000 </v>
   <v>      -0.00000000       0.00000000      -0.00000000 </v>
   <v>       0.00000000      -0.00000000      -0.00000000 </v>
   <v>      -0.00000000       0.00000000      -0.00000000 </v>
   <v>      -0.00000000      -0.00000000      -0.00000000 </v>
   <v>       0.00000000      -0.00000000       0.00000000 </v>
   <v>      -0.00000000       0.00000000       0.00000000 </v>
   <v>      -0.00000000       0.00000000      -0.00000000 </v>
   <v>       0.00000000      -0.00000000      -0.00000000 </v>
   <v>       0.00000000      -0.00000000      -0.00000000 </v>
   <v>       0.00000000      -0.00000000      -0.00000000 </v>
   <v>       0.00000000      -0.00000000      -0.00000000 </v>
   <v>      -0.00000000       0.00000000      -0.00000000 </v>
   <v>      -0.00000000       0.00000000      -0.00000000 </v>
   <v>      -0.00000000      -0.00000000      -0.00000000 </v>
   <v>       0.00000000      -0.00000000      -0.00000000 </v>
   <v>      -0.00000000       0.00000000      -0.00000000 </v>
   <v>       0.00000000      -0.00000000      -0.00000000 </v>
   <v>      -0.00000000      -0.00000000       0.00000000 </v>
   <v>      -0.00000000       0.00000000       0.00000000 </v>
   <v>      -0.00000000      -0.00000000      -0.00000000 </v>
   <v>       0.00000000      -0.00000000       0.00000000 </v>
   <v>      -0.00000000       0.00000000       0.00000000 </v>
   <v>      -0.00000000       0.00000000      -0.00000000 </v>
   <v>       0.00000000      -0.00000000       0.00000000 </v>
   <v>       0.00000000       0.00000000      -0.00000000 </v>
   <v>       0.00000000       0.00000000       0.00000000 </v>
   <v>      -0.00000000       0.00000000       0.00000000 </v>
   <v>       0.00000000       0.00000000       0.00000000 </v>
   <v>      -0.00000000       0.00000000      -0.00000000 </v>
   <v>       0.00000000      -0.00000000      -0.00000000 </v>
   <v>       0.00000000      -0.00000000      -0.00000000 </v>
   <v>      -0.00000000       0.00000000       0.00000000 </v>
   <v>       0.00000000      -0.00000000       0.00000000 </v>
   <v>      -0.00000000       0.00000000       0.00000000 </v>
   <v>      -0.00000000       0.00000000       0.00000000 </v>
   <v>      -0.00000000       0.00000000       0.00000000 </v>
  </varray>
  <varray name="stress" >
   <v>     640.80293805      -0.00000000       0.00000000 </v>
   <v>       0.00000000     640.80293805       0.00000000 </v>
   <v>       0.00000000       0.00000000     640.80293805 </v>
  </varray>
  <energy>
   <i name="e_fr_energy">   -573.85479654 </i>
   <i name="e_wo_entrp">   -573.85479654 </i>
   <i name="e_0_energy">     -0.00000000 </i>
  </energy>
  <kpoints>
   <generation param="Gamma">
    <v type="int" name="divisions">       8        8        8 </v>
    <v name="usershift">      0.00000000       0.00000000       0.00000000 </v>
    <v name="genvec1">      0.12500000       0.00000000       0.00000000 </v>
    <v name="genvec2">      0.00000000       0.12500000       0.00000000 </v>
    <v name="genvec3">      0.00000000       0.00000000       0.12500000 </v>
    <v name="shift">      0.00000000       0.00000000       0.00000000 </v>
   </generation>
   <varray name="kpointlist" >
    <v>       0.00000000       0.00000000       0.00000000 </v>
    <v>       0.12500000       0.00000000       0.00000000 </v>
    <v>       0.25000000       0.00000000       0.00000000 </v>
    <v>       0.37500000       0.00000000       0.00000000 </v>
    <v>       0.50000000       0.00000000       0.00000000 </v>
    <v>       0.00000000       0.12500000       0.00000000 </v>
    <v>       0.12500000       0.12500000       0.00000000 </v>
    <v>       0.25000000       0.12500000       0.00000000 </v>
    <v>       0.37500000       0.12500000       0.00000000 </v>
    <v>       0.50000000       0.12500000       0.00000000 </v>
    <v>       0.00000000       0.25000000       0.00000000 </v>
    <v>       0.12500000       0.25000000       0.00000000 </v>
    <v>       0.25000000       0.25000000       0.00000000 </v>
    <v>       0.37500000       0.25000000       0.00000000 </v>
    <v>       0.50000000       0.25000000       0.00000000 </v>
    <v>       0.00000000       0.37500000       0.00000000 </v>
    <v>       0.12500000       0.37500000       0.00000000 </v>
    <v>       0.25000000       0.37500000       0.00000000 </v>
    <v>       0.37500000       0.37500000       0.00000000 </v>
    <v>       0.50000000       0.37500000       0.00000000 </v>
    <v>       0.00000000       0.50000000       0.00000000 </v>
    <v>       0.12500000       0.50000000       0.00000000 </v>
    <v>       0.25000000       0.50000000       0.00000000 </v>
    <v>       0.37500000       0.50000000       0.00000000 </v>
    <v>       0.50000000       0.50000000       0.00000000 </v>
    <v>       0.00000000       0.12500000       0.12500000 </v>
    <v>       0.12500000       0.12500000       0.12500000 </v>
    <v>       0.25000000       0.12500000       0.12500000 </v>
    <v>       0.37500000       0.12500000       0.12500000 </v>
    <v>       0.50000000       0.12500000       0.12500000 </v>
    <v>       0.00000000       0.25000000       0.12500000 </v>
    <v>       0.12500000       0.25000000       0.12500000 </v>
    <v>       0.25000000       0.25000000       0.12500000 </v>
    <v>       0.37500000       0.25000000       0.12500000 </v>
    <v>       0.50000000       0.25000000       0.12500000 </v>
    <v>       0.00000000       0.37500000       0.12500000 </v>
    <v>       0.12500000       0.37500000       0.12500000 </v>
    <v>       0.25000000       0.37500000       0.12500000 </v>
    <v>       0.37500000       0.37500000       0.12500000 </v>
    <v>       0.50000000       0.37500000       0.12500000 </v>
    <v>       0.00000000       0.50000000       0.12500000 </v>
    <v>       0.12500000       0.50000000       0.12500000 </v>
    <v>       0.25000000       0.50000000       0.12500000 </v>
    <v>       0.37500000       0.50000000       0.12500000 </v>
    <v>       0.50000000       0.50000000       0.12500000 </v>
    <v>       0.00000000      -0.37500000       0.12500000 </v>
    <v>       0.12500000      -0.37500000       0.12500000 </v>
    <v>       0.25000000      -0.37500000       0.12500000 </v>
    <v>       0.37500000      -0.37500000       0.12500000 </v>
    <v>       0.50000000      -0.37500000       0.12500000 </v>
    <v>       0.00000000      -0.25000000       0.12500000 </v>
    <v>       0.12500000      -0.25000000       0.12500000 </v>
    <v>       0.25000000      -0.25000000       0.12500000 </v>
    <v>       0.37500000      -0.25000000       0.12500000 </v>
    <v>       0.50000000      -0.25000000       0.12500000 </v>
    <v>       0.00000000      -0.12500000       0.12500000 </v>
    <v>       0.12500000      -0.12500000       0.12500000 </v>
    <v>       0.25000000      -0.12500000       0.12500000 </v>
    <v>       0.37500000      -0.12500000       0.12500000 </v>
    <v>       0.50000000      -0.12500000       0.12500000 </v>
    <v>       0.00000000       0.25000000       0.25000000 </v>
    <v>       0.12500000       0.25000000       0.25000000 </v>
    <v>       0.25000000       0.25000000       0.25000000 </v>
    <v>       0.37500000       0.25000000       0.25000000 </v>
    <v>       0.50000000       0.25000000       0.25000000 </v>
    <v>       0.00000000       0.37500000       0.25000000 </v>
    <v>       0.12500000       0.37500000       0.25000000 </v>
    <v>       0.25000000       0.37500000       0.25000000 </v>
    <v>       0.37500000       0.37500000       0.25000000 </v>
    <v>       0.50000000       0.37500000       0.25000000 </v>
    <v>       0.00000000       0.50000000       0.25000000 </v>
    <v>       0.12500000       0.50000000       0.25000000 </v>
    <v>       0.25000000       0.50000000       0.25000000 </v>
    <v>       0.37500000       0.50000000       0.25000000 </v>
    <v>       0.50000000       0.50000000       0.25000000 </v>
    <v>       0.00000000      -0.37500000       0.25000000 </v>
    <v>       0.12500000      -0.37500000       0.25000000 </v>
    <v>       0.25000000      -0.37500000       0.25000000 </v>
    <v>       0.37500000      -0.37500000       0.25000000 </v>
    <v>       0.50000000      -0.37500000       0.25000000 </v>
    <v>       0.00000000      -0.25000000       0.25000000 </v>
    <v>       0.12500000      -0.25000000       0.25000000 </v>
    <v>       0.25000000      -0.25000000       0.25000000 </v>
    <v>       0.37500000      -0.25000000       0.25000000 </v>
    <v>       0.50000000      -0.25000000       0.25000000 </v>
    <v>       0.00000000       0.37500000       0.37500000 </v>
    <v>       0.12500000       0.37500000       0.37500000 </v>
    <v>       0.25000000       0.37500000       0.37500000 </v>
    <v>       0.37500000       0.37500000       0.37500000 </v>
    <v>       0.50000000       0.37500000       0.37500000 </v>
    <v>       0.00000000       0.50000000       0.37500000 </v>
    <v>       0.12500000       0.50000000       0.37500000 </v>
    <v>       0.25000000       0.50000000       0.37500000 </v>
    <v>       0.37500000       0.50000000       0.37500000 </v>
    <v>       0.50000000       0.50000000       0.37500000 </v>
    <v>       0.00000000      -0.37500000       0.37500000 </v>
    <v>       0.12500000      -0.37500000       0.37500000 </v>
    <v>       0.25000000      -0.37500000       0.37500000 </v>
    <v>       0.37500000      -0.37500000       0.37500000 </v>
    <v>       0.50000000      -0.37500000       0.37500000 </v>
    <v>       0.00000000       0.50000000       0.50000000 </v>
    <v>       0.12500000       0.50000000       0.50000000 </v>
    <v>       0.25000000       0.50000000       0.50000000 </v>
    <v>       0.37500000       0.50000000       0.50000000 </v>
    <v>       0.50000000       0.50000000       0.50000000 </v>
   </varray>
   <varray name="weights" >
    <v>       0.00195312 </v>
    <v>       0.00390625 </v>
    <v>       0.00390625 </v>
    <v>       0.00390625 </v>
    <v>       0.00195312 </v>
    <v>       0.00781250 </v>
    <v>       0.01562500 </v>
    <v>       0.01562500 </v>
    <v>       0.01562500 </v>
    <v>       0.00781250 </v>
    <v>       0.00781250 </v>
    <v>       0.01562500 </v>
    <v>       0.01562500 </v>
    <v>       0.01562500 </v>
    <v>       0.00781250 </v>
    <v>       0.00781250 </v>
    <v>       0.01562500 </v>
    <v>       0.01562500 </v>
    <v>       0.01562500 </v>
    <v>       0.00781250 </v>
    <v>       0.00390625 </v>
    <v>       0.00781250 </v>
    <v>       0.00781250 </v>
    <v>       0.00781250 </v>
    <v>       0.00390625 </v>
    <v>       0.00390625 </v>
    <v>       0.00781250 </v>
    <v>       0.00781250 </v>
    <v>       0.00781250 </v>
    <v>       0.00390625 </v>
    <v>       0.00781250 </v>
    <v>       0.01562500 </v>
    <v>       0.01562500 </v>
    <v>       0.01562500 </v>
    <v>       0.00781250 </v>
    <v>       0.00781250 </v>
    <v>       0.01562500 </v>
    <v>       0.01562500 </v>
    <v>       0.01562500 </v>
    <v>       0.00781250 </v>
    <v>       0.00781250 </v>
    <v>       0.01562500 </v>
    <v>       0.01562500 </v>
    <v>       0.01562500 </v>
    <v>       0.00781250 </v>
    <v>       0.00781250 </v>
    <v>       0.01562500 </v>
    <v>       0.01562500 </v>
    <v>       0.01562500 </v>
    <v>       0.00781250 </v>
    <v>       0.00781250 </v>
    <v>       0.01562500 </v>
    <v>       0.01562500 </v>
    <v>       0.01562500 </v>
    <v>       0.00781250 </v>
    <v>       0.00390625 </v>
    <v>       0.00781250 </v>
    <v>       0.00781250 </v>
    <v>       0.00781250 </v>
    <v>       0.00390625 </v>
    <v>       0.00390625 </v>
    <v>       0.00781250 </v>
    <v>       0.00781250 </v>
    <v>       0.00781250 </v>
    <v>       0.00390625 </v>
    <v>       0.00781250 </v>
    <v>       0.01562500 </v>
    <v>       0.01562500 </v>
    <v>       0.01562500 </v>
    <v>       0.00781250 </v>
    <v>       0.00781250 </v>
    <v>       0.01562500 </v>
    <v>       0.01562500 </v>
    <v>       0.01562500 </v>
    <v>       0.00781250 </v>
    <v>       0.00781250 </v>
    <v>       0.01562500 </v>
    <v>       0.01562500 </v>
    <v>       0.01562500 </v>
    <v>       0.00781250 </v>
    <v>       0.00390625 </v>
    <v>       0.00781250 </v>
    <v>       0.00781250 </v>
    <v>       0.00781250 </v>
    <v>       0.00390625 </v>
    <v>       0.00390625 </v>
    <v>       0.00781250 </v>
    <v>       0.00781250 </v>
    <v>       0.00781250 </v>
    <v>       0.00390625 </v>
    <v>       0.00781250 </v>
    <v>       0.01562500 </v>
    <v>       0.01562500 </v>
    <v>       0.01562500 </v>
    <v>       0.00781250 </v>
    <v>       0.00390625 </v>
    <v>       0.00781250 </v>
    <v>       0.00781250 </v>
    <v>       0.00781250 </v>
    <v>       0.00390625 </v>
    <v>       0.00195312 </v>
    <v>       0.00390625 </v>
    <v>       0.00390625 </v>
    <v>       0.00390625 </v>
    <v>       0.00195312 </v>
   </varray>
  </kpoints>
  <scstep>
   <time name="total">   81.05   81.05</time>
   <energy>
    <i name="e_fr_energy">   -387.11579994 </i>
    <i name="e_wo_entrp">   -387.11579994 </i>
    <i name="e_0_energy">   -387.11579994 </i>
   </energy>
  </scstep>
  <scstep>
   <time name="total">   60.36   60.36</time>
   <energy>
    <i name="e_fr_energy">   -323.34849520 </i>
    <i name="e_wo_entrp">   -323.34849520 </i>
    <i name="e_0_energy">   -323.34849520 </i>
   </energy>
  </scstep>
  <scstep>
   <time name="total">   61.71   61.72</time>
   <energy>
    <i name="e_fr_energy">   -322.43793392 </i>
    <i name="e_wo_entrp">   -322.43793392 </i>
    <i name="e_0_energy">   -322.43793392 </i>
   </energy>
  </scstep>
  <scstep>
   <time name="total">   61.82   61.82</time>
   <energy>
    <i name="e_fr_energy">   -323.36836643 </i>
    <i name="e_wo_entrp">   -323.36836643 </i>
    <i name="e_0_energy">   -323.36836643 </i>
   </energy>
  </scstep>
  <scstep>
   <time name="total">   61.87   61.87</time>
   <energy>
    <i name="e_fr_energy">   -323.67977088 </i>
    <i name="e_wo_entrp">   -323.67977088 </i>
    <i name="e_0_energy">   -323.67977088 </i>
   </energy>
  </scstep>
  <scstep>
   <time name="total">   62.37   62.37</time>
   <energy>
    <i name="e_fr_energy">   -323.64530802 </i>
    <i name="e_wo_entrp">   -323.64530802 </i>
    <i name="e_0_energy">   -323.64530802 </i>
   </energy>
  </scstep>
  <scstep>
   <time name="total">   63.84   63.85</time>
   <energy>
    <i name="e_fr_energy">   -323.62519219 </i>
    <i name="e_wo_entrp">   -323.62519219 </i>
    <i name="e_0_energy">   -323.62519219 </i>
   </energy>
  </scstep>
  <scstep>
   <time name="total">   63.84   63.84</time>
   <energy>
    <i name="e_fr_energy">   -323.62372307 </i>
    <i name="e_wo_entrp">   -323.62372307 </i>
    <i name="e_0_energy">   -323.62372307 </i>
   </energy>
  </scstep>
  <scstep>
   <time name="total">   64.65   64.65</time>
   <energy>
    <i name="e_fr_energy">   -323.62304413 </i>
    <i name="e_wo_entrp">   -323.62304413 </i>
    <i name="e_0_energy">   -323.62304413 </i>
   </energy>
  </scstep>
  <scstep>
   <time name="total">   65.33   65.34</time>
   <energy>
    <i name="e_fr_energy">   -323.62316797 </i>
    <i name="e_wo_entrp">   -323.62316797 </i>
    <i name="e_0_energy">   -323.62316797 </i>
   </energy>
  </scstep>
  <scstep>
   <time name="total">   65.11   65.11</time>
   <energy>
    <i name="e_fr_energy">   -323.62316313 </i>
    <i name="e_wo_entrp">   -323.62316313 </i>
    <i name="e_0_energy">   -323.62316313 </i>
   </energy>
  </scstep>
  <kpoints>
   <generation param="Gamma">
    <v type="int" name="divisions">       8        8        8 </v>
    <v name="usershift">      0.00000000       0.00000000       0.00000000 </v>
    <v name="genvec1">      0.12500000       0.00000000       0.00000000 </v>
    <v name="genvec2">      0.00000000       0.12500000       0.00000000 </v>
    <v name="genvec3">      0.00000000       0.00000000       0.12500000 </v>
    <v name="shift">      0.00000000       0.00000000       0.00000000 </v>
   </generation>
   <varray name="kpointlist" >
    <v>       0.00000000       0.00000000       0.00000000 </v>
    <v>       0.12500000       0.00000000       0.00000000 </v>
    <v>       0.25000000       0.00000000       0.00000000 </v>
    <v>       0.37500000       0.00000000       0.00000000 </v>
    <v>       0.50000000       0.00000000       0.00000000 </v>
    <v>       0.12500000       0.12500000       0.00000000 </v>
    <v>       0.25000000       0.12500000       0.00000000 </v>
    <v>       0.37500000       0.12500000       0.00000000 </v>
    <v>       0.50000000       0.12500000       0.00000000 </v>
    <v>       0.25000000       0.25000000       0.00000000 </v>
    <v>       0.37500000       0.25000000       0.00000000 </v>
    <v>       0.50000000       0.25000000       0.00000000 </v>
    <v>       0.37500000       0.37500000       0.00000000 </v>
    <v>       0.50000000       0.37500000       0.00000000 </v>
    <v>       0.50000000       0.50000000       0.00000000 </v>
    <v>       0.12500000       0.12500000       0.12500000 </v>
    <v>       0.25000000       0.12500000       0.12500000 </v>
    <v>       0.37500000       0.12500000       0.12500000 </v>
    <v>       0.50000000       0.12500000       0.12500000 </v>
    <v>       0.25000000       0.25000000       0.12500000 </v>
    <v>       0.37500000       0.25000000       0.12500000 </v>
    <v>       0.50000000       0.25000000       0.12500000 </v>
    <v>       0.37500000       0.37500000       0.12500000 </v>
    <v>       0.50000000       0.37500000       0.12500000 </v>
    <v>       0.50000000       0.50000000       0.12500000 </v>
    <v>       0.25000000       0.25000000       0.25000000 </v>
    <v>       0.37500000       0.25000000       0.25000000 </v>
    <v>       0.50000000       0.25000000       0.25000000 </v>
    <v>       0.37500000       0.37500000       0.25000000 </v>
    <v>       0.50000000       0.37500000       0.25000000 </v>
    <v>       0.50000000       0.50000000       0.25000000 </v>
    <v>       0.37500000       0.37500000       0.37500000 </v>
    <v>       0.50000000       0.37500000       0.37500000 </v>
    <v>       0.50000000       0.50000000       0.37500000 </v>
    <v>       0.50000000       0.50000000       0.50000000 </v>
   </varray>
   <varray name="weights" >
    <v>       0.00195312 </v>
    <v>       0.01171875 </v>
    <v>       0.01171875 </v>
    <v>       0.01171875 </v>
    <v>       0.00585938 </v>
    <v>       0.02343750 </v>
    <v>       0.04687500 </v>
    <v>       0.04687500 </v>
    <v>       0.02343750 </v>
    <v>       0.02343750 </v>
    <v>       0.04687500 </v>
    <v>       0.02343750 </v>
    <v>       0.02343750 </v>
    <v>       0.02343750 </v>
    <v>       0.00585938 </v>
    <v>       0.01562500 </v>
    <v>       0.04687500 </v>
    <v>       0.04687500 </v>
    <v>       0.02343750 </v>
    <v>       0.04687500 </v>
    <v>       0.09375000 </v>
    <v>       0.04687500 </v>
    <v>       0.04687500 </v>
    <v>       0.04687500 </v>
    <v>       0.01171875 </v>
    <v>       0.01562500 </v>
    <v>       0.04687500 </v>
    <v>       0.02343750 </v>
    <v>       0.04687500 </v>
    <v>       0.04687500 </v>
    <v>       0.01171875 </v>
    <v>       0.01562500 </v>
    <v>       0.02343750 </v>
    <v>       0.01171875 </v>
    <v>       0.00195312 </v>
   </varray>
  </kpoints>
  <dynmat>
   <varray name="hessian" >
    <v>      -4.71365992       0.00000000       0.00000000       0.01700445       0.00000000      -0.00000000       0.00851819       0.00000000      -0.00000000       0.01397774       0.00000000       0.00000000       0.00851819      -0.00000000       0.00000000       0.01397774      -0.00000000       0.00000000      -0.05036874      -0.00000000      -0.00000000       0.00526528      -0.00000000      -0.00000000      -0.01429216      -0.00825496       0.00457354       0.00893064      -0.01209304      -0.02161224       0.97443534      -0.37866366      -0.37866366      -0.00582368      -0.00825496      -0.00825496       0.03053335      -0.02161224      -0.02161224      -0.00288053      -0.00249677      -0.00249677      -0.01429216       0.00457354      -0.00825496       0.00893064      -0.02161224      -0.01209304      -0.13065103       0.07256506      -0.07256506      -0.00675196       0.00400297      -0.00400297      -0.13065103       0.07256506       0.07256506      -0.00675196       0.00400297       0.00400297      -0.13065103      -0.07256506      -0.07256506      -0.00675196      -0.00400297      -0.00400297      -0.13065103      -0.07256506       0.07256506      -0.00675196      -0.00400297       0.00400297       0.97443534       0.37866366       0.37866366      -0.00582368       0.00825496       0.00825496      -0.01429216       0.00825496      -0.00457354       0.00893064       0.01209304       0.02161224      -0.01429216      -0.00457354       0.00825496       0.00893064       0.02161224       0.01209304       0.03053335       0.02161224       0.02161224      -0.00288053       0.00249677       0.00249677       0.15513090      -0.07256506       0.16258362       0.15513090      -0.07256506      -0.16258362       0.00789575      -0.00400297      -0.00580921       0.00789575      -0.00400297       0.00580921       0.15513090       0.07256506      -0.16258362       0.15513090       0.07256506       0.16258362       0.00789575       0.00400297       0.00580921       0.00789575       0.00400297      -0.00580921      -0.01429216       0.00825496       0.00457354       0.00893064       0.01209304      -0.02161224       0.97443534       0.37866366      -0.37866366      -0.00582368       0.00825496      -0.00825496       0.03053335       0.02161224      -0.02161224      -0.00288053       0.00249677      -0.00249677      -0.01429216      -0.00457354      -0.00825496       0.00893064       0.02161224      -0.01209304       0.15513090      -0.16258362       0.07256506       0.15513090       0.16258362       0.07256506       0.15513090       0.16258362      -0.07256506       0.15513090      -0.16258362      -0.07256506       0.00789575       0.00580921       0.00400297       0.00789575      -0.00580921       0.00400297       0.00789575      -0.00580921      -0.00400297       0.00789575       0.00580921      -0.00400297       0.97443534      -0.37866366       0.37866366      -0.00582368      -0.00825496       0.00825496      -0.01429216      -0.00825496      -0.00457354       0.00893064      -0.01209304       0.02161224      -0.01429216       0.00457354       0.00825496       0.00893064      -0.02161224       0.01209304       0.03053335      -0.02161224       0.02161224      -0.00288053      -0.00249677       0.00249677 </v>
    <v>       0.00000000      -4.71365992       0.00000000       0.00000000       0.00851819      -0.00000000       0.00000000       0.01700445      -0.00000000       0.00000000       0.01397774       0.00000000      -0.00000000       0.00851819       0.00000000      -0.00000000      -0.05036874      -0.00000000      -0.00000000       0.01397774       0.00000000      -0.00000000       0.00526528      -0.00000000      -0.00825496      -0.00582368       0.00825496      -0.01209304       0.00893064       0.02161224      -0.37866366       0.97443534       0.37866366      -0.00825496      -0.01429216      -0.00457354      -0.02161224       0.00893064       0.01209304      -0.00249677      -0.00288053       0.00249677       0.00457354      -0.01429216       0.00825496      -0.02161224       0.03053335       0.02161224      -0.07256506       0.15513090      -0.16258362      -0.00400297       0.00789575       0.00580921      -0.07256506       0.15513090       0.16258362      -0.00400297       0.00789575      -0.00580921       0.07256506       0.15513090       0.16258362       0.00400297       0.00789575      -0.00580921       0.07256506       0.15513090      -0.16258362       0.00400297       0.00789575       0.00580921       0.37866366       0.97443534       0.37866366       0.00825496      -0.01429216      -0.00457354       0.00825496      -0.00582368       0.00825496       0.01209304       0.00893064       0.02161224      -0.00457354      -0.01429216       0.00825496       0.02161224       0.03053335       0.02161224       0.02161224       0.00893064       0.01209304       0.00249677      -0.00288053       0.00249677       0.07256506      -0.13065103       0.07256506       0.07256506      -0.13065103      -0.07256506       0.00400297      -0.00675196       0.00400297       0.00400297      -0.00675196      -0.00400297      -0.07256506      -0.13065103       0.07256506      -0.07256506      -0.13065103      -0.07256506      -0.00400297      -0.00675196       0.00400297      -0.00400297      -0.00675196      -0.00400297       0.00825496      -0.00582368      -0.00825496       0.01209304       0.00893064      -0.02161224       0.37866366       0.97443534      -0.37866366       0.00825496      -0.01429216       0.00457354       0.02161224       0.00893064      -0.01209304       0.00249677      -0.00288053      -0.00249677      -0.00457354      -0.01429216      -0.00825496       0.02161224       0.03053335      -0.02161224      -0.16258362       0.15513090      -0.07256506       0.16258362       0.15513090       0.07256506       0.16258362       0.15513090      -0.07256506      -0.16258362       0.15513090       0.07256506       0.00580921       0.00789575      -0.00400297      -0.00580921       0.00789575       0.00400297      -0.00580921       0.00789575      -0.00400297       0.00580921       0.00789575       0.00400297      -0.37866366       0.97443534      -0.37866366      -0.00825496      -0.01429216       0.00457354      -0.00825496      -0.00582368      -0.00825496      -0.01209304       0.00893064      -0.02161224       0.00457354      -0.01429216      -0.00825496      -0.02161224       0.03053335      -0.02161224      -0.02161224       0.00893064      -0.01209304      -0.00249677      -0.00288053      -0.00249677 </v>
    <v>       0.00000000       0.00000000      -4.71365992      -0.00000000      -0.00000000       0.00851819      -0.00000000      -0.00000000       0.00851819       0.00000000       0.00000000      -0.05036874       0.00000000       0.00000000       0.01700445       0.00000000      -0.00000000       0.01397774      -0.00000000       0.00000000       0.01397774      -0.00000000      -0.00000000       0.00526528       0.00457354       0.00825496      -0.01429216      -0.02161224       0.02161224       0.03053335      -0.37866366       0.37866366       0.97443534      -0.00825496      -0.00457354      -0.01429216      -0.02161224       0.01209304       0.00893064      -0.00249677       0.00249677      -0.00288053      -0.00825496       0.00825496      -0.00582368      -0.01209304       0.02161224       0.00893064       0.07256506      -0.16258362       0.15513090       0.00400297       0.00580921       0.00789575      -0.07256506       0.16258362       0.15513090      -0.00400297      -0.00580921       0.00789575       0.07256506       0.16258362       0.15513090       0.00400297      -0.00580921       0.00789575      -0.07256506      -0.16258362       0.15513090      -0.00400297       0.00580921       0.00789575       0.37866366       0.37866366       0.97443534       0.00825496      -0.00457354      -0.01429216      -0.00457354       0.00825496      -0.01429216       0.02161224       0.02161224       0.03053335       0.00825496       0.00825496      -0.00582368       0.01209304       0.02161224       0.00893064       0.02161224       0.01209304       0.00893064       0.00249677       0.00249677      -0.00288053       0.16258362      -0.07256506       0.15513090      -0.16258362       0.07256506       0.15513090      -0.00580921      -0.00400297       0.00789575       0.00580921       0.00400297       0.00789575      -0.16258362      -0.07256506       0.15513090       0.16258362       0.07256506       0.15513090       0.00580921      -0.00400297       0.00789575      -0.00580921       0.00400297       0.00789575       0.00457354      -0.00825496      -0.01429216      -0.02161224      -0.02161224       0.03053335      -0.37866366      -0.37866366       0.97443534      -0.00825496       0.00457354      -0.01429216      -0.02161224      -0.01209304       0.00893064      -0.00249677      -0.00249677      -0.00288053      -0.00825496      -0.00825496      -0.00582368      -0.01209304      -0.02161224       0.00893064      -0.07256506       0.07256506      -0.13065103      -0.07256506      -0.07256506      -0.13065103       0.07256506       0.07256506      -0.13065103       0.07256506      -0.07256506      -0.13065103      -0.00400297       0.00400297      -0.00675196      -0.00400297      -0.00400297      -0.00675196       0.00400297       0.00400297      -0.00675196       0.00400297      -0.00400297      -0.00675196       0.37866366      -0.37866366       0.97443534       0.00825496       0.00457354      -0.01429216      -0.00457354      -0.00825496      -0.01429216       0.02161224      -0.02161224       0.03053335       0.00825496      -0.00825496      -0.00582368       0.01209304      -0.02161224       0.00893064       0.02161224      -0.01209304       0.00893064       0.00249677      -0.00249677      -0.00288053 </v>
    <v>       0.01700445       0.00000000      -0.00000000      -4.71365992       0.00000000       0.00000000       0.01397774       0.00000000       0.00000000       0.00851819       0.00000000      -0.00000000       0.01397774      -0.00000000       0.00000000       0.00851819      -0.00000000       0.00000000       0.00526528      -0.00000000      -0.00000000      -0.05036874      -0.00000000      -0.00000000       0.00893064      -0.01209304      -0.02161224      -0.01429216      -0.00825496       0.00457354      -0.00582368      -0.00825496      -0.00825496       0.97443534      -0.37866366      -0.37866366      -0.00288053      -0.00249677      -0.00249677       0.03053335      -0.02161224      -0.02161224       0.00893064      -0.02161224      -0.01209304      -0.01429216       0.00457354      -0.00825496      -0.00675196       0.00400297      -0.00400297      -0.13065103       0.07256506      -0.07256506      -0.00675196       0.00400297       0.00400297      -0.13065103       0.07256506       0.07256506      -0.00675196      -0.00400297      -0.00400297      -0.13065103      -0.07256506      -0.07256506      -0.00675196      -0.00400297       0.00400297      -0.13065103      -0.07256506       0.07256506      -0.00582368       0.00825496       0.00825496       0.97443534       0.37866366       0.37866366       0.00893064       0.01209304       0.02161224      -0.01429216       0.00825496      -0.00457354       0.00893064       0.02161224       0.01209304      -0.01429216      -0.00457354       0.00825496      -0.00288053       0.00249677       0.00249677       0.03053335       0.02161224       0.02161224       0.15513090      -0.07256506      -0.16258362       0.15513090      -0.07256506       0.16258362       0.00789575      -0.00400297       0.00580921       0.00789575      -0.00400297      -0.00580921       0.15513090       0.07256506       0.16258362       0.15513090       0.07256506      -0.16258362       0.00789575       0.00400297      -0.00580921       0.00789575       0.00400297       0.00580921       0.00893064       0.01209304      -0.02161224      -0.01429216       0.00825496       0.00457354      -0.00582368       0.00825496      -0.00825496       0.97443534       0.37866366      -0.37866366      -0.00288053       0.00249677      -0.00249677       0.03053335       0.02161224      -0.02161224       0.00893064       0.02161224      -0.01209304      -0.01429216      -0.00457354      -0.00825496       0.15513090       0.16258362       0.07256506       0.15513090      -0.16258362       0.07256506       0.15513090      -0.16258362      -0.07256506       0.15513090       0.16258362      -0.07256506       0.00789575      -0.00580921       0.00400297       0.00789575       0.00580921       0.00400297       0.00789575       0.00580921      -0.00400297       0.00789575      -0.00580921      -0.00400297      -0.00582368      -0.00825496       0.00825496       0.97443534      -0.37866366       0.37866366       0.00893064      -0.01209304       0.02161224      -0.01429216      -0.00825496      -0.00457354       0.00893064      -0.02161224       0.01209304      -0.01429216       0.00457354       0.00825496      -0.00288053      -0.00249677       0.00249677       0.03053335      -0.02161224       0.02161224 </v>
    <v>       0.00000000       0.00851819      -0.00000000       0.00000000      -4.71365992       0.00000000       0.00000000       0.01397774       0.00000000       0.00000000       0.01700445      -0.00000000      -0.00000000      -0.05036874      -0.00000000      -0.00000000       0.00851819       0.00000000      -0.00000000       0.00526528      -0.00000000      -0.00000000       0.01397774       0.00000000      -0.01209304       0.00893064       0.02161224      -0.00825496      -0.00582368       0.00825496      -0.00825496      -0.01429216      -0.00457354      -0.37866366       0.97443534       0.37866366      -0.00249677      -0.00288053       0.00249677      -0.02161224       0.00893064       0.01209304      -0.02161224       0.03053335       0.02161224       0.00457354      -0.01429216       0.00825496      -0.00400297       0.00789575       0.00580921      -0.07256506       0.15513090      -0.16258362      -0.00400297       0.00789575      -0.00580921      -0.07256506       0.15513090       0.16258362       0.00400297       0.00789575      -0.00580921       0.07256506       0.15513090       0.16258362       0.00400297       0.00789575       0.00580921       0.07256506       0.15513090      -0.16258362       0.00825496      -0.01429216      -0.00457354       0.37866366       0.97443534       0.37866366       0.01209304       0.00893064       0.02161224       0.00825496      -0.00582368       0.00825496       0.02161224       0.03053335       0.02161224      -0.00457354      -0.01429216       0.00825496       0.00249677      -0.00288053       0.00249677       0.02161224       0.00893064       0.01209304       0.07256506      -0.13065103      -0.07256506       0.07256506      -0.13065103       0.07256506       0.00400297      -0.00675196      -0.00400297       0.00400297      -0.00675196       0.00400297      -0.07256506      -0.13065103      -0.07256506      -0.07256506      -0.13065103       0.07256506      -0.00400297      -0.00675196      -0.00400297      -0.00400297      -0.00675196       0.00400297       0.01209304       0.00893064      -0.02161224       0.00825496      -0.00582368      -0.00825496       0.00825496      -0.01429216       0.00457354       0.37866366       0.97443534      -0.37866366       0.00249677      -0.00288053      -0.00249677       0.02161224       0.00893064      -0.01209304       0.02161224       0.03053335      -0.02161224      -0.00457354      -0.01429216      -0.00825496       0.16258362       0.15513090       0.07256506      -0.16258362       0.15513090      -0.07256506      -0.16258362       0.15513090       0.07256506       0.16258362       0.15513090      -0.07256506      -0.00580921       0.00789575       0.00400297       0.00580921       0.00789575      -0.00400297       0.00580921       0.00789575       0.00400297      -0.00580921       0.00789575      -0.00400297      -0.00825496      -0.01429216       0.00457354      -0.37866366       0.97443534      -0.37866366      -0.01209304       0.00893064      -0.02161224      -0.00825496      -0.00582368      -0.00825496      -0.02161224       0.03053335      -0.02161224       0.00457354      -0.01429216      -0.00825496      -0.00249677      -0.00288053      -0.00249677      -0.02161224       0.00893064      -0.01209304 </v>
    <v>      -0.00000000      -0.00000000       0.00851819       0.00000000       0.00000000      -4.71365992       0.00000000       0.00000000      -0.05036874      -0.00000000      -0.00000000       0.00851819       0.00000000      -0.00000000       0.01397774       0.00000000       0.00000000       0.01700445      -0.00000000      -0.00000000       0.00526528      -0.00000000       0.00000000       0.01397774      -0.02161224       0.02161224       0.03053335       0.00457354       0.00825496      -0.01429216      -0.00825496      -0.00457354      -0.01429216      -0.37866366       0.37866366       0.97443534      -0.00249677       0.00249677      -0.00288053      -0.02161224       0.01209304       0.00893064      -0.01209304       0.02161224       0.00893064      -0.00825496       0.00825496      -0.00582368       0.00400297       0.00580921       0.00789575       0.07256506      -0.16258362       0.15513090      -0.00400297      -0.00580921       0.00789575      -0.07256506       0.16258362       0.15513090       0.00400297      -0.00580921       0.00789575       0.07256506       0.16258362       0.15513090      -0.00400297       0.00580921       0.00789575      -0.07256506      -0.16258362       0.15513090       0.00825496      -0.00457354      -0.01429216       0.37866366       0.37866366       0.97443534       0.02161224       0.02161224       0.03053335      -0.00457354       0.00825496      -0.01429216       0.01209304       0.02161224       0.00893064       0.00825496       0.00825496      -0.00582368       0.00249677       0.00249677      -0.00288053       0.02161224       0.01209304       0.00893064      -0.16258362       0.07256506       0.15513090       0.16258362      -0.07256506       0.15513090       0.00580921       0.00400297       0.00789575      -0.00580921      -0.00400297       0.00789575       0.16258362       0.07256506       0.15513090      -0.16258362      -0.07256506       0.15513090      -0.00580921       0.00400297       0.00789575       0.00580921      -0.00400297       0.00789575      -0.02161224      -0.02161224       0.03053335       0.00457354      -0.00825496      -0.01429216      -0.00825496       0.00457354      -0.01429216      -0.37866366      -0.37866366       0.97443534      -0.00249677      -0.00249677      -0.00288053      -0.02161224      -0.01209304       0.00893064      -0.01209304      -0.02161224       0.00893064      -0.00825496      -0.00825496      -0.00582368      -0.07256506      -0.07256506      -0.13065103      -0.07256506       0.07256506      -0.13065103       0.07256506      -0.07256506      -0.13065103       0.07256506       0.07256506      -0.13065103      -0.00400297      -0.00400297      -0.00675196      -0.00400297       0.00400297      -0.00675196       0.00400297      -0.00400297      -0.00675196       0.00400297       0.00400297      -0.00675196       0.00825496       0.00457354      -0.01429216       0.37866366      -0.37866366       0.97443534       0.02161224      -0.02161224       0.03053335      -0.00457354      -0.00825496      -0.01429216       0.01209304      -0.02161224       0.00893064       0.00825496      -0.00825496      -0.00582368       0.00249677      -0.00249677      -0.00288053       0.02161224      -0.01209304       0.00893064 </v>
[...]
      </set>
     </set>
    </set>
   </array>
  </eigenvalues>
  <separator name="orbital magnetization" >
   <v name="MAGDIPOLOUT">      0.00000000      0.00000000      0.00000000</v>
  </separator>
  <dos>
   <i name="efermi">     11.86414076 </i>
   <total>
    <array>
     <dimension dim="1">gridpoints</dimension>
     <dimension dim="2">spin</dimension>
     <field>energy</field>
     <field>total</field>
     <field>integrated</field>
     <set>
      <set comment="spin 1">
       <r>   -13.3769     0.0000     0.0000 </r>
       <r>   -13.2454     0.0000     0.0000 </r>
       <r>   -13.1140     0.0000     0.0000 </r>
       <r>   -12.9826     0.0000     0.0000 </r>
       <r>   -12.8512     0.0000     0.0000 </r>
       <r>   -12.7198     0.0000     0.0000 </r>
       <r>   -12.5883     0.0000     0.0000 </r>
       <r>   -12.4569     0.0000     0.0000 </r>
       <r>   -12.3255     0.0000     0.0000 </r>
       <r>   -12.1941     0.0000     0.0000 </r>
       <r>   -12.0627     0.0000     0.0000 </r>
       <r>   -11.9312     0.0000     0.0000 </r>
       <r>   -11.7998     0.0000     0.0000 </r>
       <r>   -11.6684     0.0011     0.0001 </r>
       <r>   -11.5370     0.2263     0.0299 </r>
       <r>   -11.4055     1.0017     0.1615 </r>
       <r>   -11.2741     1.4972     0.3583 </r>
       <r>   -11.1427     2.1088     0.6354 </r>
       <r>   -11.0113     2.2593     0.9323 </r>
       <r>   -10.8799     2.4806     1.2584 </r>
       <r>   -10.7484     3.0930     1.6648 </r>
       <r>   -10.6170     2.3235     1.9702 </r>
       <r>   -10.4856     3.8393     2.4748 </r>
       <r>   -10.3542     3.3282     2.9122 </r>
       <r>   -10.2228     3.6552     3.3925 </r>
       <r>   -10.0913     3.7902     3.8906 </r>
       <r>    -9.9599     4.3996     4.4688 </r>
       <r>    -9.8285     4.2748     5.0306 </r>
       <r>    -9.6971     3.1349     5.4426 </r>
       <r>    -9.5657     5.3051     6.1398 </r>
       <r>    -9.4342     5.4258     6.8529 </r>
       <r>    -9.3028     4.1228     7.3947 </r>
       <r>    -9.1714     5.0052     8.0525 </r>
       <r>    -9.0400     4.9629     8.7047 </r>
       <r>    -8.9086     6.1393     9.5116 </r>
       <r>    -8.7771     4.2512    10.0703 </r>
       <r>    -8.6457     6.7254    10.9541 </r>
       <r>    -8.5143     4.6822    11.5695 </r>
       <r>    -8.3829     5.8414    12.3371 </r>
       <r>    -8.2514     6.3150    13.1671 </r>
       <r>    -8.1200     7.4650    14.1481 </r>
       <r>    -7.9886     5.5746    14.8807 </r>
       <r>    -7.8572     4.4049    15.4596 </r>
       <r>    -7.7258     7.6832    16.4694 </r>
       <r>    -7.5943     6.7104    17.3513 </r>
       <r>    -7.4629     7.3841    18.3217 </r>
       <r>    -7.3315     6.9662    19.2372 </r>
       <r>    -7.2001     6.3910    20.0771 </r>
       <r>    -7.0687     7.7974    21.1019 </r>
       <r>    -6.9372     6.3907    21.9417 </r>
       <r>    -6.8058     7.4645    22.9227 </r>
       <r>    -6.6744     7.6308    23.9256 </r>
       <r>    -6.5430     8.7613    25.0770 </r>
       <r>    -6.4116     7.7104    26.0903 </r>
       <r>    -6.2801     7.9806    27.1391 </r>
       <r>    -6.1487     5.9468    27.9207 </r>
       <r>    -6.0173     8.9991    29.1033 </r>
       <r>    -5.8859    10.2119    30.4454 </r>
       <r>    -5.7545     9.5916    31.7059 </r>
       <r>    -5.6230     6.7148    32.5884 </r>
       <r>    -5.4916     9.5689    33.8459 </r>
       <r>    -5.3602     9.8634    35.1422 </r>
       <r>    -5.2288     7.3476    36.1078 </r>
       <r>    -5.0974    13.0327    37.8206 </r>
       <r>    -4.9659     9.2455    39.0356 </r>
       <r>    -4.8345    11.1352    40.4990 </r>
       <r>    -4.7031    11.4620    42.0054 </r>
       <r>    -4.5717    11.7284    43.5467 </r>
       <r>    -4.4402     8.0897    44.6099 </r>
       <r>    -4.3088     7.9080    45.6491 </r>
       <r>    -4.1774     9.6693    46.9199 </r>
       <r>    -4.0460    11.3560    48.4123 </r>
       <r>    -3.9146     8.2008    49.4901 </r>
       <r>    -3.7831    10.1591    50.8252 </r>
       <r>    -3.6517     6.4521    51.6731 </r>
       <r>    -3.5203     9.7825    52.9588 </r>
       <r>    -3.3889     7.6927    53.9697 </r>
       <r>    -3.2575     5.0110    54.6283 </r>
       <r>    -3.1260     8.3813    55.7298 </r>
       <r>    -2.9946    11.0454    57.1814 </r>
       <r>    -2.8632     7.5353    58.1717 </r>
       <r>    -2.7318     8.3598    59.2703 </r>
       <r>    -2.6004    10.1438    60.6034 </r>
       <r>    -2.4689     9.5577    61.8595 </r>
       <r>    -2.3375     9.5944    63.1204 </r>
       <r>    -2.2061     8.9320    64.2942 </r>
       <r>    -2.0747     6.8086    65.1890 </r>
       <r>    -1.9433     9.4307    66.4284 </r>
       <r>    -1.8118    13.5298    68.2065 </r>
       <r>    -1.6804     9.4627    69.4501 </r>
       <r>    -1.5490     7.6173    70.4512 </r>
       <r>    -1.4176     9.9015    71.7524 </r>
       <r>    -1.2861     8.2465    72.8362 </r>
       <r>    -1.1547    10.3312    74.1939 </r>
       <r>    -1.0233    10.6896    75.5988 </r>
       <r>    -0.8919    12.6927    77.2669 </r>
       <r>    -0.7605    17.8667    79.6149 </r>
       <r>    -0.6290    21.9982    82.5059 </r>
       <r>    -0.4976    17.8731    84.8548 </r>
       <r>    -0.3662    11.3399    86.3451 </r>
       <r>    -0.2348     9.3187    87.5698 </r>
       <r>    -0.1034    10.9571    89.0098 </r>
       <r>     0.0281     8.9994    90.1925 </r>
       <r>     0.1595    11.5412    91.7092 </r>
       <r>     0.2909    18.3458    94.1203 </r>
       <r>     0.4223     9.7279    95.3987 </r>
       <r>     0.5537     6.4281    96.2435 </r>
       <r>     0.6852     6.7008    97.1241 </r>
       <r>     0.8166     9.8087    98.4132 </r>
       <r>     0.9480     8.5939    99.5426 </r>
       <r>     1.0794     8.1868   100.6185 </r>
       <r>     1.2108    10.0959   101.9453 </r>
       <r>     1.3423    15.3530   103.9630 </r>
       <r>     1.4737    12.7204   105.6348 </r>
       <r>     1.6051    10.9511   107.0740 </r>
       <r>     1.7365    15.3350   109.0893 </r>
       <r>     1.8679    15.3826   111.1109 </r>
       <r>     1.9994     9.9478   112.4183 </r>
       <r>     2.1308    11.3265   113.9068 </r>
       <r>     2.2622    20.5332   116.6053 </r>
       <r>     2.3936    19.0126   119.1039 </r>
       <r>     2.5251    14.7830   121.0467 </r>
       <r>     2.6565    10.0491   122.3674 </r>
       <r>     2.7879    12.9786   124.0730 </r>
       <r>     2.9193    17.5765   126.3830 </r>
       <r>     3.0507    15.6054   128.4338 </r>
       <r>     3.1822    15.7260   130.5006 </r>
       <r>     3.3136    14.3788   132.3902 </r>
       <r>     3.4450    22.3905   135.3328 </r>
       <r>     3.5764    12.9220   137.0310 </r>
       <r>     3.7078    11.9299   138.5989 </r>
       <r>     3.8393    22.0256   141.4935 </r>
       <r>     3.9707    16.8641   143.7098 </r>
       <r>     4.1021    18.7114   146.1689 </r>
       <r>     4.2335    20.2247   148.8268 </r>
       <r>     4.3649    18.4944   151.2574 </r>
       <r>     4.4964    20.5983   153.9644 </r>
       <r>     4.6278    21.7161   156.8183 </r>
       <r>     4.7592    25.9662   160.2308 </r>
       <r>     4.8906    25.5925   163.5942 </r>
       <r>     5.0220    18.0087   165.9609 </r>
       <r>     5.1535    20.6502   168.6748 </r>
       <r>     5.2849    25.1337   171.9779 </r>
       <r>     5.4163    26.8026   175.5003 </r>
       <r>     5.5477    19.3684   178.0457 </r>
       <r>     5.6792    16.9360   180.2715 </r>
       <r>     5.8106    21.3119   183.0723 </r>
       <r>     5.9420    23.5555   186.1680 </r>
       <r>     6.0734    26.6716   189.6732 </r>
       <r>     6.2048    16.7417   191.8734 </r>
       <r>     6.3363    18.4492   194.2980 </r>
       <r>     6.4677    21.6592   197.1445 </r>
       <r>     6.5991    21.1386   199.9225 </r>
       <r>     6.7305    20.7719   202.6524 </r>
       <r>     6.8619    19.6362   205.2330 </r>
       <r>     6.9934    17.0640   207.4756 </r>
       <r>     7.1248    20.7206   210.1987 </r>
       <r>     7.2562    24.1268   213.3694 </r>
       <r>     7.3876    15.0940   215.3531 </r>
       <r>     7.5190    19.5031   217.9162 </r>
       <r>     7.6505    16.2189   220.0477 </r>
       <r>     7.7819    19.2223   222.5739 </r>
       <r>     7.9133    24.3683   225.7764 </r>
       <r>     8.0447    14.9352   227.7392 </r>
       <r>     8.1761    17.1883   229.9981 </r>
       <r>     8.3076    15.7683   232.0704 </r>
       <r>     8.4390    18.6852   234.5260 </r>
       <r>     8.5704    21.4146   237.3403 </r>
       <r>     8.7018     9.1798   238.5467 </r>
       <r>     8.8332    10.5558   239.9340 </r>
       <r>     8.9647    14.9761   241.9022 </r>
       <r>     9.0961    10.1770   243.2396 </r>
       <r>     9.2275    10.2624   244.5883 </r>
       <r>     9.3589     6.3225   245.4192 </r>
       <r>     9.4904     9.7441   246.6998 </r>
       <r>     9.6218     9.1159   247.8978 </r>
       <r>     9.7532     7.2293   248.8479 </r>
       <r>     9.8846     6.8730   249.7512 </r>
       <r>    10.0160     4.4031   250.3298 </r>
       <r>    10.1475     7.1153   251.2649 </r>
       <r>    10.2789     6.1118   252.0682 </r>
       <r>    10.4103     5.0802   252.7358 </r>
       <r>    10.5417     3.8499   253.2418 </r>
       <r>    10.6731     3.6647   253.7234 </r>
       <r>    10.8046     5.0233   254.3835 </r>
       <r>    10.9360     2.6096   254.7265 </r>
       <r>    11.0674     3.3161   255.1623 </r>
       <r>    11.1988     2.0775   255.4353 </r>
       <r>    11.3302     2.0167   255.7004 </r>
       <r>    11.4617     1.7004   255.9238 </r>
       <r>    11.5931     0.5342   255.9940 </r>
       <r>    11.7245     0.0454   256.0000 </r>
       <r>    11.8559     0.0000   256.0000 </r>
       <r>    11.9873     0.0000   256.0000 </r>
       <r>    12.1188     0.0000   256.0000 </r>
       <r>    12.2502     0.0000   256.0000 </r>
       <r>    12.3816     0.0000   256.0000 </r>
       <r>    12.5130     0.0000   256.0000 </r>
       <r>    12.6445     0.0000   256.0000 </r>
       <r>    12.7759     0.0000   256.0000 </r>
       <r>    12.9073     0.0000   256.0000 </r>
       <r>    13.0387     0.0000   256.0000 </r>
       <r>    13.1701     0.0000   256.0000 </r>
       <r>    13.3016     0.0000   256.0000 </r>
       <r>    13.4330     0.0000   256.0000 </r>
       <r>    13.5644     0.0000   256.0000 </r>
       <r>    13.6958     0.0000   256.0000 </r>
       <r>    13.8272     0.0000   256.0000 </r>
       <r>    13.9587     0.0000   256.0000 </r>
       <r>    14.0901     0.0000   256.0000 </r>
       <r>    14.2215     0.0000   256.0000 </r>
       <r>    14.3529     0.0000   256.0000 </r>
       <r>    14.4843     0.0000   256.0000 </r>
       <r>    14.6158     0.0000   256.0000 </r>
       <r>    14.7472     0.0000   256.0000 </r>
       <r>    14.8786     0.0000   256.0000 </r>
       <r>    15.0100     0.0000   256.0000 </r>
       <r>    15.1414     0.0000   256.0000 </r>
       <r>    15.2729     0.0000   256.0000 </r>
       <r>    15.4043     0.0000   256.0000 </r>
       <r>    15.5357     0.0000   256.0000 </r>
       <r>    15.6671     0.0000   256.0000 </r>
       <r>    15.7985     0.0000   256.0000 </r>
       <r>    15.9300     0.0585   256.0077 </r>
       <r>    16.0614     0.6019   256.0868 </r>
       <r>    16.1928     2.1787   256.3731 </r>
       <r>    16.3242     3.7610   256.8674 </r>
       <r>    16.4557     3.1450   257.2807 </r>
       <r>    16.5871     2.8771   257.6588 </r>
       <r>    16.7185     7.3545   258.6253 </r>
       <r>    16.8499    10.1045   259.9533 </r>
       <r>    16.9813     6.1486   260.7613 </r>
       <r>    17.1128     6.3147   261.5912 </r>
       <r>    17.2442     8.6356   262.7261 </r>
       <r>    17.3756    11.9082   264.2911 </r>
       <r>    17.5070    14.2000   266.1573 </r>
       <r>    17.6384    12.2683   267.7696 </r>
       <r>    17.7699    12.6277   269.4291 </r>
       <r>    17.9013    11.8644   270.9884 </r>
       <r>    18.0327    13.4179   272.7518 </r>
       <r>    18.1641    14.5235   274.6604 </r>
       <r>    18.2955    17.0983   276.9075 </r>
       <r>    18.4270    15.9580   279.0047 </r>
       <r>    18.5584    17.0962   281.2515 </r>
       <r>    18.6898    15.7091   283.3160 </r>
       <r>    18.8212    18.6619   285.7686 </r>
       <r>    18.9526    15.1776   287.7632 </r>
       <r>    19.0841    15.6032   289.8138 </r>
       <r>    19.2155    24.8083   293.0741 </r>
       <r>    19.3469    16.8733   295.2916 </r>
       <r>    19.4783    20.8377   298.0302 </r>
       <r>    19.6098    24.2455   301.2165 </r>
       <r>    19.7412    19.5293   303.7831 </r>
       <r>    19.8726    22.7530   306.7733 </r>
       <r>    20.0040    25.9687   310.1861 </r>
       <r>    20.1354    33.0101   314.5243 </r>
       <r>    20.2669    27.3656   318.1207 </r>
       <r>    20.3983    28.0083   321.8016 </r>
       <r>    20.5297    26.5460   325.2903 </r>
       <r>    20.6611    27.8596   328.9516 </r>
       <r>    20.7925    20.2200   331.6090 </r>
       <r>    20.9240    20.4187   334.2924 </r>
       <r>    21.0554    32.9535   338.6232 </r>
       <r>    21.1868    25.2673   341.9439 </r>
       <r>    21.3182    18.2512   344.3424 </r>
       <r>    21.4496    25.9777   347.7565 </r>
       <r>    21.5811    18.2406   350.1536 </r>
       <r>    21.7125    21.7050   353.0061 </r>
       <r>    21.8439    24.2516   356.1933 </r>
       <r>    21.9753    25.5195   359.5471 </r>
       <r>    22.1067    34.8803   364.1311 </r>
       <r>    22.2382    29.9761   368.0706 </r>
       <r>    22.3696    21.0116   370.8319 </r>
       <r>    22.5010    21.5730   373.6671 </r>
       <r>    22.6324    18.9776   376.1611 </r>
       <r>    22.7639    15.3212   378.1746 </r>
       <r>    22.8953    14.5390   380.0854 </r>
       <r>    23.0267     9.3293   381.3114 </r>
       <r>    23.1581     7.0645   382.2399 </r>
       <r>    23.2895     3.6639   382.7214 </r>
       <r>    23.4210     2.5041   383.0504 </r>
       <r>    23.5524     2.0605   383.3212 </r>
       <r>    23.6838     3.0228   383.7185 </r>
       <r>    23.8152     0.2748   383.7546 </r>
       <r>    23.9466     0.8329   383.8641 </r>
       <r>    24.0781     0.3206   383.9062 </r>
       <r>    24.2095     0.1025   383.9197 </r>
       <r>    24.3409     0.5961   383.9980 </r>
       <r>    24.4723     0.0151   384.0000 </r>
       <r>    24.6037     0.0000   384.0000 </r>
       <r>    24.7352     0.0000   384.0000 </r>
       <r>    24.8666     0.0000   384.0000 </r>
       <r>    24.9980     0.0000   384.0000 </r>
       <r>    25.1294     0.0000   384.0000 </r>
       <r>    25.2608     0.0000   384.0000 </r>
       <r>    25.3923     0.0000   384.0000 </r>
       <r>    25.5237     0.0000   384.0000 </r>
       <r>    25.6551     0.0000   384.0000 </r>
       <r>    25.7865     0.0000   384.0000 </r>
       <r>    25.9179     0.0000   384.0000 </r>
       <r>    26.0494     0.0000   384.0000 </r>
      </set>
     </set>
    </array>
   </total>
  </dos>
 </calculation>
 <structure name="finalpos" >
  <crystal>
   <varray name="basis" >
    <v>       6.85556400       0.00000000       0.00000000 </v>
    <v>       0.00000000       6.85556400       0.00000000 </v>
    <v>       0.00000000       0.00000000       6.85556400 </v>
   </varray>
   <i name="volume">    322.20299173 </i>
   <varray name="rec_basis" >
    <v>       0.14586692       0.00000000       0.00000000 </v>
    <v>       0.00000000       0.14586692       0.00000000 </v>
    <v>       0.00000000       0.00000000       0.14586692 </v>
   </varray>
  </crystal>
  <varray name="positions" >
   <v>       0.12500000       0.37500000       0.12500000 </v>
   <v>       0.62500000       0.37500000       0.12500000 </v>
   <v>       0.12500000       0.87500000       0.12500000 </v>
   <v>       0.62500000       0.87500000       0.12500000 </v>
   <v>       0.12500000       0.37500000       0.62500000 </v>
   <v>       0.62500000       0.37500000       0.62500000 </v>
   <v>       0.12500000       0.87500000       0.62500000 </v>
   <v>       0.62500000       0.87500000       0.62500000 </v>
   <v>       0.00000000       0.00000000       0.25000000 </v>
   <v>       0.50000000       0.00000000       0.25000000 </v>
   <v>       0.00000000       0.50000000       0.25000000 </v>
   <v>       0.50000000       0.50000000       0.25000000 </v>
   <v>       0.00000000       0.00000000       0.75000000 </v>
   <v>       0.50000000       0.00000000       0.75000000 </v>
   <v>       0.00000000       0.50000000       0.75000000 </v>
   <v>       0.50000000       0.50000000       0.75000000 </v>
   <v>       0.12500000       0.12500000       0.37500000 </v>
   <v>       0.62500000       0.12500000       0.37500000 </v>
   <v>       0.12500000       0.62500000       0.37500000 </v>
   <v>       0.62500000       0.62500000       0.37500000 </v>
   <v>       0.12500000       0.12500000       0.87500000 </v>
   <v>       0.62500000       0.12500000       0.87500000 </v>
   <v>       0.12500000       0.62500000       0.87500000 </v>
   <v>       0.62500000       0.62500000       0.87500000 </v>
   <v>       0.00000000       0.25000000       0.00000000 </v>
   <v>       0.50000000       0.25000000       0.00000000 </v>
   <v>       0.00000000       0.75000000       0.00000000 </v>
   <v>       0.50000000       0.75000000       0.00000000 </v>
   <v>       0.00000000       0.25000000       0.50000000 </v>
   <v>       0.50000000       0.25000000       0.50000000 </v>
   <v>       0.00000000       0.75000000       0.50000000 </v>
   <v>       0.50000000       0.75000000       0.50000000 </v>
   <v>       0.37500000       0.37500000       0.37500000 </v>
   <v>       0.87500000       0.37500000       0.37500000 </v>
   <v>       0.37500000       0.87500000       0.37500000 </v>
   <v>       0.87500000       0.87500000       0.37500000 </v>
   <v>       0.37500000       0.37500000       0.87500000 </v>
   <v>       0.87500000       0.37500000       0.87500000 </v>
   <v>       0.37500000       0.87500000       0.87500000 </v>
   <v>       0.87500000       0.87500000       0.87500000 </v>
   <v>       0.25000000       0.00000000       0.00000000 </v>
   <v>       0.75000000       0.00000000       0.00000000 </v>
   <v>       0.25000000       0.50000000       0.00000000 </v>
   <v>       0.75000000       0.50000000       0.00000000 </v>
   <v>       0.25000000       0.00000000       0.50000000 </v>
   <v>       0.75000000       0.00000000       0.50000000 </v>
   <v>       0.25000000       0.50000000       0.50000000 </v>
   <v>       0.75000000       0.50000000       0.50000000 </v>
   <v>       0.37500000       0.12500000       0.12500000 </v>
   <v>       0.87500000       0.12500000       0.12500000 </v>
   <v>       0.37500000       0.62500000       0.12500000 </v>
   <v>       0.87500000       0.62500000       0.12500000 </v>
   <v>       0.37500000       0.12500000       0.62500000 </v>
   <v>       0.87500000       0.12500000       0.62500000 </v>
   <v>       0.37500000       0.62500000       0.62500000 </v>
   <v>       0.87500000       0.62500000       0.62500000 </v>
   <v>       0.25000000       0.25000000       0.25000000 </v>
   <v>       0.75000000       0.25000000       0.25000000 </v>
   <v>       0.25000000       0.75000000       0.25000000 </v>
   <v>       0.75000000       0.75000000       0.25000000 </v>
   <v>       0.25000000       0.25000000       0.75000000 </v>
   <v>       0.75000000       0.25000000       0.75000000 </v>
   <v>       0.25000000       0.75000000       0.75000000 </v>
   <v>       0.75000000       0.75000000       0.75000000 </v>
  </varray>
 </structure>
</modeling>
