  64  64   0   0
  0.5770006E+01  0.7179999E-09  0.7179999E-09  0.7179999E-09  0.5000000E-15
  1.000000000000000E-004
  CAR 
 unknown system                          
     23.15711109    -13.41896800  301      9.87542237      1.00000000
    -13.419  0.0000E+00  0.0000E+00
    -13.297  0.0000E+00  0.0000E+00
    -13.175  0.0000E+00  0.0000E+00
    -13.053  0.0000E+00  0.0000E+00
    -12.931  0.0000E+00  0.0000E+00
    -12.809  0.0000E+00  0.0000E+00
    -12.687  0.0000E+00  0.0000E+00
    -12.566  0.0000E+00  0.0000E+00
    -12.444  0.0000E+00  0.0000E+00
    -12.322  0.0000E+00  0.0000E+00
    -12.200  0.0000E+00  0.0000E+00
    -12.078  0.1353E-14  0.1650E-15
    -11.956  0.9777E-07  0.1192E-07
    -11.834  0.2765E-02  0.3371E-03
    -11.712  0.2357E+00  0.2907E-01
    -11.590  0.1226E+01  0.1785E+00
    -11.468  0.1454E+01  0.3558E+00
    -11.346  0.2763E+01  0.6927E+00
    -11.224  0.1644E+01  0.8932E+00
    -11.102  0.3571E+01  0.1329E+01
    -10.981  0.2878E+01  0.1679E+01
    -10.859  0.3617E+01  0.2120E+01
    -10.737  0.2649E+01  0.2443E+01
    -10.615  0.4695E+01  0.3016E+01
    -10.493  0.4551E+01  0.3571E+01
    -10.371  0.4163E+01  0.4078E+01
    -10.249  0.3103E+01  0.4456E+01
    -10.127  0.4943E+01  0.5059E+01
    -10.005  0.6197E+01  0.5815E+01
     -9.883  0.4774E+01  0.6397E+01
     -9.761  0.5464E+01  0.7063E+01
     -9.639  0.4107E+01  0.7564E+01
     -9.518  0.5754E+01  0.8265E+01
     -9.396  0.5933E+01  0.8989E+01
     -9.274  0.7052E+01  0.9848E+01
     -9.152  0.5690E+01  0.1054E+02
     -9.030  0.6571E+01  0.1134E+02
     -8.908  0.6428E+01  0.1213E+02
     -8.786  0.5081E+01  0.1275E+02
     -8.664  0.5933E+01  0.1347E+02
     -8.542  0.9212E+01  0.1459E+02
     -8.420  0.6632E+01  0.1540E+02
     -8.298  0.8120E+01  0.1639E+02
     -8.176  0.6951E+01  0.1724E+02
     -8.054  0.7263E+01  0.1812E+02
     -7.933  0.6613E+01  0.1893E+02
     -7.811  0.7812E+01  0.1988E+02
     -7.689  0.7283E+01  0.2077E+02
     -7.567  0.9549E+01  0.2194E+02
     -7.445  0.1016E+02  0.2317E+02
     -7.323  0.9922E+01  0.2438E+02
     -7.201  0.6502E+01  0.2518E+02
     -7.079  0.7164E+01  0.2605E+02
     -6.957  0.1099E+02  0.2739E+02
     -6.835  0.9214E+01  0.2851E+02
     -6.713  0.9182E+01  0.2963E+02
     -6.591  0.1254E+02  0.3116E+02
     -6.470  0.9694E+01  0.3234E+02
     -6.348  0.1033E+02  0.3360E+02
     -6.226  0.1032E+02  0.3486E+02
     -6.104  0.1227E+02  0.3636E+02
     -5.982  0.1051E+02  0.3764E+02
     -5.860  0.9927E+01  0.3885E+02
     -5.738  0.8846E+01  0.3993E+02
     -5.616  0.1118E+02  0.4129E+02
     -5.494  0.1319E+02  0.4290E+02
     -5.372  0.1438E+02  0.4465E+02
     -5.250  0.1198E+02  0.4611E+02
     -5.128  0.9200E+01  0.4723E+02
     -5.006  0.1095E+02  0.4857E+02
     -4.885  0.9291E+01  0.4970E+02
     -4.763  0.7279E+01  0.5059E+02
     -4.641  0.7000E+01  0.5144E+02
     -4.519  0.1113E+02  0.5280E+02
     -4.397  0.1219E+02  0.5429E+02
     -4.275  0.7344E+01  0.5518E+02
     -4.153  0.7835E+01  0.5614E+02
     -4.031  0.1060E+02  0.5743E+02
     -3.909  0.5260E+01  0.5807E+02
     -3.787  0.6849E+01  0.5891E+02
     -3.665  0.8637E+01  0.5996E+02
     -3.543  0.6733E+01  0.6078E+02
     -3.422  0.7187E+01  0.6166E+02
     -3.300  0.1041E+02  0.6292E+02
     -3.178  0.7263E+01  0.6381E+02
     -3.056  0.6505E+01  0.6460E+02
     -2.934  0.6694E+01  0.6542E+02
     -2.812  0.1195E+02  0.6688E+02
     -2.690  0.1179E+02  0.6831E+02
     -2.568  0.6261E+01  0.6908E+02
     -2.446  0.8503E+01  0.7011E+02
     -2.324  0.1229E+02  0.7161E+02
     -2.202  0.9640E+01  0.7279E+02
     -2.080  0.1268E+02  0.7433E+02
     -1.958  0.1963E+02  0.7673E+02
     -1.837  0.2125E+02  0.7932E+02
     -1.715  0.1651E+02  0.8133E+02
     -1.593  0.1694E+02  0.8340E+02
     -1.471  0.1515E+02  0.8524E+02
     -1.349  0.1458E+02  0.8702E+02
     -1.227  0.1604E+02  0.8898E+02
     -1.105  0.1297E+02  0.9056E+02
     -0.983  0.1098E+02  0.9190E+02
     -0.861  0.1097E+02  0.9323E+02
     -0.739  0.1039E+02  0.9450E+02
     -0.617  0.8917E+01  0.9559E+02
     -0.495  0.1163E+02  0.9701E+02
     -0.373  0.1118E+02  0.9837E+02
     -0.252  0.9706E+01  0.9955E+02
     -0.130  0.1283E+02  0.1011E+03
     -0.008  0.7584E+01  0.1020E+03
      0.114  0.6638E+01  0.1028E+03
      0.236  0.7026E+01  0.1037E+03
      0.358  0.7819E+01  0.1047E+03
      0.480  0.1240E+02  0.1062E+03
      0.602  0.1137E+02  0.1076E+03
      0.724  0.1359E+02  0.1092E+03
      0.846  0.1953E+02  0.1116E+03
      0.968  0.1788E+02  0.1138E+03
      1.090  0.1429E+02  0.1155E+03
      1.211  0.1804E+02  0.1177E+03
      1.333  0.1414E+02  0.1194E+03
      1.455  0.1530E+02  0.1213E+03
      1.577  0.1519E+02  0.1232E+03
      1.699  0.1920E+02  0.1255E+03
      1.821  0.1625E+02  0.1275E+03
      1.943  0.1611E+02  0.1294E+03
      2.065  0.1760E+02  0.1316E+03
      2.187  0.2023E+02  0.1341E+03
      2.309  0.1773E+02  0.1362E+03
      2.431  0.1410E+02  0.1379E+03
      2.553  0.1855E+02  0.1402E+03
      2.675  0.1970E+02  0.1426E+03
      2.796  0.2000E+02  0.1450E+03
      2.918  0.2086E+02  0.1476E+03
      3.040  0.2259E+02  0.1503E+03
      3.162  0.2267E+02  0.1531E+03
      3.284  0.2357E+02  0.1560E+03
      3.406  0.1822E+02  0.1582E+03
      3.528  0.2482E+02  0.1612E+03
      3.650  0.2696E+02  0.1645E+03
      3.772  0.2410E+02  0.1674E+03
      3.894  0.2294E+02  0.1702E+03
      4.016  0.2365E+02  0.1731E+03
      4.138  0.2659E+02  0.1764E+03
      4.259  0.2661E+02  0.1796E+03
      4.381  0.2600E+02  0.1828E+03
      4.503  0.2104E+02  0.1854E+03
      4.625  0.2360E+02  0.1882E+03
      4.747  0.2176E+02  0.1909E+03
      4.869  0.2190E+02  0.1936E+03
      4.991  0.2586E+02  0.1967E+03
      5.113  0.2439E+02  0.1997E+03
      5.235  0.2116E+02  0.2023E+03
      5.357  0.2761E+02  0.2056E+03
      5.479  0.1926E+02  0.2080E+03
      5.601  0.2121E+02  0.2106E+03
      5.723  0.1912E+02  0.2129E+03
      5.844  0.1776E+02  0.2151E+03
      5.966  0.2753E+02  0.2184E+03
      6.088  0.2371E+02  0.2213E+03
      6.210  0.2338E+02  0.2242E+03
      6.332  0.1847E+02  0.2264E+03
      6.454  0.1850E+02  0.2287E+03
      6.576  0.1661E+02  0.2307E+03
      6.698  0.1967E+02  0.2331E+03
      6.820  0.2179E+02  0.2357E+03
      6.942  0.1695E+02  0.2378E+03
      7.064  0.1279E+02  0.2394E+03
      7.186  0.1451E+02  0.2411E+03
      7.307  0.1304E+02  0.2427E+03
      7.429  0.9566E+01  0.2439E+03
      7.551  0.9733E+01  0.2451E+03
      7.673  0.1305E+02  0.2467E+03
      7.795  0.1100E+02  0.2480E+03
      7.917  0.8354E+01  0.2490E+03
      8.039  0.4717E+01  0.2496E+03
      8.161  0.6663E+01  0.2504E+03
      8.283  0.9464E+01  0.2516E+03
      8.405  0.4726E+01  0.2521E+03
      8.527  0.5772E+01  0.2528E+03
      8.649  0.5857E+01  0.2536E+03
      8.771  0.3711E+01  0.2540E+03
      8.892  0.4554E+01  0.2546E+03
      9.014  0.2594E+01  0.2549E+03
      9.136  0.3391E+01  0.2553E+03
      9.258  0.3102E+01  0.2557E+03
      9.380  0.1412E+01  0.2558E+03
      9.502  0.9619E+00  0.2560E+03
      9.624  0.2770E+00  0.2560E+03
      9.746  0.1232E-01  0.2560E+03
      9.868  0.1424E-05  0.2560E+03
      9.990  0.6451E-13  0.2560E+03
     10.112  0.0000E+00  0.2560E+03
     10.234  0.0000E+00  0.2560E+03
     10.355  0.0000E+00  0.2560E+03
     10.477  0.0000E+00  0.2560E+03
     10.599  0.0000E+00  0.2560E+03
     10.721  0.0000E+00  0.2560E+03
     10.843  0.0000E+00  0.2560E+03
     10.965  0.0000E+00  0.2560E+03
     11.087  0.0000E+00  0.2560E+03
     11.209  0.0000E+00  0.2560E+03
     11.331  0.0000E+00  0.2560E+03
     11.453  0.0000E+00  0.2560E+03
     11.575  0.0000E+00  0.2560E+03
     11.697  0.0000E+00  0.2560E+03
     11.819  0.0000E+00  0.2560E+03
     11.940  0.0000E+00  0.2560E+03
     12.062  0.0000E+00  0.2560E+03
     12.184  0.0000E+00  0.2560E+03
     12.306  0.0000E+00  0.2560E+03
     12.428  0.0000E+00  0.2560E+03
     12.550  0.0000E+00  0.2560E+03
     12.672  0.0000E+00  0.2560E+03
     12.794  0.0000E+00  0.2560E+03
     12.916  0.0000E+00  0.2560E+03
     13.038  0.0000E+00  0.2560E+03
     13.160  0.1456E-11  0.2560E+03
     13.282  0.1801E-04  0.2560E+03
     13.403  0.1061E+00  0.2560E+03
     13.525  0.1420E+01  0.2562E+03
     13.647  0.2588E+01  0.2565E+03
     13.769  0.6061E+01  0.2572E+03
     13.891  0.4562E+01  0.2578E+03
     14.013  0.6663E+01  0.2586E+03
     14.135  0.6097E+01  0.2594E+03
     14.257  0.6521E+01  0.2601E+03
     14.379  0.9862E+01  0.2614E+03
     14.501  0.1027E+02  0.2626E+03
     14.623  0.9976E+01  0.2638E+03
     14.745  0.1033E+02  0.2651E+03
     14.867  0.1221E+02  0.2666E+03
     14.988  0.9394E+01  0.2677E+03
     15.110  0.1230E+02  0.2692E+03
     15.232  0.1046E+02  0.2705E+03
     15.354  0.1317E+02  0.2721E+03
     15.476  0.1657E+02  0.2741E+03
     15.598  0.1194E+02  0.2756E+03
     15.720  0.1606E+02  0.2775E+03
     15.842  0.1805E+02  0.2797E+03
     15.964  0.1963E+02  0.2821E+03
     16.086  0.2109E+02  0.2847E+03
     16.208  0.1769E+02  0.2868E+03
     16.330  0.1701E+02  0.2889E+03
     16.451  0.2142E+02  0.2915E+03
     16.573  0.1883E+02  0.2938E+03
     16.695  0.3301E+02  0.2979E+03
     16.817  0.3346E+02  0.3019E+03
     16.939  0.2378E+02  0.3048E+03
     17.061  0.2745E+02  0.3082E+03
     17.183  0.2013E+02  0.3106E+03
     17.305  0.2410E+02  0.3136E+03
     17.427  0.2260E+02  0.3163E+03
     17.549  0.2019E+02  0.3188E+03
     17.671  0.2574E+02  0.3219E+03
     17.793  0.2027E+02  0.3244E+03
     17.915  0.2166E+02  0.3270E+03
     18.036  0.2903E+02  0.3306E+03
     18.158  0.2784E+02  0.3340E+03
     18.280  0.3496E+02  0.3382E+03
     18.402  0.3844E+02  0.3429E+03
     18.524  0.4201E+02  0.3480E+03
     18.646  0.3107E+02  0.3518E+03
     18.768  0.3212E+02  0.3558E+03
     18.890  0.2971E+02  0.3594E+03
     19.012  0.2766E+02  0.3627E+03
     19.134  0.2423E+02  0.3657E+03
     19.256  0.2404E+02  0.3686E+03
     19.378  0.2134E+02  0.3712E+03
     19.500  0.2264E+02  0.3740E+03
     19.621  0.2369E+02  0.3769E+03
     19.743  0.2511E+02  0.3799E+03
     19.865  0.1453E+02  0.3817E+03
     19.987  0.6174E+01  0.3825E+03
     20.109  0.2855E+01  0.3828E+03
     20.231  0.2207E+01  0.3831E+03
     20.353  0.2739E+01  0.3834E+03
     20.475  0.2410E+01  0.3837E+03
     20.597  0.1295E+01  0.3839E+03
     20.719  0.6075E+00  0.3839E+03
     20.841  0.1381E+00  0.3840E+03
     20.963  0.1517E-03  0.3840E+03
     21.084  0.7867E-10  0.3840E+03
     21.206  0.2083E-11  0.3840E+03
     21.328  0.1536E-04  0.3840E+03
     21.450  0.4710E-01  0.3840E+03
     21.572  0.2471E+00  0.3840E+03
     21.694  0.9590E-02  0.3840E+03
     21.816  0.3389E-06  0.3840E+03
     21.938  0.4351E-14  0.3840E+03
     22.060  0.0000E+00  0.3840E+03
     22.182  0.0000E+00  0.3840E+03
     22.304  0.0000E+00  0.3840E+03
     22.426  0.0000E+00  0.3840E+03
     22.548  0.0000E+00  0.3840E+03
     22.669  0.0000E+00  0.3840E+03
     22.791  0.0000E+00  0.3840E+03
     22.913  0.0000E+00  0.3840E+03
     23.035  0.0000E+00  0.3840E+03
     23.157  0.0000E+00  0.3840E+03
