  64   64
1 1
    42.836883901659995    -3.543799187540000    -3.410022831520000
    -3.543799187540000    43.120616511689995    -3.276244553740000
    -3.410022831520000    -3.276244553740000    43.372824210349997
1 2
    -0.163254953320000    -0.004657865800000    -0.004482144870000
    -0.004657865800000    -0.092318467760000     0.001357243000000
    -0.004482144870000     0.001357243000000    -0.092422963460000
1 3
    -0.092804192600000    -0.007478168710000     0.001176837780000
    -0.007478168710000    -0.162769108370000    -0.004532831290000
     0.001176837780000    -0.004532831290000    -0.092422963460000
1 4
    -0.114075313270000     0.023868018980000     0.007278305670000
     0.023868018980000    -0.115986263370000     0.006992684090000
     0.007278305670000     0.006992684090000     0.560587361130000
1 5
    -0.092804192600000     0.000888333560000    -0.007517925120000
     0.000888333560000    -0.092875417830000    -0.007223055070000
    -0.007517925120000    -0.007223055070000    -0.162316654000000
1 6
    -0.114075313270000     0.008190901450000     0.023570386400000
     0.008190901450000     0.560123976750000    -0.019030708840000
     0.023570386400000    -0.019030708840000    -0.115522878990000
1 7
     0.559699988450000    -0.018781600700000    -0.018072591370000
    -0.018781600700000    -0.113651324970000     0.024312786310000
    -0.018072591370000     0.024312786310000    -0.115522878990000
1 8
    -0.053457718030000    -0.005613220740000    -0.005401346700000
    -0.005613220740000    -0.053008266410000    -0.005189472660000
    -0.005401346700000    -0.005189472660000    -0.052608780550000
1 9
     0.131435412120000     0.063359346210000    -0.006945120530000
     0.063359346210000     0.037609563860000    -0.078841405100000
    -0.006945120530000    -0.078841405100000     0.186523142960000
1 10
    -0.095609721980000     0.143766985710000     0.221189651490000
     0.143766985710000    -0.125497053610000    -0.237878455550000
     0.221189651490000    -0.237878455550000    -0.361281151090000
1 11
    -9.271060288799999     2.663687997810000     2.563135389000000
     2.663687997810000    -9.807779510840000    -2.823750067000000
     2.563135389000000    -2.823750067000000    -9.590408396470000
1 12
     0.111703981540000     0.111152676640000     0.106956633790000
     0.111152676640000     0.145654274140000     0.043363073080000
     0.106956633790000     0.043363073080000     0.142316177020000
1 13
    -0.278799692330000     0.215132504190000     0.207011386650000
     0.215132504190000    -0.030668166740000    -0.064519728920000
     0.207011386650000    -0.064519728920000    -0.025701498130000
1 14
     0.032445674630000     0.033942725670000     0.032661512300000
     0.033942725670000     0.035807793750000    -0.026047054600000
     0.032661512300000    -0.026047054600000     0.037812789980000
1 15
     0.131435412120000    -0.004503044010000     0.063579627950000
    -0.004503044010000     0.180242711170000    -0.084331392980000
     0.063579627950000    -0.084331392980000     0.043889995650000
1 16
    -0.095609721980000     0.226555445630000     0.135153417170000
     0.226555445630000    -0.379217057280000    -0.228112791890000
     0.135153417170000    -0.228112791890000    -0.107561147420000
1 17
     1.429123309940000    -0.769552096710000     0.748973169970000
     0.718820875680000    -1.572665449730000     1.692230991100000
    -0.797789237050000     1.763210355930000    -1.705665174490000
1 18
     0.058771504540000    -0.041058522510000     0.027001088330000
     0.025401943790000    -0.084007095980000    -0.081986125120000
    -0.042066605740000    -0.081420407020000    -0.077717535830000
1 19
     1.295937414680000    -0.774554077660000    -0.745315099810000
     0.511626801720000    -1.410010325750000    -1.388104663950000
     0.492313233830000    -1.388104663950000    -1.303154344140000
1 20
     0.044996088640000    -0.051903614740000    -0.049944260310000
     0.030219315670000    -0.081118450480000     0.067450292810000
     0.029078510890000     0.067450292810000    -0.086310805780000
1 21
     1.295937414680000     0.511626801720000     0.492313233830000
    -0.774554077660000    -1.410010325750000    -1.388104663950000
    -0.745315099810000    -1.388104663950000    -1.303154344140000
1 22
     0.044996088640000     0.030219315670000     0.029078510890000
    -0.051903614740000    -0.081118450480000     0.067450292810000
    -0.049944260310000     0.067450292810000    -0.086310805780000
1 23
     1.429123309940000     0.718820875680000    -0.797789237050000
    -0.769552096710000    -1.572665449730000     1.763210355930000
     0.748973169970000     1.692230991100000    -1.705665174490000
1 24
     0.058771504540000     0.025401943790000    -0.042066605740000
    -0.041058522510000    -0.084007095980000    -0.081420407020000
     0.027001088330000    -0.081986125120000    -0.077717535830000
1 25
    -6.999055445060000     0.106073705180000     0.102069478000000
     0.106073705180000    -7.007548543270000     0.098065250820000
     0.102069478000000     0.098065250820000    -7.015098057319999
1 26
     0.061416927290000    -0.113155390780000    -0.108883798740000
    -0.113155390780000     0.154637661370000     0.036832211940000
    -0.108883798740000     0.036832211940000     0.151802344710000
1 27
     0.145443360980000    -0.116519071330000     0.032447356170000
    -0.116519071330000     0.070611227680000    -0.110269988250000
     0.032447356170000    -0.110269988250000     0.151802344710000
1 28
    -0.084213805290000    -0.070882796390000    -0.184557542810000
    -0.070882796390000    -0.078538727900000    -0.177317191900000
    -0.184557542810000    -0.177317191900000    -0.327932249260000
1 29
     0.145443360980000     0.027941909960000    -0.117680895360000
     0.027941909960000     0.143206192120000    -0.113064107180000
    -0.117680895360000    -0.113064107180000     0.079207380270000
1 30
    -0.084213805290000    -0.187147234520000    -0.063732047540000
    -0.187147234520000    -0.341192993810000    -0.167207653310000
    -0.063732047540000    -0.167207653310000    -0.065277983350000
1 31
    -0.355741557780000    -0.176277519740000    -0.169623065410000
    -0.176277519740000    -0.069665241320000    -0.056992675440000
    -0.169623065410000    -0.056992675440000    -0.065277983350000
1 32
     0.023971553800000    -0.031581363070000    -0.030389151210000
    -0.031581363070000     0.026499989410000    -0.029196939350000
    -0.030389151210000    -0.029196939350000     0.028747607840000
1 33
    -1.416189384700000     0.620198554680000    -1.416806149550000
    -0.665982324700000     1.302116593740000    -0.689194543080000
    -1.367301251620000     0.547443243390000    -1.303154344140000
1 34
    -1.569890188070000     0.838877186510000     1.720835427820000
    -0.649495785880000     1.426348168390000     0.680684749580000
     1.729887638080000    -0.867678963960000    -1.705665174490000
1 35
    -0.081783379440000     0.035294563720000     0.065398573790000
    -0.046828366690000     0.045661017600000    -0.052602294610000
     0.068559508660000     0.026357298730000    -0.086310805780000
1 36
    -0.084404299750000     0.031133472880000    -0.080840515940000
    -0.035326873310000     0.059168828420000     0.030258951970000
    -0.083037928390000    -0.038776072180000    -0.077717535830000
1 37
    -1.569890188070000    -0.649495785880000     1.729887638080000
     0.838877186510000     1.426348168390000    -0.867678963960000
     1.720835427820000     0.680684749580000    -1.705665174490000
1 38
    -1.416189384700000    -0.665982324700000    -1.367301251620000
     0.620198554680000     1.302116593740000     0.547443243390000
    -1.416806149550000    -0.689194543080000    -1.303154344140000
1 39
    -0.084404299750000    -0.035326873310000    -0.083037928390000
     0.031133472880000     0.059168828420000    -0.038776072180000
    -0.080840515940000     0.030258951970000    -0.077717535830000
1 40
    -0.081783379440000    -0.046828366690000     0.068559508660000
     0.035294563720000     0.045661017600000     0.026357298730000
     0.065398573790000    -0.052602294610000    -0.086310805780000
1 41
     0.179804670000000    -0.081907933510000    -0.003291494440000
    -0.081907933510000     0.049162704540000     0.070085506210000
    -0.003291494440000     0.070085506210000     0.126600864510000
1 42
    -0.013868381040000    -0.048279775930000     0.206536591820000
    -0.048279775930000    -0.010003001020000     0.198433971220000
     0.206536591820000     0.198433971220000    -0.311298095250000
1 43
    -9.593996442499998    -2.614006658290000     2.779210756690000
    -2.614006658290000    -9.384709451790000     2.670179703090000
     2.779210756690000     2.670179703090000    -9.690542421929999
1 44
     0.042824259620000    -0.076424311460000     0.069897774280000
    -0.076424311460000     0.186142994810000    -0.006092339530000
     0.069897774280000    -0.006092339530000     0.126600864510000
1 45
    -0.360653456230000    -0.213237648830000     0.245548800260000
    -0.213237648830000    -0.096489167400000     0.143489051170000
     0.245548800260000     0.143489051170000    -0.125245303050000
1 46
     0.038515553590000    -0.023405355260000     0.034625551020000
    -0.023405355260000     0.040389509810000     0.033267227030000
     0.034625551020000     0.033267227030000     0.027161194960000
1 47
     0.154485001560000     0.051780622100000     0.107527997060000
     0.051780622100000     0.150339284800000     0.103309613750000
     0.107527997060000     0.103309613750000     0.094850146340000
1 48
    -0.113957125030000    -0.223113453360000     0.153196101150000
    -0.223113453360000    -0.343185498600000     0.239612723840000
     0.153196101150000     0.239612723840000    -0.125245303050000
1 49
    -1.569890188070000     1.703627148010000    -0.715549199390000
     1.751826570350000    -1.708218713090000     0.801333923370000
     0.772070683300000    -0.747029790170000     1.428901827100000
1 50
    -1.416189384700000    -1.391904103580000    -0.612901271630000
    -1.391904103580000    -1.304748203840000    -0.588856570840000
     0.674231959940000     0.647781215630000     1.303710693660000
1 51
    -1.416189384700000    -1.391904103580000     0.674231959940000
    -1.391904103580000    -1.304748203840000     0.647781215630000
    -0.612901271630000    -0.588856570840000     1.303710693660000
1 52
    -1.569890188070000     1.751826570350000     0.772070683300000
     1.703627148010000    -1.708218713090000    -0.747029790170000
    -0.715549199390000     0.801333923370000     1.428901827100000
1 53
    -0.084404299750000    -0.084335236500000    -0.032106964430000
    -0.079583324570000    -0.077842330120000     0.035532501630000
     0.034219699330000    -0.033502522520000     0.059293742820000
1 54
    -0.081783379440000     0.066707652680000    -0.049430669950000
     0.066707652680000    -0.087124190700000    -0.047491373890000
     0.032753156230000     0.031468219450000     0.046474522630000
1 55
    -0.081783379440000     0.066707652680000     0.032753156230000
     0.066707652680000    -0.087124190700000     0.031468219450000
    -0.049430669950000    -0.047491373890000     0.046474522630000
1 56
    -0.084404299750000    -0.079583324570000     0.034219699330000
    -0.084335236500000    -0.077842330120000    -0.033502522520000
    -0.032106964430000     0.035532501630000     0.059293742820000
1 57
    -9.593996442499998     2.676615797440000    -2.718965022010000
     2.676615797440000    -9.484843477249999     2.674033912880000
    -2.718965022010000     2.674033912880000    -9.590408396470000
1 58
     0.042824259620000     0.066906674950000    -0.079056161780000
     0.066906674950000     0.126220596250000    -0.003785867200000
    -0.079056161780000    -0.003785867200000     0.186523142960000
1 59
     0.154485001560000     0.109440028150000     0.047606679490000
     0.109440028150000     0.102873254120000     0.105136606960000
     0.047606679490000     0.105136606960000     0.142316177020000
1 60
    -0.113957125030000     0.144501578470000    -0.228840418270000
     0.144501578470000    -0.107149650560000     0.230527723550000
    -0.228840418270000     0.230527723550000    -0.361281151090000
1 61
     0.179804670000000    -0.006439337320000    -0.081720682020000
    -0.006439337320000     0.131873453290000     0.066901990660000
    -0.081720682020000     0.066901990660000     0.043889995650000
1 62
    -0.013868381040000     0.204526791190000    -0.056187698220000
     0.204526791190000    -0.295599478030000     0.209426558530000
    -0.056187698220000     0.209426558530000    -0.025701498130000
1 63
    -0.360653456230000     0.237165602700000    -0.222524073590000
     0.237165602700000    -0.114173323030000     0.144169714540000
    -0.222524073590000     0.144169714540000    -0.107561147420000
1 64
     0.038515553590000     0.033699743140000    -0.024719718990000
     0.033699743140000     0.029737794680000     0.033677162460000
    -0.024719718990000     0.033677162460000     0.037812789980000
2 1
    -0.163254953320000    -0.004657865800000    -0.004482144870000
    -0.004657865800000    -0.092318467760000     0.001357243000000
    -0.004482144870000     0.001357243000000    -0.092422963460000
2 2
    42.836883901659995    -3.543799187540000    -3.410022831520000
    -3.543799187540000    43.120616511689995    -3.276244553740000
    -3.410022831520000    -3.276244553740000    43.372824210349997
2 3
    -0.114075313270000     0.023868018980000     0.007278305670000
     0.023868018980000    -0.115986263370000     0.006992684090000
     0.007278305670000     0.006992684090000     0.560587361130000
2 4
    -0.092804192600000    -0.007478168710000     0.001176837780000
    -0.007478168710000    -0.162769108370000    -0.004532831290000
     0.001176837780000    -0.004532831290000    -0.092422963460000
2 5
    -0.114075313270000     0.008190901450000     0.023570386400000
     0.008190901450000     0.560123976750000    -0.019030708840000
     0.023570386400000    -0.019030708840000    -0.115522878990000
2 6
    -0.092804192600000     0.000888333560000    -0.007517925120000
     0.000888333560000    -0.092875417830000    -0.007223055070000
    -0.007517925120000    -0.007223055070000    -0.162316654000000
2 7
    -0.053457718030000    -0.005613220740000    -0.005401346700000
    -0.005613220740000    -0.053008266410000    -0.005189472660000
    -0.005401346700000    -0.005189472660000    -0.052608780550000
2 8
     0.559699988450000    -0.018781600700000    -0.018072591370000
    -0.018781600700000    -0.113651324970000     0.024312786310000
    -0.018072591370000     0.024312786310000    -0.115522878990000
2 9
    -0.095609721980000     0.143766985710000     0.221189651490000
     0.143766985710000    -0.125497053610000    -0.237878455550000
     0.221189651490000    -0.237878455550000    -0.361281151090000
2 10
     0.131435412120000     0.063359346210000    -0.006945120530000
     0.063359346210000     0.037609563860000    -0.078841405100000
    -0.006945120530000    -0.078841405100000     0.186523142960000
2 11
     0.111703981540000     0.111152676640000     0.106956633790000
     0.111152676640000     0.145654274140000     0.043363073080000
     0.106956633790000     0.043363073080000     0.142316177020000
2 12
    -9.271060288799999     2.663687997810000     2.563135389000000
     2.663687997810000    -9.807779510840000    -2.823750067000000
     2.563135389000000    -2.823750067000000    -9.590408396470000
2 13
     0.032445674630000     0.033942725670000     0.032661512300000
     0.033942725670000     0.035807793750000    -0.026047054600000
     0.032661512300000    -0.026047054600000     0.037812789980000
2 14
    -0.278799692330000     0.215132504190000     0.207011386650000
     0.215132504190000    -0.030668166740000    -0.064519728920000
     0.207011386650000    -0.064519728920000    -0.025701498130000
2 15
    -0.095609721980000     0.226555445630000     0.135153417170000
     0.226555445630000    -0.379217057280000    -0.228112791890000
     0.135153417170000    -0.228112791890000    -0.107561147420000
2 16
     0.131435412120000    -0.004503044010000     0.063579627950000
    -0.004503044010000     0.180242711170000    -0.084331392980000
     0.063579627950000    -0.084331392980000     0.043889995650000
2 17
     0.058771504540000    -0.041058522510000     0.027001088330000
     0.025401943790000    -0.084007095980000    -0.081986125120000
    -0.042066605740000    -0.081420407020000    -0.077717535830000
2 18
     1.429123309940000    -0.769552096710000     0.748973169970000
     0.718820875680000    -1.572665449730000     1.692230991100000
    -0.797789237050000     1.763210355930000    -1.705665174490000
2 19
     0.044996088640000    -0.051903614740000    -0.049944260310000
     0.030219315670000    -0.081118450480000     0.067450292810000
     0.029078510890000     0.067450292810000    -0.086310805780000
2 20
     1.295937414680000    -0.774554077660000    -0.745315099810000
     0.511626801720000    -1.410010325750000    -1.388104663950000
     0.492313233830000    -1.388104663950000    -1.303154344140000
2 21
     0.044996088640000     0.030219315670000     0.029078510890000
    -0.051903614740000    -0.081118450480000     0.067450292810000
    -0.049944260310000     0.067450292810000    -0.086310805780000
2 22
     1.295937414680000     0.511626801720000     0.492313233830000
    -0.774554077660000    -1.410010325750000    -1.388104663950000
    -0.745315099810000    -1.388104663950000    -1.303154344140000
2 23
     0.058771504540000     0.025401943790000    -0.042066605740000
    -0.041058522510000    -0.084007095980000    -0.081420407020000
     0.027001088330000    -0.081986125120000    -0.077717535830000
2 24
     1.429123309940000     0.718820875680000    -0.797789237050000
    -0.769552096710000    -1.572665449730000     1.763210355930000
     0.748973169970000     1.692230991100000    -1.705665174490000
2 25
     0.061416927290000    -0.113155390780000    -0.108883798740000
    -0.113155390780000     0.154637661370000     0.036832211940000
    -0.108883798740000     0.036832211940000     0.151802344710000
2 26
    -6.999055445060000     0.106073705180000     0.102069478000000
     0.106073705180000    -7.007548543270000     0.098065250820000
     0.102069478000000     0.098065250820000    -7.015098057319999
2 27
    -0.084213805290000    -0.070882796390000    -0.184557542810000
    -0.070882796390000    -0.078538727900000    -0.177317191900000
    -0.184557542810000    -0.177317191900000    -0.327932249260000
2 28
     0.145443360980000    -0.116519071330000     0.032447356170000
    -0.116519071330000     0.070611227680000    -0.110269988250000
     0.032447356170000    -0.110269988250000     0.151802344710000
2 29
    -0.084213805290000    -0.187147234520000    -0.063732047540000
    -0.187147234520000    -0.341192993810000    -0.167207653310000
    -0.063732047540000    -0.167207653310000    -0.065277983350000
2 30
     0.145443360980000     0.027941909960000    -0.117680895360000
     0.027941909960000     0.143206192120000    -0.113064107180000
    -0.117680895360000    -0.113064107180000     0.079207380270000
2 31
     0.023971553800000    -0.031581363070000    -0.030389151210000
    -0.031581363070000     0.026499989410000    -0.029196939350000
    -0.030389151210000    -0.029196939350000     0.028747607840000
2 32
    -0.355741557780000    -0.176277519740000    -0.169623065410000
    -0.176277519740000    -0.069665241320000    -0.056992675440000
    -0.169623065410000    -0.056992675440000    -0.065277983350000
2 33
    -1.569890188070000     0.838877186510000     1.720835427820000
    -0.649495785880000     1.426348168390000     0.680684749580000
     1.729887638080000    -0.867678963960000    -1.705665174490000
2 34
    -1.416189384700000     0.620198554680000    -1.416806149550000
    -0.665982324700000     1.302116593740000    -0.689194543080000
    -1.367301251620000     0.547443243390000    -1.303154344140000
2 35
    -0.084404299750000     0.031133472880000    -0.080840515940000
    -0.035326873310000     0.059168828420000     0.030258951970000
    -0.083037928390000    -0.038776072180000    -0.077717535830000
2 36
    -0.081783379440000     0.035294563720000     0.065398573790000
    -0.046828366690000     0.045661017600000    -0.052602294610000
     0.068559508660000     0.026357298730000    -0.086310805780000
2 37
    -1.416189384700000    -0.665982324700000    -1.367301251620000
     0.620198554680000     1.302116593740000     0.547443243390000
    -1.416806149550000    -0.689194543080000    -1.303154344140000
2 38
    -1.569890188070000    -0.649495785880000     1.729887638080000
     0.838877186510000     1.426348168390000    -0.867678963960000
     1.720835427820000     0.680684749580000    -1.705665174490000
2 39
    -0.081783379440000    -0.046828366690000     0.068559508660000
     0.035294563720000     0.045661017600000     0.026357298730000
     0.065398573790000    -0.052602294610000    -0.086310805780000
2 40
    -0.084404299750000    -0.035326873310000    -0.083037928390000
     0.031133472880000     0.059168828420000    -0.038776072180000
    -0.080840515940000     0.030258951970000    -0.077717535830000
2 41
    -0.013868381040000    -0.048279775930000     0.206536591820000
    -0.048279775930000    -0.010003001020000     0.198433971220000
     0.206536591820000     0.198433971220000    -0.311298095250000
2 42
     0.179804670000000    -0.081907933510000    -0.003291494440000
    -0.081907933510000     0.049162704540000     0.070085506210000
    -0.003291494440000     0.070085506210000     0.126600864510000
2 43
     0.042824259620000    -0.076424311460000     0.069897774280000
    -0.076424311460000     0.186142994810000    -0.006092339530000
     0.069897774280000    -0.006092339530000     0.126600864510000
2 44
    -9.593996442499998    -2.614006658290000     2.779210756690000
    -2.614006658290000    -9.384709451790000     2.670179703090000
     2.779210756690000     2.670179703090000    -9.690542421929999
2 45
     0.038515553590000    -0.023405355260000     0.034625551020000
    -0.023405355260000     0.040389509810000     0.033267227030000
     0.034625551020000     0.033267227030000     0.027161194960000
2 46
    -0.360653456230000    -0.213237648830000     0.245548800260000
    -0.213237648830000    -0.096489167400000     0.143489051170000
     0.245548800260000     0.143489051170000    -0.125245303050000
2 47
    -0.113957125030000    -0.223113453360000     0.153196101150000
    -0.223113453360000    -0.343185498600000     0.239612723840000
     0.153196101150000     0.239612723840000    -0.125245303050000
2 48
     0.154485001560000     0.051780622100000     0.107527997060000
     0.051780622100000     0.150339284800000     0.103309613750000
     0.107527997060000     0.103309613750000     0.094850146340000
2 49
    -1.416189384700000    -1.391904103580000    -0.612901271630000
    -1.391904103580000    -1.304748203840000    -0.588856570840000
     0.674231959940000     0.647781215630000     1.303710693660000
2 50
    -1.569890188070000     1.703627148010000    -0.715549199390000
     1.751826570350000    -1.708218713090000     0.801333923370000
     0.772070683300000    -0.747029790170000     1.428901827100000
2 51
    -1.569890188070000     1.751826570350000     0.772070683300000
     1.703627148010000    -1.708218713090000    -0.747029790170000
    -0.715549199390000     0.801333923370000     1.428901827100000
2 52
    -1.416189384700000    -1.391904103580000     0.674231959940000
    -1.391904103580000    -1.304748203840000     0.647781215630000
    -0.612901271630000    -0.588856570840000     1.303710693660000
2 53
    -0.081783379440000     0.066707652680000    -0.049430669950000
     0.066707652680000    -0.087124190700000    -0.047491373890000
     0.032753156230000     0.031468219450000     0.046474522630000
2 54
    -0.084404299750000    -0.084335236500000    -0.032106964430000
    -0.079583324570000    -0.077842330120000     0.035532501630000
     0.034219699330000    -0.033502522520000     0.059293742820000
2 55
    -0.084404299750000    -0.079583324570000     0.034219699330000
    -0.084335236500000    -0.077842330120000    -0.033502522520000
    -0.032106964430000     0.035532501630000     0.059293742820000
2 56
    -0.081783379440000     0.066707652680000     0.032753156230000
     0.066707652680000    -0.087124190700000     0.031468219450000
    -0.049430669950000    -0.047491373890000     0.046474522630000
2 57
     0.042824259620000     0.066906674950000    -0.079056161780000
     0.066906674950000     0.126220596250000    -0.003785867200000
    -0.079056161780000    -0.003785867200000     0.186523142960000
2 58
    -9.593996442499998     2.676615797440000    -2.718965022010000
     2.676615797440000    -9.484843477249999     2.674033912880000
    -2.718965022010000     2.674033912880000    -9.590408396470000
2 59
    -0.113957125030000     0.144501578470000    -0.228840418270000
     0.144501578470000    -0.107149650560000     0.230527723550000
    -0.228840418270000     0.230527723550000    -0.361281151090000
2 60
     0.154485001560000     0.109440028150000     0.047606679490000
     0.109440028150000     0.102873254120000     0.105136606960000
     0.047606679490000     0.105136606960000     0.142316177020000
2 61
    -0.013868381040000     0.204526791190000    -0.056187698220000
     0.204526791190000    -0.295599478030000     0.209426558530000
    -0.056187698220000     0.209426558530000    -0.025701498130000
2 62
     0.179804670000000    -0.006439337320000    -0.081720682020000
    -0.006439337320000     0.131873453290000     0.066901990660000
    -0.081720682020000     0.066901990660000     0.043889995650000
2 63
     0.038515553590000     0.033699743140000    -0.024719718990000
     0.033699743140000     0.029737794680000     0.033677162460000
    -0.024719718990000     0.033677162460000     0.037812789980000
2 64
    -0.360653456230000     0.237165602700000    -0.222524073590000
     0.237165602700000    -0.114173323030000     0.144169714540000
    -0.222524073590000     0.144169714540000    -0.107561147420000
3 1
    -0.092804192600000    -0.007478168710000     0.001176837780000
    -0.007478168710000    -0.162769108370000    -0.004532831290000
     0.001176837780000    -0.004532831290000    -0.092422963460000
3 2
    -0.114075313270000     0.023868018980000     0.007278305670000
     0.023868018980000    -0.115986263370000     0.006992684090000
     0.007278305670000     0.006992684090000     0.560587361130000
3 3
    42.836883901659995    -3.543799187540000    -3.410022831520000
    -3.543799187540000    43.120616511689995    -3.276244553740000
    -3.410022831520000    -3.276244553740000    43.372824210349997
3 4
    -0.163254953320000    -0.004657865800000    -0.004482144870000
    -0.004657865800000    -0.092318467760000     0.001357243000000
    -0.004482144870000     0.001357243000000    -0.092422963460000
3 5
     0.559699988450000    -0.018781600700000    -0.018072591370000
    -0.018781600700000    -0.113651324970000     0.024312786310000
    -0.018072591370000     0.024312786310000    -0.115522878990000
3 6
    -0.053457718030000    -0.005613220740000    -0.005401346700000
    -0.005613220740000    -0.053008266410000    -0.005189472660000
    -0.005401346700000    -0.005189472660000    -0.052608780550000
3 7
    -0.092804192600000     0.000888333560000    -0.007517925120000
     0.000888333560000    -0.092875417830000    -0.007223055070000
    -0.007517925120000    -0.007223055070000    -0.162316654000000
3 8
    -0.114075313270000     0.008190901450000     0.023570386400000
     0.008190901450000     0.560123976750000    -0.019030708840000
     0.023570386400000    -0.019030708840000    -0.115522878990000
3 9
    -9.271060288799999     2.663687997810000     2.563135389000000
     2.663687997810000    -9.807779510840000    -2.823750067000000
     2.563135389000000    -2.823750067000000    -9.590408396470000
3 10
     0.111703981540000     0.111152676640000     0.106956633790000
     0.111152676640000     0.145654274140000     0.043363073080000
     0.106956633790000     0.043363073080000     0.142316177020000
3 11
     0.131435412120000     0.063359346210000    -0.006945120530000
     0.063359346210000     0.037609563860000    -0.078841405100000
    -0.006945120530000    -0.078841405100000     0.186523142960000
3 12
    -0.095609721980000     0.143766985710000     0.221189651490000
     0.143766985710000    -0.125497053610000    -0.237878455550000
     0.221189651490000    -0.237878455550000    -0.361281151090000
3 13
     0.131435412120000    -0.004503044010000     0.063579627950000
    -0.004503044010000     0.180242711170000    -0.084331392980000
     0.063579627950000    -0.084331392980000     0.043889995650000
3 14
    -0.095609721980000     0.226555445630000     0.135153417170000
     0.226555445630000    -0.379217057280000    -0.228112791890000
     0.135153417170000    -0.228112791890000    -0.107561147420000
3 15
    -0.278799692330000     0.215132504190000     0.207011386650000
     0.215132504190000    -0.030668166740000    -0.064519728920000
     0.207011386650000    -0.064519728920000    -0.025701498130000
3 16
     0.032445674630000     0.033942725670000     0.032661512300000
     0.033942725670000     0.035807793750000    -0.026047054600000
     0.032661512300000    -0.026047054600000     0.037812789980000
3 17
     1.295937414680000    -0.774554077660000    -0.745315099810000
     0.511626801720000    -1.410010325750000    -1.388104663950000
     0.492313233830000    -1.388104663950000    -1.303154344140000
3 18
     0.044996088640000    -0.051903614740000    -0.049944260310000
     0.030219315670000    -0.081118450480000     0.067450292810000