       N       E                     dE             d eps       ncg     rms          rms(c)
DAV:   1     0.508200764539E+03    0.50820E+03   -0.11343E+05 12288   0.106E+03
DAV:   2    -0.556614831621E+03   -0.10648E+04   -0.10125E+04 16288   0.231E+02
DAV:   3    -0.598313421207E+03   -0.41699E+02   -0.41444E+02 16288   0.428E+01
DAV:   4    -0.598771844686E+03   -0.45842E+00   -0.45748E+00 16256   0.494E+00
DAV:   5    -0.598781562059E+03   -0.97174E-02   -0.97132E-02 15456   0.664E-01    0.265E+01
DAV:   6    -0.584003014716E+03    0.14779E+02   -0.99043E+00 14464   0.637E+00    0.146E+01
DAV:   7    -0.579033679825E+03    0.49693E+01   -0.11509E+01 15168   0.707E+00    0.198E+00
DAV:   8    -0.579097719671E+03   -0.64040E-01   -0.32351E-01 15360   0.115E+00    0.219E-01
DAV:   9    -0.579100039371E+03   -0.23197E-02   -0.42365E-03 16000   0.157E-01    0.937E-02
DAV:  10    -0.579100538680E+03   -0.49931E-03   -0.36485E-04 14944   0.498E-02    0.112E-02
DAV:  11    -0.579100555116E+03   -0.16436E-04   -0.15875E-05 16032   0.101E-02    0.357E-03
DAV:  12    -0.579100555390E+03   -0.27356E-06   -0.51636E-07 15680   0.174E-03    0.394E-04
DAV:  13    -0.579100555405E+03   -0.15409E-07   -0.10279E-08 11872   0.239E-04    0.244E-04
DAV:  14    -0.579100555457E+03   -0.51557E-07   -0.35788E-09 10688   0.170E-04    0.192E-04
DAV:  15    -0.579100555455E+03    0.12515E-08   -0.39169E-10  9536   0.499E-05
   1 F= -.57910056E+03 E0= -.57910056E+03  d E =-.445968E-15
 Linear response reoptimize wavefunctions
DAV:   1    -0.579100555457E+03   -0.20182E-08   -0.59424E-11  9248   0.203E-05
DAV:   2    -0.579100555457E+03    0.14370E-09   -0.10878E-11  9184   0.923E-06
DAV:   3    -0.579100555457E+03   -0.35470E-10    0.18386E-12  9184   0.459E-06
 Linear response DOF=           1
 Linear response progress:
  Degree of freedom:   1/  1
       N       E                     dE             d eps       ncg     rms          rms(c)
RMM:   1    -0.145186859033E+00   -0.14519E+00    0.36159E-03 73353   0.736E-01
RMM:   2    -0.123577312895E+00    0.21610E-01   -0.71441E-03 44276   0.191E-01    0.179E-01
RMM:   3    -0.123428490878E+00    0.14882E-03   -0.89691E-04 46699   0.503E-02    0.909E-02
RMM:   4    -0.123685785209E+00   -0.25729E-03   -0.24700E-04 46804   0.274E-02    0.277E-02
RMM:   5    -0.123768211662E+00   -0.82426E-04   -0.16880E-05 47295   0.770E-03    0.662E-03
RMM:   6    -0.123751106187E+00    0.17105E-04   -0.10577E-06 47894   0.198E-03    0.138E-03
RMM:   7    -0.123742624055E+00    0.84821E-05   -0.18178E-07 48679   0.616E-04    0.386E-04
RMM:   8    -0.123742096510E+00    0.52755E-06   -0.35266E-07 50425   0.253E-04    0.886E-05
RMM:   9    -0.123741913305E+00    0.18321E-06   -0.71955E-07 52873   0.150E-04    0.374E-05
RMM:  10    -0.123741981394E+00   -0.68089E-07   -0.69681E-07 54726   0.139E-04    0.117E-05
RMM:  11    -0.123741992270E+00   -0.10876E-07   -0.75091E-07 55082   0.136E-04    0.445E-06
RMM:  12    -0.123741991704E+00    0.56620E-09   -0.63681E-07 55296   0.135E-04    0.188E-06
 Linear response finished
