 vasp.5.4.4.18Apr17-6-g9f103f2a35 (build Mar 12 2022 03:36:41) complex          
  
 executed on IFC19.0.3.199_CrayMP date 2022.12.02  03:44:55
 running on   32 total cores
 distrk:  each k-point on   32 cores,    1 groups
 distr:  one band on NCORES_PER_BAND=   1 cores,   32 groups


--------------------------------------------------------------------------------------------------------


 INCAR:
 POTCAR:   PAW_PBE C 08Apr2002                    

 ----------------------------------------------------------------------------- 
|                                                                             |
|           W    W    AA    RRRRR   N    N  II  N    N   GGGG   !!!           |
|           W    W   A  A   R    R  NN   N  II  NN   N  G    G  !!!           |
|           W    W  A    A  R    R  N N  N  II  N N  N  G       !!!           |
|           W WW W  AAAAAA  RRRRR   N  N N  II  N  N N  G  GGG   !            |
|           WW  WW  A    A  R   R   N   NN  II  N   NN  G    G                |
|           W    W  A    A  R    R  N    N  II  N    N   GGGG   !!!           |
|                                                                             |
|      For optimal performance we recommend to set                            |
|        NCORE= 4 - approx SQRT( number of cores)                             |
|      NCORE specifies how many cores store one orbital (NPAR=cpu/NCORE).     |
|      This setting can  greatly improve the performance of VASP for DFT.     |
|      The default,   NCORE=1            might be grossly inefficient         |
|      on modern multi-core architectures or massively parallel machines.     |
|      Do your own testing !!!!                                               |
|      Unfortunately you need to use the default for GW and RPA calculations. |
|      (for HF NCORE is supported but not extensively tested yet)             |
|                                                                             |
 ----------------------------------------------------------------------------- 

 POTCAR:   PAW_PBE C 08Apr2002                    
   VRHFIN =C: s2p2                                                              
   LEXCH  = PE                                                                  
   EATOM  =   147.1560 eV,   10.8157 Ry                                         
                                                                                
   TITEL  = PAW_PBE C 08Apr2002                                                 
   LULTRA =        F    use ultrasoft PP ?                                      
   IUNSCR =        0    unscreen: 0-lin 1-nonlin 2-no                           
   RPACOR =     .000    partial core radius                                     
   POMASS =   12.011; ZVAL   =    4.000    mass and valenz                      
   RCORE  =    1.500    outmost cutoff radius                                   
   RWIGS  =    1.630; RWIGS  =     .863    wigner-seitz radius (au A)           
   ENMAX  =  400.000; ENMIN  =  300.000 eV                                      
   ICORE  =        2    local potential                                         
   LCOR   =        T    correct aug charges                                     
   LPAW   =        T    paw PP                                                  
   EAUG   =  644.873                                                            
   DEXC   =     .000                                                            
   RMAX   =    2.266    core radius for proj-oper                               
   RAUG   =    1.300    factor for augmentation sphere                          
   RDEP   =    1.501    radius for radial grids                                 
   RDEPT  =    1.300    core radius for aug-charge                              
   QCUT   =   -5.516; QGAM   =   11.032    optimization parameters              
                                                                                
   Description                                                                  
     l     E      TYP  RCUT    TYP  RCUT                                        
     0   .000     23  1.200                                                     
     0   .000     23  1.200                                                     
     1   .000     23  1.500                                                     
     1  2.500     23  1.500                                                     
     2   .000      7  1.500                                                     
  local pseudopotential read in
  atomic valenz-charges read in
  non local Contribution for L=           0  read in
    real space projection operators read in
  non local Contribution for L=           0  read in
    real space projection operators read in
  non local Contribution for L=           1  read in
    real space projection operators read in
  non local Contribution for L=           1  read in
    real space projection operators read in
    PAW grid and wavefunctions read in
 
   number of l-projection  operators is LMAX  =           4
   number of lm-projection operators is LMMAX =           8
 

 ----------------------------------------------------------------------------- 
|                                                                             |
|  ADVICE TO THIS USER RUNNING 'VASP/VAMP'   (HEAR YOUR MASTER'S VOICE ...):  |
|                                                                             |
|      You have a (more or less) 'large supercell' and for larger cells       |
|      it might be more efficient to use real space projection operators      |
|      So try LREAL= Auto  in the INCAR   file.                               |
|      Mind: If you want to do a very accurate calculations keep the          |
|      reciprocal projection scheme          (i.e. LREAL=.FALSE.)             |
|                                                                             |
 ----------------------------------------------------------------------------- 

 PAW_PBE C 08Apr2002                    :
 energy of atom  1       EATOM= -147.1560
 kinetic energy error for atom=    0.0288 (will be added to EATOM!!)
 
 
 POSCAR: generated by phonopy                    
  positions in direct lattice
  No initial velocities read in
 exchange correlation table for  LEXCH =        8
   RHO(1)=    0.500       N(1)  =     2000
   RHO(2)=  100.500       N(2)  =     4000
 


--------------------------------------------------------------------------------------------------------


 ion  position               nearest neighbor table
   1  0.125  0.375  0.125-  11 1.53  43 1.53  57 1.53  25 1.62
   2  0.625  0.375  0.125-  12 1.53  44 1.53  58 1.53  26 1.62
   3  0.125  0.875  0.125-   9 1.53  41 1.53  59 1.53  27 1.62
   4  0.625  0.875  0.125-  10 1.53  42 1.53  60 1.53  28 1.62
   5  0.125  0.375  0.625-  15 1.53  47 1.53  61 1.53  29 1.62
   6  0.625  0.375  0.625-  16 1.53  48 1.53  62 1.53  30 1.62
   7  0.125  0.875  0.625-  13 1.53  45 1.53  63 1.53  31 1.62
   8  0.625  0.875  0.625-  14 1.53  46 1.53  64 1.53  32 1.62
   9  0.000  0.000  0.250-   3 1.53  36 1.53  50 1.53  17 1.62
  10  0.500  0.000  0.250-   4 1.53  35 1.53  49 1.53  18 1.62
  11  0.000  0.500  0.250-   1 1.53  34 1.53  52 1.53  19 1.62
  12  0.500  0.500  0.250-   2 1.53  33 1.53  51 1.53  20 1.62
  13  0.000  0.000  0.750-   7 1.53  40 1.53  54 1.53  21 1.62
  14  0.500  0.000  0.750-   8 1.53  39 1.53  53 1.53  22 1.62
  15  0.000  0.500  0.750-   5 1.53  38 1.53  56 1.53  23 1.62
  16  0.500  0.500  0.750-   6 1.53  37 1.53  55 1.53  24 1.62
  17  0.125  0.125  0.375-  29 1.53  45 1.53  57 1.53   9 1.62
  18  0.625  0.125  0.375-  30 1.53  46 1.53  58 1.53  10 1.62
  19  0.125  0.625  0.375-  31 1.53  47 1.53  59 1.53  11 1.62
  20  0.625  0.625  0.375-  32 1.53  48 1.53  60 1.53  12 1.62
  21  0.125  0.125  0.875-  25 1.53  41 1.53  61 1.53  13 1.62
  22  0.625  0.125  0.875-  26 1.53  42 1.53  62 1.53  14 1.62
  23  0.125  0.625  0.875-  27 1.53  43 1.53  63 1.53  15 1.62
  24  0.625  0.625  0.875-  28 1.53  44 1.53  64 1.53  16 1.62
  25  0.000  0.250  0.000-  21 1.53  38 1.53  50 1.53   1 1.62
  26  0.500  0.250  0.000-  22 1.53  37 1.53  49 1.53   2 1.62
  27  0.000  0.750  0.000-  23 1.53  40 1.53  52 1.53   3 1.62
  28  0.500  0.750  0.000-  24 1.53  39 1.53  51 1.53   4 1.62
  29  0.000  0.250  0.500-  17 1.53  34 1.53  54 1.53   5 1.62
  30  0.500  0.250  0.500-  18 1.53  33 1.53  53 1.53   6 1.62
  31  0.000  0.750  0.500-  19 1.53  36 1.53  56 1.53   7 1.62
  32  0.500  0.750  0.500-  20 1.53  35 1.53  55 1.53   8 1.62
  33  0.375  0.375  0.375-  47 1.53  30 1.53  12 1.53  57 1.62
  34  0.875  0.375  0.375-  48 1.53  29 1.53  11 1.53  58 1.62
  35  0.375  0.875  0.375-  45 1.53  32 1.53  10 1.53  59 1.62
  36  0.875  0.875  0.375-  46 1.53  31 1.53   9 1.53  60 1.62
  37  0.375  0.375  0.875-  43 1.53  26 1.53  16 1.53  61 1.62
  38  0.875  0.375  0.875-  44 1.53  25 1.53  15 1.53  62 1.62
  39  0.375  0.875  0.875-  41 1.53  28 1.53  14 1.53  63 1.62
  40  0.875  0.875  0.875-  42 1.53  27 1.53  13 1.53  64 1.62
  41  0.250  0.000  0.000-  39 1.53  21 1.53   3 1.53  49 1.62
  42  0.750  0.000  0.000-  40 1.53  22 1.53   4 1.53  50 1.62
  43  0.250  0.500  0.000-  37 1.53  23 1.53   1 1.53  51 1.62
  44  0.750  0.500  0.000-  38 1.53  24 1.53   2 1.53  52 1.62
  45  0.250  0.000  0.500-  35 1.53  17 1.53   7 1.53  53 1.62
  46  0.750  0.000  0.500-  36 1.53  18 1.53   8 1.53  54 1.62
  47  0.250  0.500  0.500-  33 1.53  19 1.53   5 1.53  55 1.62
  48  0.750  0.500  0.500-  34 1.53  20 1.53   6 1.53  56 1.62
  49  0.375  0.125  0.125-  57 1.53  26 1.53  10 1.53  41 1.62
  50  0.875  0.125  0.125-  58 1.53  25 1.53   9 1.53  42 1.62
  51  0.375  0.625  0.125-  59 1.53  28 1.53  12 1.53  43 1.62
  52  0.875  0.625  0.125-  60 1.53  27 1.53  11 1.53  44 1.62
  53  0.375  0.125  0.625-  61 1.53  30 1.53  14 1.53  45 1.62
  54  0.875  0.125  0.625-  62 1.53  29 1.53  13 1.53  46 1.62
  55  0.375  0.625  0.625-  63 1.53  32 1.53  16 1.53  47 1.62
  56  0.875  0.625  0.625-  64 1.53  31 1.53  15 1.53  48 1.62
  57  0.250  0.250  0.250-  49 1.53  17 1.53   1 1.53  33 1.62
  58  0.750  0.250  0.250-  50 1.53  18 1.53   2 1.53  34 1.62
  59  0.250  0.750  0.250-  51 1.53  19 1.53   3 1.53  35 1.62
  60  0.750  0.750  0.250-  52 1.53  20 1.53   4 1.53  36 1.62
  61  0.250  0.250  0.750-  53 1.53  21 1.53   5 1.53  37 1.62
  62  0.750  0.250  0.750-  54 1.53  22 1.53   6 1.53  38 1.62
  63  0.250  0.750  0.750-  55 1.53  23 1.53   7 1.53  39 1.62
  64  0.750  0.750  0.750-  56 1.53  24 1.53   8 1.53  40 1.62
 
  LATTYP: Found a trigonal (rhomboedric) cell.
 ALAT       =     7.1799989116
 COS(alpha) =     0.0399998870
  
  Lattice vectors:
  
 A1 = (   7.1799987179,   0.0000000000,   0.0000000000)
 A2 = (   0.2871991451,   7.1742526455,   0.0000000000)
 A3 = (   0.2871991451,   0.2759320213,   7.1689445605)


Analysis of symmetry for initial positions (statically):
=====================================================================
 Subroutine PRICEL returns following result:
 
  LATTYP: Found a trigonal (rhomboedric) cell.
 ALAT       =     2.5887853218
 COS(alpha) =     0.5384614305
  
  Lattice vectors:
  
 A1 = (  -0.1435995725,  -1.8625461667,  -1.7922361401)
 A2 = (  -1.8667994658,  -1.7935631614,   0.0000000000)
 A3 = (  -1.8667994658,  -0.0689830053,  -1.7922361401)
 
  32 primitive cells build up your supercell.
 

 Routine SETGRP: Setting up the symmetry group for a 
 trigonal (rhombohedral) supercell.


 Subroutine GETGRP returns: Found 12 space group operations
 (whereof  6 operations were pure point group operations)
 out of a pool of 12 trial point group operations.


The static configuration has the point symmetry C_3v.
 The point group associated with its full space group is D_3d.


Analysis of symmetry for dynamics (positions and initial velocities):
=====================================================================
 Subroutine PRICEL returns following result:
 
  LATTYP: Found a trigonal (rhomboedric) cell.
 ALAT       =     2.5887853218
 COS(alpha) =     0.5384614305
  
  Lattice vectors:
  
 A1 = (  -0.1435995725,  -1.8625461667,  -1.7922361401)
 A2 = (  -1.8667994658,  -1.7935631614,   0.0000000000)
 A3 = (  -1.8667994658,  -0.0689830053,  -1.7922361401)
 
  32 primitive cells build up your supercell.
 

 Routine SETGRP: Setting up the symmetry group for a 
 trigonal (rhombohedral) supercell.


 Subroutine GETGRP returns: Found 12 space group operations
 (whereof  6 operations were pure point group operations)
 out of a pool of 12 trial point group operations.


The dynamic configuration has the point symmetry C_3v.
 The point group associated with its full space group is D_3d.


 Subroutine INISYM returns: Found 12 space group operations
 (whereof  6 operations are pure point group operations),
 and found    32 'primitive' translations

 
 
 KPOINTS: kpt_density=3000                        

Automatic generation of k-mesh.
Space group operators:
 irot       det(A)        alpha          n_x          n_y          n_z        tau_x        tau_y        tau_z
    1     1.000000     0.000000     1.000000     0.000000     0.000000     0.000000     0.000000     0.000000
    2    -1.000000   180.000000     0.000000    -0.693375     0.720577     0.000000     0.000000     0.000000
    3     1.000000   120.000000    -0.600000    -0.576461    -0.554700     0.000000     0.000000     0.000000
    4    -1.000000   180.000000    -0.692820     0.721110     0.000000     0.000000     0.000000     0.000000
    5     1.000000   120.000000     0.600000     0.576461     0.554700     0.000000     0.000000     0.000000
    6    -1.000000   180.000000    -0.692820     0.027735     0.720577     0.000000     0.000000     0.000000
    7    -1.000000     0.000000     1.000000     0.000000     0.000000    -0.375000    -0.375000    -0.375000
    8     1.000000   180.000000     0.000000    -0.693375     0.720577    -0.375000    -0.375000    -0.375000
    9    -1.000000   120.000000    -0.600000    -0.576461    -0.554700    -0.375000    -0.375000    -0.375000
   10     1.000000   180.000000    -0.692820     0.721110     0.000000    -0.375000    -0.375000    -0.375000
   11    -1.000000   120.000000     0.600000     0.576461     0.554700    -0.375000    -0.375000    -0.375000
   12     1.000000   180.000000    -0.692820     0.027735     0.720577    -0.375000    -0.375000    -0.375000
 
 Subroutine IBZKPT returns following result:
 ===========================================
 
 Found     32 irreducible k-points:
 
 Following reciprocal coordinates:
            Coordinates               Weight
  0.000000  0.000000  0.000000      1.000000
  0.166667 -0.000000  0.000000      6.000000
  0.333333 -0.000000 -0.000000      6.000000
  0.500000  0.000000 -0.000000      3.000000
  0.166667  0.166667  0.000000      6.000000
  0.333333  0.166667  0.000000     12.000000
  0.500000  0.166667 -0.000000     12.000000
 -0.333333  0.166667  0.000000     12.000000
 -0.166667  0.166667 -0.000000      6.000000
  0.333333  0.333333  0.000000      6.000000
  0.500000  0.333333  0.000000     12.000000
 -0.333333  0.333333  0.000000      6.000000
  0.500000  0.500000  0.000000      3.000000
  0.166667  0.166667  0.166667      2.000000
  0.333333  0.166667  0.166667      6.000000
  0.500000  0.166667  0.166667      6.000000
 -0.333333  0.166667  0.166667      6.000000
 -0.166667  0.166667  0.166667      6.000000
  0.333333  0.333333  0.166667      6.000000
  0.500000  0.333333  0.166667     12.000000
 -0.333333  0.333333  0.166667     12.000000
 -0.166667  0.333333  0.166667     12.000000
  0.500000  0.500000  0.166667      6.000000
 -0.333333  0.500000  0.166667     12.000000
 -0.166667  0.500000  0.166667      6.000000
 -0.333333 -0.333333  0.166667      6.000000
  0.333333  0.333333  0.333333      2.000000
  0.500000  0.333333  0.333333      6.000000
 -0.333333  0.333333  0.333333      6.000000
  0.500000  0.500000  0.333333      6.000000
 -0.333333  0.500000  0.333333      6.000000
  0.500000  0.500000  0.500000      1.000000
 
 Following cartesian coordinates:
            Coordinates               Weight
  0.000000  0.000000  0.000000      1.000000
  0.023213 -0.000929 -0.000894      6.000000
  0.046425 -0.001858 -0.001788      6.000000
  0.069638 -0.002788 -0.002683      3.000000
  0.023213  0.022302 -0.001788      6.000000
  0.046425  0.021373 -0.002683     12.000000
  0.069638  0.020443 -0.003577     12.000000
 -0.046425  0.025090  0.000894     12.000000
 -0.023213  0.024160  0.000000      6.000000
  0.046425  0.044604 -0.003577      6.000000
  0.069638  0.043675 -0.004471     12.000000
 -0.046425  0.048321  0.000000      6.000000
  0.069638  0.066906 -0.005365      3.000000
  0.023213  0.022302  0.021460      2.000000
  0.046425  0.021373  0.020566      6.000000
  0.069638  0.020443  0.019672      6.000000
 -0.046425  0.025090  0.024143      6.000000
 -0.023213  0.024160  0.023248      6.000000
  0.046425  0.044604  0.019672      6.000000
  0.069638  0.043675  0.018778     12.000000
 -0.046425  0.048321  0.023248     12.000000
 -0.023213  0.047392  0.022354     12.000000
  0.069638  0.066906  0.017883      6.000000
 -0.046425  0.071552  0.022354     12.000000
 -0.023213  0.070623  0.021460      6.000000
 -0.046425 -0.044604  0.026825      6.000000
  0.046425  0.044604  0.042920      2.000000
  0.069638  0.043675  0.042026      6.000000
 -0.046425  0.048321  0.046497      6.000000
  0.069638  0.066906  0.041132      6.000000
 -0.046425  0.071552  0.045603      6.000000
  0.069638  0.066906  0.064380      1.000000
 
 
 Subroutine IBZKPT_HF returns following result:
 ==============================================
 
 Found    216 k-points in 1st BZ
 the following    216 k-points will be used (e.g. in the exchange kernel)
 Following reciprocal coordinates:   # in IRBZ
  0.000000  0.000000  0.000000    0.00462963   1 t-inv F
  0.166667 -0.000000  0.000000    0.00462963   2 t-inv F
  0.333333 -0.000000 -0.000000    0.00462963   3 t-inv F
  0.500000  0.000000 -0.000000    0.00462963   4 t-inv F
  0.166667  0.166667  0.000000    0.00462963   5 t-inv F
  0.333333  0.166667  0.000000    0.00462963   6 t-inv F
  0.500000  0.166667 -0.000000    0.00462963   7 t-inv F
 -0.333333  0.166667  0.000000    0.00462963   8 t-inv F
 -0.166667  0.166667 -0.000000    0.00462963   9 t-inv F
  0.333333  0.333333  0.000000    0.00462963  10 t-inv F
  0.500000  0.333333  0.000000    0.00462963  11 t-inv F
 -0.333333  0.333333  0.000000    0.00462963  12 t-inv F
  0.500000  0.500000  0.000000    0.00462963  13 t-inv F
  0.166667  0.166667  0.166667    0.00462963  14 t-inv F
  0.333333  0.166667  0.166667    0.00462963  15 t-inv F
  0.500000  0.166667  0.166667    0.00462963  16 t-inv F
 -0.333333  0.166667  0.166667    0.00462963  17 t-inv F
 -0.166667  0.166667  0.166667    0.00462963  18 t-inv F
  0.333333  0.333333  0.166667    0.00462963  19 t-inv F
  0.500000  0.333333  0.166667    0.00462963  20 t-inv F
 -0.333333  0.333333  0.166667    0.00462963  21 t-inv F
 -0.166667  0.333333  0.166667    0.00462963  22 t-inv F
  0.500000  0.500000  0.166667    0.00462963  23 t-inv F
 -0.333333  0.500000  0.166667    0.00462963  24 t-inv F
 -0.166667  0.500000  0.166667    0.00462963  25 t-inv F
 -0.333333 -0.333333  0.166667    0.00462963  26 t-inv F
  0.333333  0.333333  0.333333    0.00462963  27 t-inv F
  0.500000  0.333333  0.333333    0.00462963  28 t-inv F
 -0.333333  0.333333  0.333333    0.00462963  29 t-inv F
  0.500000  0.500000  0.333333    0.00462963  30 t-inv F
 -0.333333  0.500000  0.333333    0.00462963  31 t-inv F
  0.500000  0.500000  0.500000    0.00462963  32 t-inv F
  0.000000  0.166667 -0.000000    0.00462963   2 t-inv F
 -0.000000  0.000000  0.166667    0.00462963   2 t-inv F
 -0.166667  0.000000 -0.000000    0.00462963   2 t-inv F
 -0.000000 -0.166667  0.000000    0.00462963   2 t-inv F
  0.000000 -0.000000 -0.166667    0.00462963   2 t-inv F
 -0.000000  0.333333 -0.000000    0.00462963   3 t-inv F
 -0.000000 -0.000000  0.333333    0.00462963   3 t-inv F
 -0.333333  0.000000  0.000000    0.00462963   3 t-inv F
  0.000000 -0.333333  0.000000    0.00462963   3 t-inv F
  0.000000  0.000000 -0.333333    0.00462963   3 t-inv F
 -0.000000  0.500000  0.000000    0.00462963   4 t-inv F
  0.000000 -0.000000  0.500000    0.00462963   4 t-inv F
  0.166667  0.000000  0.166667    0.00462963   5 t-inv F
  0.000000  0.166667  0.166667    0.00462963   5 t-inv F
 -0.166667 -0.166667 -0.000000    0.00462963   5 t-inv F
 -0.166667 -0.000000 -0.166667    0.00462963   5 t-inv F
 -0.000000 -0.166667 -0.166667    0.00462963   5 t-inv F
  0.333333  0.000000  0.166667    0.00462963   6 t-inv F
  0.000000  0.333333  0.166667    0.00462963   6 t-inv F
  0.166667  0.333333  0.000000    0.00462963   6 t-inv F
  0.166667  0.000000  0.333333    0.00462963   6 t-inv F
  0.000000  0.166667  0.333333    0.00462963   6 t-inv F
 -0.333333 -0.166667 -0.000000    0.00462963   6 t-inv F
 -0.333333 -0.000000 -0.166667    0.00462963   6 t-inv F
 -0.000000 -0.333333 -0.166667    0.00462963   6 t-inv F
 -0.166667 -0.333333 -0.000000    0.00462963   6 t-inv F
 -0.166667 -0.000000 -0.333333    0.00462963   6 t-inv F
 -0.000000 -0.166667 -0.333333    0.00462963   6 t-inv F
  0.500000 -0.000000  0.166667    0.00462963   7 t-inv F
 -0.000000  0.500000  0.166667    0.00462963   7 t-inv F
  0.166667  0.500000 -0.000000    0.00462963   7 t-inv F
  0.166667 -0.000000  0.500000    0.00462963   7 t-inv F
 -0.000000  0.166667  0.500000    0.00462963   7 t-inv F
 -0.500000 -0.166667  0.000000    0.00462963   7 t-inv F
 -0.500000  0.000000 -0.166667    0.00462963   7 t-inv F
  0.000000 -0.500000 -0.166667    0.00462963   7 t-inv F
 -0.166667 -0.500000  0.000000    0.00462963   7 t-inv F
 -0.166667  0.000000 -0.500000    0.00462963   7 t-inv F
  0.000000 -0.166667 -0.500000    0.00462963   7 t-inv F
 -0.333333  0.000000  0.166667    0.00462963   8 t-inv F
  0.000000 -0.333333  0.166667    0.00462963   8 t-inv F
  0.166667 -0.333333  0.000000    0.00462963   8 t-inv F
  0.166667  0.000000 -0.333333    0.00462963   8 t-inv F
  0.000000  0.166667 -0.333333    0.00462963   8 t-inv F
  0.333333 -0.166667 -0.000000    0.00462963   8 t-inv F
  0.333333 -0.000000 -0.166667    0.00462963   8 t-inv F
 -0.000000  0.333333 -0.166667    0.00462963   8 t-inv F
 -0.166667  0.333333 -0.000000    0.00462963   8 t-inv F
 -0.166667 -0.000000  0.333333    0.00462963   8 t-inv F
 -0.000000 -0.166667  0.333333    0.00462963   8 t-inv F
 -0.166667 -0.000000  0.166667    0.00462963   9 t-inv F
 -0.000000 -0.166667  0.166667    0.00462963   9 t-inv F
  0.166667 -0.166667 -0.000000    0.00462963   9 t-inv F
  0.166667 -0.000000 -0.166667    0.00462963   9 t-inv F
 -0.000000  0.166667 -0.166667    0.00462963   9 t-inv F
  0.333333  0.000000  0.333333    0.00462963  10 t-inv F
  0.000000  0.333333  0.333333    0.00462963  10 t-inv F
 -0.333333 -0.333333 -0.000000    0.00462963  10 t-inv F
 -0.333333 -0.000000 -0.333333    0.00462963  10 t-inv F
 -0.000000 -0.333333 -0.333333    0.00462963  10 t-inv F
  0.500000  0.000000  0.333333    0.00462963  11 t-inv F
  0.000000  0.500000  0.333333    0.00462963  11 t-inv F
  0.333333  0.500000  0.000000    0.00462963  11 t-inv F
  0.333333  0.000000  0.500000    0.00462963  11 t-inv F
  0.000000  0.333333  0.500000    0.00462963  11 t-inv F
 -0.500000 -0.333333 -0.000000    0.00462963  11 t-inv F
 -0.500000 -0.000000 -0.333333    0.00462963  11 t-inv F
 -0.000000 -0.500000 -0.333333    0.00462963  11 t-inv F
 -0.333333 -0.500000 -0.000000    0.00462963  11 t-inv F
 -0.333333 -0.000000 -0.500000    0.00462963  11 t-inv F
 -0.000000 -0.333333 -0.500000    0.00462963  11 t-inv F
 -0.333333  0.000000  0.333333    0.00462963  12 t-inv F
  0.000000 -0.333333  0.333333    0.00462963  12 t-inv F
  0.333333 -0.333333  0.000000    0.00462963  12 t-inv F
  0.333333  0.000000 -0.333333    0.00462963  12 t-inv F
  0.000000  0.333333 -0.333333    0.00462963  12 t-inv F
  0.500000  0.000000  0.500000    0.00462963  13 t-inv F
  0.000000  0.500000  0.500000    0.00462963  13 t-inv F
 -0.166667 -0.166667 -0.166667    0.00462963  14 t-inv F
  0.166667  0.333333  0.166667    0.00462963  15 t-inv F
  0.166667  0.166667  0.333333    0.00462963  15 t-inv F
 -0.333333 -0.166667 -0.166667    0.00462963  15 t-inv F
 -0.166667 -0.333333 -0.166667    0.00462963  15 t-inv F
 -0.166667 -0.166667 -0.333333    0.00462963  15 t-inv F
  0.166667  0.500000  0.166667    0.00462963  16 t-inv F
  0.166667  0.166667  0.500000    0.00462963  16 t-inv F
 -0.500000 -0.166667 -0.166667    0.00462963  16 t-inv F
 -0.166667 -0.500000 -0.166667    0.00462963  16 t-inv F
 -0.166667 -0.166667 -0.500000    0.00462963  16 t-inv F
  0.166667 -0.333333  0.166667    0.00462963  17 t-inv F
  0.166667  0.166667 -0.333333    0.00462963  17 t-inv F
  0.333333 -0.166667 -0.166667    0.00462963  17 t-inv F
 -0.166667  0.333333 -0.166667    0.00462963  17 t-inv F
 -0.166667 -0.166667  0.333333    0.00462963  17 t-inv F
  0.166667 -0.166667  0.166667    0.00462963  18 t-inv F
  0.166667  0.166667 -0.166667    0.00462963  18 t-inv F
  0.166667 -0.166667 -0.166667    0.00462963  18 t-inv F
 -0.166667  0.166667 -0.166667    0.00462963  18 t-inv F
 -0.166667 -0.166667  0.166667    0.00462963  18 t-inv F
  0.333333  0.166667  0.333333    0.00462963  19 t-inv F
  0.166667  0.333333  0.333333    0.00462963  19 t-inv F
 -0.333333 -0.333333 -0.166667    0.00462963  19 t-inv F
 -0.333333 -0.166667 -0.333333    0.00462963  19 t-inv F
 -0.166667 -0.333333 -0.333333    0.00462963  19 t-inv F
  0.500000  0.166667  0.333333    0.00462963  20 t-inv F
  0.166667  0.500000  0.333333    0.00462963  20 t-inv F
  0.333333  0.500000  0.166667    0.00462963  20 t-inv F
  0.333333  0.166667  0.500000    0.00462963  20 t-inv F
  0.166667  0.333333  0.500000    0.00462963  20 t-inv F
 -0.500000 -0.333333 -0.166667    0.00462963  20 t-inv F
 -0.500000 -0.166667 -0.333333    0.00462963  20 t-inv F
 -0.166667 -0.500000 -0.333333    0.00462963  20 t-inv F
 -0.333333 -0.500000 -0.166667    0.00462963  20 t-inv F
 -0.333333 -0.166667 -0.500000    0.00462963  20 t-inv F
 -0.166667 -0.333333 -0.500000    0.00462963  20 t-inv F
 -0.333333  0.166667  0.333333    0.00462963  21 t-inv F
  0.166667 -0.333333  0.333333    0.00462963  21 t-inv F
  0.333333 -0.333333  0.166667    0.00462963  21 t-inv F
  0.333333  0.166667 -0.333333    0.00462963  21 t-inv F
  0.166667  0.333333 -0.333333    0.00462963  21 t-inv F
  0.333333 -0.333333 -0.166667    0.00462963  21 t-inv F
  0.333333 -0.166667 -0.333333    0.00462963  21 t-inv F
 -0.166667  0.333333 -0.333333    0.00462963  21 t-inv F
 -0.333333  0.333333 -0.166667    0.00462963  21 t-inv F
 -0.333333 -0.166667  0.333333    0.00462963  21 t-inv F
 -0.166667 -0.333333  0.333333    0.00462963  21 t-inv F
 -0.166667  0.166667  0.333333    0.00462963  22 t-inv F
  0.166667 -0.166667  0.333333    0.00462963  22 t-inv F
  0.333333 -0.166667  0.166667    0.00462963  22 t-inv F
  0.333333  0.166667 -0.166667    0.00462963  22 t-inv F
  0.166667  0.333333 -0.166667    0.00462963  22 t-inv F
  0.166667 -0.333333 -0.166667    0.00462963  22 t-inv F
  0.166667 -0.166667 -0.333333    0.00462963  22 t-inv F
 -0.166667  0.166667 -0.333333    0.00462963  22 t-inv F
 -0.333333  0.166667 -0.166667    0.00462963  22 t-inv F
 -0.333333 -0.166667  0.166667    0.00462963  22 t-inv F
 -0.166667 -0.333333  0.166667    0.00462963  22 t-inv F
  0.500000  0.166667  0.500000    0.00462963  23 t-inv F
  0.166667  0.500000  0.500000    0.00462963  23 t-inv F
 -0.500000 -0.500000 -0.166667    0.00462963  23 t-inv F
 -0.500000 -0.166667 -0.500000    0.00462963  23 t-inv F
 -0.166667 -0.500000 -0.500000    0.00462963  23 t-inv F
 -0.333333  0.166667  0.500000    0.00462963  24 t-inv F
  0.166667 -0.333333  0.500000    0.00462963  24 t-inv F
  0.500000 -0.333333  0.166667    0.00462963  24 t-inv F
  0.500000  0.166667 -0.333333    0.00462963  24 t-inv F
  0.166667  0.500000 -0.333333    0.00462963  24 t-inv F
  0.333333 -0.500000 -0.166667    0.00462963  24 t-inv F
  0.333333 -0.166667 -0.500000    0.00462963  24 t-inv F
 -0.166667  0.333333 -0.500000    0.00462963  24 t-inv F
 -0.500000  0.333333 -0.166667    0.00462963  24 t-inv F
 -0.500000 -0.166667  0.333333    0.00462963  24 t-inv F
 -0.166667 -0.500000  0.333333    0.00462963  24 t-inv F
 -0.166667  0.166667  0.500000    0.00462963  25 t-inv F
  0.166667 -0.166667  0.500000    0.00462963  25 t-inv F
  0.500000 -0.166667  0.166667    0.00462963  25 t-inv F
  0.500000  0.166667 -0.166667    0.00462963  25 t-inv F
  0.166667  0.500000 -0.166667    0.00462963  25 t-inv F
 -0.333333  0.166667 -0.333333    0.00462963  26 t-inv F
  0.166667 -0.333333 -0.333333    0.00462963  26 t-inv F
  0.333333  0.333333 -0.166667    0.00462963  26 t-inv F
  0.333333 -0.166667  0.333333    0.00462963  26 t-inv F
 -0.166667  0.333333  0.333333    0.00462963  26 t-inv F
 -0.333333 -0.333333 -0.333333    0.00462963  27 t-inv F
  0.333333  0.500000  0.333333    0.00462963  28 t-inv F
  0.333333  0.333333  0.500000    0.00462963  28 t-inv F
 -0.500000 -0.333333 -0.333333    0.00462963  28 t-inv F
 -0.333333 -0.500000 -0.333333    0.00462963  28 t-inv F
 -0.333333 -0.333333 -0.500000    0.00462963  28 t-inv F
  0.333333 -0.333333  0.333333    0.00462963  29 t-inv F
  0.333333  0.333333 -0.333333    0.00462963  29 t-inv F
  0.333333 -0.333333 -0.333333    0.00462963  29 t-inv F
 -0.333333  0.333333 -0.333333    0.00462963  29 t-inv F
 -0.333333 -0.333333  0.333333    0.00462963  29 t-inv F
  0.500000  0.333333  0.500000    0.00462963  30 t-inv F
  0.333333  0.500000  0.500000    0.00462963  30 t-inv F
 -0.500000 -0.500000 -0.333333    0.00462963  30 t-inv F
 -0.500000 -0.333333 -0.500000    0.00462963  30 t-inv F
 -0.333333 -0.500000 -0.500000    0.00462963  30 t-inv F
 -0.333333  0.333333  0.500000    0.00462963  31 t-inv F
  0.333333 -0.333333  0.500000    0.00462963  31 t-inv F
  0.500000 -0.333333  0.333333    0.00462963  31 t-inv F
  0.500000  0.333333 -0.333333    0.00462963  31 t-inv F
  0.333333  0.500000 -0.333333    0.00462963  31 t-inv F


--------------------------------------------------------------------------------------------------------




 Dimension of arrays:
   k-points           NKPTS =     32   k-points in BZ     NKDIM =     32   number of bands    NBANDS=    192
   number of dos      NEDOS =    301   number of ions     NIONS =     64
   non local maximal  LDIM  =      4   non local SUM 2l+1 LMDIM =      8
   total plane-waves  NPLWV = 110592
   max r-space proj   IRMAX =      1   max aug-charges    IRDMAX=  28469
   dimension x,y,z NGX =    48 NGY =   48 NGZ =   48
   dimension x,y,z NGXF=    96 NGYF=   96 NGZF=   96
   support grid    NGXF=   192 NGYF=  192 NGZF=  192
   ions per type =              64
   NGX,Y,Z   is equivalent  to a cutoff of  11.11, 11.11, 11.11 a.u.
   NGXF,Y,Z  is equivalent  to a cutoff of  22.23, 22.23, 22.23 a.u.

 SYSTEM =  unknown system                          
 POSCAR =  generated by phonopy                    

 Startparameter for this run:
   NWRITE =      2    write-flag & timer
   PREC   = accura    normal or accurate (medium, high low for compatibility)
   ISTART =      0    job   : 0-new  1-cont  2-samecut
   ICHARG =      2    charge: 1-file 2-atom 10-const
   ISPIN  =      1    spin polarized calculation?
   LNONCOLLINEAR =      F non collinear calculations
   LSORBIT =      F    spin-orbit coupling
   INIWAV =      1    electr: 0-lowe 1-rand  2-diag
   LASPH  =      F    aspherical Exc in radial PAW
   METAGGA=      F    non-selfconsistent MetaGGA calc.

 Electronic Relaxation 1
   ENCUT  =  400.0 eV  29.40 Ry    5.42 a.u.  11.71 11.71 11.71*2*pi/ulx,y,z
   ENINI  =  400.0     initial cutoff
   ENAUG  =  644.9 eV  augmentation charge cutoff
   NELM   =     60;   NELMIN=  2; NELMDL= -5     # of ELM steps 
   EDIFF  = 0.1E-07   stopping-criterion for ELM
   LREAL  =      F    real-space projection
   NLSPLINE    = F    spline interpolate recip. space projectors
   LCOMPAT=      F    compatible to vasp.4.4
   GGA_COMPAT  = T    GGA compatible to vasp.4.4-vasp.4.6
   LMAXPAW     = -100 max onsite density
   LMAXMIX     =    2 max onsite mixed and CHGCAR
   VOSKOWN=      0    Vosko Wilk Nusair interpolation
   ROPT   =    0.00000
 Ionic relaxation
   EDIFFG = 0.1E-06   stopping-criterion for IOM
   NSW    =      1    number of steps for IOM
   NBLOCK =      1;   KBLOCK =      1    inner block; outer block 
   IBRION =      8    ionic relax: 0-MD 1-quasi-New 2-CG
   NFREE  =      0    steps in history (QN), initial steepest desc. (CG)
   ISIF   =      2    stress and relaxation
   IWAVPR =     11    prediction:  0-non 1-charg 2-wave 3-comb
   ISYM   =      2    0-nonsym 1-usesym 2-fastsym
   LCORR  =      T    Harris-Foulkes like correction to forces

   POTIM  = 0.5000    time-step for ionic-motion
   TEIN   =    0.0    initial temperature
   TEBEG  =    0.0;   TEEND  =   0.0 temperature during run
   SMASS  =  -3.00    Nose mass-parameter (am)
   estimated Nose-frequenzy (Omega)   =  0.10E-29 period in steps =****** mass=  -0.118E-26a.u.
   SCALEE = 1.0000    scale energy and forces
   NPACO  =    256;   APACO  = 16.0  distance and # of slots for P.C.
   PSTRESS=    0.0 pullay stress

  Mass of Ions in am
   POMASS =  12.01
  Ionic Valenz
   ZVAL   =   4.00
  Atomic Wigner-Seitz radii
   RWIGS  =  -1.00
  virtual crystal weights 
   VCA    =   1.00
   NELECT =     256.0000    total number of electrons
   NUPDOWN=      -1.0000    fix difference up-down

 DOS related values:
   EMIN   =  10.00;   EMAX   =-10.00  energy-range for DOS
   EFERMI =   0.00
   ISMEAR =     0;   SIGMA  =   0.06  broadening in eV -4-tet -1-fermi 0-gaus

 Electronic relaxation 2 (details)
   IALGO  =     38    algorithm
   LDIAG  =      T    sub-space diagonalisation (order eigenvalues)
   LSUBROT=      F    optimize rotation matrix (better conditioning)
   TURBO    =      0    0=normal 1=particle mesh
   IRESTART =      0    0=no restart 2=restart with 2 vectors
   NREBOOT  =      0    no. of reboots
   NMIN     =      0    reboot dimension
   EREF     =   0.00    reference energy to select bands
   IMIX   =      4    mixing-type and parameters
     AMIX     =   0.40;   BMIX     =  1.00
     AMIX_MAG =   1.60;   BMIX_MAG =  1.00
     AMIN     =   0.10
     WC   =   100.;   INIMIX=   1;  MIXPRE=   1;  MAXMIX= -45

 Intra band minimization:
   WEIMIN = 0.0010     energy-eigenvalue tresh-hold
   EBREAK =  0.13E-10  absolut break condition
   DEPER  =   0.30     relativ break condition  

   TIME   =   0.40     timestep for ELM

  volume/ion in A,a.u.               =       5.77        38.94
  Fermi-wavevector in a.u.,A,eV,Ry     =   1.448892  2.738009 28.562555  2.099289
  Thomas-Fermi vector in A             =   2.566681
 
 Write flags
   LWAVE        =      F    write WAVECAR
   LDOWNSAMPLE  =      F    k-point downsampling of WAVECAR
   LCHARG       =      F    write CHGCAR
   LVTOT        =      F    write LOCPOT, total local potential
   LVHAR        =      F    write LOCPOT, Hartree potential only
   LELF         =      F    write electronic localiz. function (ELF)
   LORBIT       =      0    0 simple, 1 ext, 2 COOP (PROOUT), +10 PAW based schemes


 Dipole corrections
   LMONO  =      F    monopole corrections only (constant potential shift)
   LDIPOL =      F    correct potential (dipole corrections)
   IDIPOL =      0    1-x, 2-y, 3-z, 4-all directions 
   EPSILON=  1.0000000 bulk dielectric constant

 Exchange correlation treatment:
   GGA     =    --    GGA type
   LEXCH   =     8    internal setting for exchange type
   VOSKOWN=      0    Vosko Wilk Nusair interpolation
   LHFCALC =     F    Hartree Fock is set to
   LHFONE  =     F    Hartree Fock one center treatment
   AEXX    =    0.0000 exact exchange contribution

 Linear response parameters
   LEPSILON=     F    determine dielectric tensor
   LRPA    =     F    only Hartree local field effects (RPA)
   LNABLA  =     F    use nabla operator in PAW spheres
   LVEL    =     F    velocity operator in full k-point grid
   LINTERFAST=   F  fast interpolation
   KINTER  =     0    interpolate to denser k-point grid
   CSHIFT  =0.1000    complex shift for real part using Kramers Kronig
   OMEGAMAX=  -1.0    maximum frequency
   DEG_THRESHOLD= 0.2000000E-02 threshold for treating states as degnerate
   RTIME   =   -0.100 relaxation time in fs
  (WPLASMAI=    0.000 imaginary part of plasma frequency in eV, 0.658/RTIME)
   DFIELD  = 0.0000000 0.0000000 0.0000000 field for delta impulse in time
 
 Orbital magnetization related:
   ORBITALMAG=     F  switch on orbital magnetization
   LCHIMAG   =     F  perturbation theory with respect to B field
   DQ        =  0.001000  dq finite difference perturbation B field
   LLRAUG    =     F  two centre corrections for induced B field



--------------------------------------------------------------------------------------------------------


 linear response using symmetry
 charge density and potential will be updated during run
 non-spin polarized calculation
 Variant of blocked Davidson
 Davidson routine will perform the subspace rotation
 perform sub-space diagonalisation
    after iterative eigenvector-optimisation
 modified Broyden-mixing scheme, WC =      100.0
 initial mixing is a Kerker type mixing with AMIX =  0.4000 and BMIX =      1.0000
 Hartree-type preconditioning will be used
 using additional bands           64
 reciprocal scheme for non local part
 calculate Harris-corrections to forces 
   (improved forces if not selfconsistent)
 use gradient corrections 
 use of overlap-Matrix (Vanderbilt PP)
 Gauss-broadening in eV      SIGMA  =   0.06


--------------------------------------------------------------------------------------------------------


  energy-cutoff  :      400.00
  volume of cell :      369.28
      direct lattice vectors                 reciprocal lattice vectors
     7.179998718  0.000000000  0.000000000     0.139275791 -0.005575478 -0.005365007
     0.287199145  7.174252646  0.000000000     0.000000000  0.139387341 -0.005365006
     0.287199145  0.275932021  7.168944561     0.000000000  0.000000000  0.139490547

  length of vectors
     7.179998718  7.179998912  7.179999160     0.139490556  0.139490552  0.139490547


 
 k-points in units of 2pi/SCALE and weight: kpt_density=3000                        
   0.00000000  0.00000000  0.00000000       0.005
   0.02321263 -0.00092925 -0.00089417       0.028
   0.04642526 -0.00185849 -0.00178834       0.028
   0.06963790 -0.00278774 -0.00268250       0.014
   0.02321263  0.02230198 -0.00178834       0.028
   0.04642526  0.02137273 -0.00268250       0.056
   0.06963790  0.02044348 -0.00357667       0.056
  -0.04642526  0.02508972  0.00089417       0.056
  -0.02321263  0.02416047  0.00000000       0.028
   0.04642526  0.04460395 -0.00357667       0.028
   0.06963790  0.04367471 -0.00447084       0.056
  -0.04642526  0.04832094  0.00000000       0.028
   0.06963790  0.06690593 -0.00536501       0.014
   0.02321263  0.02230198  0.02146009       0.009
   0.04642526  0.02137273  0.02056592       0.028
   0.06963790  0.02044348  0.01967175       0.028
  -0.04642526  0.02508972  0.02414259       0.028
  -0.02321263  0.02416047  0.02324842       0.028
   0.04642526  0.04460395  0.01967175       0.028
   0.06963790  0.04367471  0.01877759       0.056
  -0.04642526  0.04832094  0.02324842       0.056
  -0.02321263  0.04739169  0.02235426       0.056
   0.06963790  0.06690593  0.01788342       0.028
  -0.04642526  0.07155216  0.02235426       0.056
  -0.02321263  0.07062292  0.02146009       0.028
  -0.04642526 -0.04460395  0.02682510       0.028
   0.04642526  0.04460395  0.04292018       0.009
   0.06963790  0.04367471  0.04202601       0.028
  -0.04642526  0.04832094  0.04649685       0.028
   0.06963790  0.06690593  0.04113184       0.028
  -0.04642526  0.07155216  0.04560268       0.028
   0.06963790  0.06690593  0.06438027       0.005
 
 k-points in reciprocal lattice and weights: kpt_density=3000                        
   0.00000000  0.00000000  0.00000000       0.005
   0.16666667 -0.00000000  0.00000000       0.028
   0.33333333 -0.00000000 -0.00000000       0.028
   0.50000000  0.00000000 -0.00000000       0.014
   0.16666667  0.16666667  0.00000000       0.028
   0.33333333  0.16666667  0.00000000       0.056
   0.50000000  0.16666667 -0.00000000       0.056
  -0.33333333  0.16666667  0.00000000       0.056
  -0.16666667  0.16666667 -0.00000000       0.028
   0.33333333  0.33333333  0.00000000       0.028
   0.50000000  0.33333333  0.00000000       0.056
  -0.33333333  0.33333333  0.00000000       0.028
   0.50000000  0.50000000  0.00000000       0.014
   0.16666667  0.16666667  0.16666667       0.009
   0.33333333  0.16666667  0.16666667       0.028
   0.50000000  0.16666667  0.16666667       0.028
  -0.33333333  0.16666667  0.16666667       0.028
  -0.16666667  0.16666667  0.16666667       0.028
   0.33333333  0.33333333  0.16666667       0.028
   0.50000000  0.33333333  0.16666667       0.056
  -0.33333333  0.33333333  0.16666667       0.056
  -0.16666667  0.33333333  0.16666667       0.056
   0.50000000  0.50000000  0.16666667       0.028
  -0.33333333  0.50000000  0.16666667       0.056
  -0.16666667  0.50000000  0.16666667       0.028
  -0.33333333 -0.33333333  0.16666667       0.028
   0.33333333  0.33333333  0.33333333       0.009
   0.50000000  0.33333333  0.33333333       0.028
  -0.33333333  0.33333333  0.33333333       0.028
   0.50000000  0.50000000  0.33333333       0.028
  -0.33333333  0.50000000  0.33333333       0.028
   0.50000000  0.50000000  0.50000000       0.005
 
 position of ions in fractional coordinates (direct lattice) 
   0.12500000  0.37500000  0.12500000
   0.62500000  0.37500000  0.12500000
   0.12500000  0.87500000  0.12500000
   0.62500000  0.87500000  0.12500000
   0.12500000  0.37500000  0.62500000
   0.62500000  0.37500000  0.62500000
   0.12500000  0.87500000  0.62500000
   0.62500000  0.87500000  0.62500000
   0.00000000  0.00000000  0.25000000
   0.50000000  0.00000000  0.25000000
   0.00000000  0.50000000  0.25000000
   0.50000000  0.50000000  0.25000000
   0.00000000  0.00000000  0.75000000
   0.50000000  0.00000000  0.75000000
   0.00000000  0.50000000  0.75000000
   0.50000000  0.50000000  0.75000000
   0.12500000  0.12500000  0.37500000
   0.62500000  0.12500000  0.37500000
   0.12500000  0.62500000  0.37500000
   0.62500000  0.62500000  0.37500000
   0.12500000  0.12500000  0.87500000
   0.62500000  0.12500000  0.87500000
   0.12500000  0.62500000  0.87500000
   0.62500000  0.62500000  0.87500000
   0.00000000  0.25000000  0.00000000
   0.50000000  0.25000000  0.00000000
   0.00000000  0.75000000  0.00000000
   0.50000000  0.75000000  0.00000000
   0.00000000  0.25000000  0.50000000
   0.50000000  0.25000000  0.50000000
   0.00000000  0.75000000  0.50000000
   0.50000000  0.75000000  0.50000000
   0.37500000  0.37500000  0.37500000
   0.87500000  0.37500000  0.37500000
   0.37500000  0.87500000  0.37500000
   0.87500000  0.87500000  0.37500000
   0.37500000  0.37500000  0.87500000
   0.87500000  0.37500000  0.87500000
   0.37500000  0.87500000  0.87500000
   0.87500000  0.87500000  0.87500000
   0.25000000  0.00000000  0.00000000
   0.75000000  0.00000000  0.00000000
   0.25000000  0.50000000  0.00000000
   0.75000000  0.50000000  0.00000000
   0.25000000  0.00000000  0.50000000
   0.75000000  0.00000000  0.50000000
   0.25000000  0.50000000  0.50000000
   0.75000000  0.50000000  0.50000000
   0.37500000  0.12500000  0.12500000
   0.87500000  0.12500000  0.12500000
   0.37500000  0.62500000  0.12500000
   0.87500000  0.62500000  0.12500000
   0.37500000  0.12500000  0.62500000
   0.87500000  0.12500000  0.62500000
   0.37500000  0.62500000  0.62500000
   0.87500000  0.62500000  0.62500000
   0.25000000  0.25000000  0.25000000
   0.75000000  0.25000000  0.25000000
   0.25000000  0.75000000  0.25000000
   0.75000000  0.75000000  0.25000000
   0.25000000  0.25000000  0.75000000
   0.75000000  0.25000000  0.75000000
   0.25000000  0.75000000  0.75000000
   0.75000000  0.75000000  0.75000000
 
 position of ions in cartesian coordinates  (Angst):
   1.04109941  2.72483624  0.89611807
   4.63109877  2.72483624  0.89611807
   1.18469898  6.31196257  0.89611807
   4.77469834  6.31196257  0.89611807
   1.18469898  2.86280226  4.48059035
   4.77469834  2.86280226  4.48059035
   1.32829856  6.44992858  4.48059035
   4.91829792  6.44992858  4.48059035
   0.07179979  0.06898301  1.79223614
   3.66179915  0.06898301  1.79223614
   0.21539936  3.65610933  1.79223614
   3.80539872  3.65610933  1.79223614
   0.21539936  0.20694902  5.37670842
   3.80539872  0.20694902  5.37670842
   0.35899893  3.79407534  5.37670842
   3.94899829  3.79407534  5.37670842
   1.04109941  1.00025609  2.68835421
   4.63109877  1.00025609  2.68835421
   1.18469898  4.58738241  2.68835421
   4.77469834  4.58738241  2.68835421
   1.18469898  1.13822210  6.27282649
   4.77469834  1.13822210  6.27282649
   1.32829856  4.72534842  6.27282649
   4.91829792  4.72534842  6.27282649
   0.07179979  1.79356316  0.00000000
   3.66179915  1.79356316  0.00000000
   0.21539936  5.38068948  0.00000000
   3.80539872  5.38068948  0.00000000
   0.21539936  1.93152917  3.58447228
   3.80539872  1.93152917  3.58447228
   0.35899893  5.51865549  3.58447228
   3.94899829  5.51865549  3.58447228
   2.90789888  2.79381925  2.68835421
   6.49789824  2.79381925  2.68835421
   3.05149845  6.38094557  2.68835421
   6.64149781  6.38094557  2.68835421
   3.05149845  2.93178526  6.27282649
   6.64149781  2.93178526  6.27282649
   3.19509802  6.51891158  6.27282649
   6.78509738  6.51891158  6.27282649
   1.79499968  0.00000000  0.00000000
   5.38499904  0.00000000  0.00000000
   1.93859925  3.58712632  0.00000000
   5.52859861  3.58712632  0.00000000
   1.93859925  0.13796601  3.58447228
   5.52859861  0.13796601  3.58447228
   2.08219882  3.72509233  3.58447228
   5.67219818  3.72509233  3.58447228
   2.76429931  0.93127308  0.89611807
   6.35429866  0.93127308  0.89611807
   2.90789888  4.51839941  0.89611807
   6.49789824  4.51839941  0.89611807
   2.90789888  1.06923909  4.48059035
   6.49789824  1.06923909  4.48059035
   3.05149845  4.65636542  4.48059035
   6.64149781  4.65636542  4.48059035
   1.93859925  1.86254617  1.79223614
   5.52859861  1.86254617  1.79223614
   2.08219882  5.44967249  1.79223614
   5.67219818  5.44967249  1.79223614
   2.08219882  2.00051218  5.37670842
   5.67219818  2.00051218  5.37670842
   2.22579840  5.58763850  5.37670842
   5.81579776  5.58763850  5.37670842
 


--------------------------------------------------------------------------------------------------------


 k-point  1 :   0.0000 0.0000 0.0000  plane waves:    6699
 k-point  2 :   0.1667-0.0000 0.0000  plane waves:    6715
 k-point  3 :   0.3333-0.0000-0.0000  plane waves:    6720
 k-point  4 :   0.5000 0.0000-0.0000  plane waves:    6728
 k-point  5 :   0.1667 0.1667 0.0000  plane waves:    6688
 k-point  6 :   0.3333 0.1667 0.0000  plane waves:    6709
 k-point  7 :   0.5000 0.1667-0.0000  plane waves:    6720
 k-point  8 :  -0.3333 0.1667 0.0000  plane waves:    6710
 k-point  9 :  -0.1667 0.1667-0.0000  plane waves:    6696
 k-point 10 :   0.3333 0.3333 0.0000  plane waves:    6719
 k-point 11 :   0.5000 0.3333 0.0000  plane waves:    6705
 k-point 12 :  -0.3333 0.3333 0.0000  plane waves:    6692
 k-point 13 :   0.5000 0.5000 0.0000  plane waves:    6682
 k-point 14 :   0.1667 0.1667 0.1667  plane waves:    6722
 k-point 15 :   0.3333 0.1667 0.1667  plane waves:    6717
 k-point 16 :   0.5000 0.1667 0.1667  plane waves:    6717
 k-point 17 :  -0.3333 0.1667 0.1667  plane waves:    6723
 k-point 18 :  -0.1667 0.1667 0.1667  plane waves:    6707
 k-point 19 :   0.3333 0.3333 0.1667  plane waves:    6715
 k-point 20 :   0.5000 0.3333 0.1667  plane waves:    6707
 k-point 21 :  -0.3333 0.3333 0.1667  plane waves:    6712
 k-point 22 :  -0.1667 0.3333 0.1667  plane waves:    6714
 k-point 23 :   0.5000 0.5000 0.1667  plane waves:    6705
 k-point 24 :  -0.3333 0.5000 0.1667  plane waves:    6695
 k-point 25 :  -0.1667 0.5000 0.1667  plane waves:    6722
 k-point 26 :  -0.3333-0.3333 0.1667  plane waves:    6706
 k-point 27 :   0.3333 0.3333 0.3333  plane waves:    6710
 k-point 28 :   0.5000 0.3333 0.3333  plane waves:    6702
 k-point 29 :  -0.3333 0.3333 0.3333  plane waves:    6693
 k-point 30 :   0.5000 0.5000 0.3333  plane waves:    6707
 k-point 31 :  -0.3333 0.5000 0.3333  plane waves:    6690
 k-point 32 :   0.5000 0.5000 0.5000  plane waves:    6710

 maximum and minimum number of plane-waves per node :      6728     6682

 maximum number of plane-waves:      6728
 maximum index in each direction: 
   IXMAX=   12   IYMAX=   12   IZMAX=   11
   IXMIN=  -12   IYMIN=  -12   IZMIN=  -12


 serial   3D FFT for wavefunctions
 parallel 3D FFT for charge:
    minimum data exchange during FFTs selected (reduces bandwidth)


 total amount of memory used by VASP MPI-rank0    83596. kBytes
=======================================================================

   base      :      30000. kBytes
   nonl-proj :      20742. kBytes
   fftplans  :       4537. kBytes
   grid      :       5806. kBytes
   one-center:        196. kBytes
   wavefun   :      22315. kBytes
 
     INWAV:  cpu time    0.0004: real time    0.0005
 Broyden mixing: mesh for mixing (old mesh)
   NGX = 23   NGY = 23   NGZ = 23
  (NGX  = 96   NGY  = 96   NGZ  = 96)
  gives a total of  12167 points

 initial charge density was supplied:
 charge density of overlapping atoms calculated
 number of electron     256.0000000 magnetization 
 keeping initial charge density in first step


--------------------------------------------------------------------------------------------------------


 Maximum index for augmentation-charges         1095 (set IRDMAX)


--------------------------------------------------------------------------------------------------------


 First call to EWALD:  gamma=   0.247
 Maximum number of real-space cells 3x 3x 3
 Maximum number of reciprocal cells 3x 3x 3

    FEWALD:  cpu time    0.0085: real time    0.0085


--------------------------------------- Iteration      1(   1)  ---------------------------------------


    POTLOK:  cpu time    0.0670: real time    0.1314
    SETDIJ:  cpu time    0.0412: real time    0.0414
     EDDAV:  cpu time   21.5162: real time   21.5252
       DOS:  cpu time    0.0072: real time    0.0072
    --------------------------------------------
      LOOP:  cpu time   21.6317: real time   21.7053

 eigenvalue-minimisations  : 12288
 total energy-change (2. order) : 0.5082008E+03  (-0.1134343E+05)
 number of electron     256.0000000 magnetization 
 augmentation part      256.0000000 magnetization 

 Free energy of the ion-electron system (eV)
  ---------------------------------------------------
  alpha Z        PSCENC =       903.76514330
  Ewald energy   TEWEN  =    -11061.68602274
  -Hartree energ DENC   =      -580.39839212
  -exchange      EXHF   =         0.00000000
  -V(xc)+E(xc)   XCENC  =       911.78721269
  PAW double counting   =      2421.21235816    -2494.84305711
  entropy T*S    EENTRO =        -0.01260760
  eigenvalues    EBANDS =       992.23380218
  atomic energy  EATOM  =      9416.14232778
  Solvation  Ediel_sol  =         0.00000000
  ---------------------------------------------------
  free energy    TOTEN  =       508.20076454 eV

  energy without entropy =      508.21337213  energy(sigma->0) =      508.20706834


--------------------------------------------------------------------------------------------------------




--------------------------------------- Iteration      1(   2)  ---------------------------------------


     EDDAV:  cpu time   26.9989: real time   27.0005
       DOS:  cpu time    0.0036: real time    0.0036
    --------------------------------------------
      LOOP:  cpu time   27.0026: real time   27.0042

 eigenvalue-minimisations  : 16288
 total energy-change (2. order) :-0.1064816E+04  (-0.1012487E+04)
 number of electron     256.0000000 magnetization 
 augmentation part      256.0000000 magnetization 

 Free energy of the ion-electron system (eV)
  ---------------------------------------------------
  alpha Z        PSCENC =       903.76514330
  Ewald energy   TEWEN  =    -11061.68602274
  -Hartree energ DENC   =      -580.39839212
  -exchange      EXHF   =         0.00000000
  -V(xc)+E(xc)   XCENC  =       911.78721269
  PAW double counting   =      2421.21235816    -2494.84305711
  entropy T*S    EENTRO =        -0.00000000
  eigenvalues    EBANDS =       -72.59440158
  atomic energy  EATOM  =      9416.14232778
  Solvation  Ediel_sol  =         0.00000000
  ---------------------------------------------------
  free energy    TOTEN  =      -556.61483162 eV

  energy without entropy =     -556.61483162  energy(sigma->0) =     -556.61483162


--------------------------------------------------------------------------------------------------------




--------------------------------------- Iteration      1(   3)  ---------------------------------------


     EDDAV:  cpu time   27.4768: real time   27.4785
       DOS:  cpu time    0.0038: real time    0.0038
    --------------------------------------------
      LOOP:  cpu time   27.4805: real time   27.4823

 eigenvalue-minimisations  : 16288
 total energy-change (2. order) :-0.4169859E+02  (-0.4144391E+02)
 number of electron     256.0000000 magnetization 
 augmentation part      256.0000000 magnetization 

 Free energy of the ion-electron system (eV)
  ---------------------------------------------------
  alpha Z        PSCENC =       903.76514330
  Ewald energy   TEWEN  =    -11061.68602274
  -Hartree energ DENC   =      -580.39839212
  -exchange      EXHF   =         0.00000000
  -V(xc)+E(xc)   XCENC  =       911.78721269
  PAW double counting   =      2421.21235816    -2494.84305711
  entropy T*S    EENTRO =        -0.00000000
  eigenvalues    EBANDS =      -114.29299117
  atomic energy  EATOM  =      9416.14232778
  Solvation  Ediel_sol  =         0.00000000
  ---------------------------------------------------
  free energy    TOTEN  =      -598.31342121 eV

  energy without entropy =     -598.31342121  energy(sigma->0) =     -598.31342121


--------------------------------------------------------------------------------------------------------




--------------------------------------- Iteration      1(   4)  ---------------------------------------


     EDDAV:  cpu time   27.3153: real time   27.3170
       DOS:  cpu time    0.0039: real time    0.0038
    --------------------------------------------
      LOOP:  cpu time   27.3192: real time   27.3209

 eigenvalue-minimisations  : 16256
 total energy-change (2. order) :-0.4584235E+00  (-0.4574785E+00)
 number of electron     256.0000000 magnetization 
 augmentation part      256.0000000 magnetization 

 Free energy of the ion-electron system (eV)
  ---------------------------------------------------
  alpha Z        PSCENC =       903.76514330
  Ewald energy   TEWEN  =    -11061.68602274
  -Hartree energ DENC   =      -580.39839212
  -exchange      EXHF   =         0.00000000
  -V(xc)+E(xc)   XCENC  =       911.78721269
  PAW double counting   =      2421.21235816    -2494.84305711
  entropy T*S    EENTRO =        -0.00000000
  eigenvalues    EBANDS =      -114.75141464
  atomic energy  EATOM  =      9416.14232778
  Solvation  Ediel_sol  =         0.00000000
  ---------------------------------------------------
  free energy    TOTEN  =      -598.77184469 eV

  energy without entropy =     -598.77184469  energy(sigma->0) =     -598.77184469


--------------------------------------------------------------------------------------------------------




--------------------------------------- Iteration      1(   5)  ---------------------------------------


     EDDAV:  cpu time   25.7156: real time   25.7172
       DOS:  cpu time    0.0038: real time    0.0038
    CHARGE:  cpu time    0.6495: real time    0.6497
    MIXING:  cpu time    0.0041: real time    0.0041
    --------------------------------------------
      LOOP:  cpu time   26.3731: real time   26.3749

 eigenvalue-minimisations  : 15456
 total energy-change (2. order) :-0.9717373E-02  (-0.9713160E-02)
 number of electron     255.9999994 magnetization 
 augmentation part        6.2100206 magnetization 

 Broyden mixing:
  rms(total) = 0.26522E+01    rms(broyden)= 0.26516E+01
  rms(prec ) = 0.38809E+01
  weight for this iteration     100.00

 Free energy of the ion-electron system (eV)
  ---------------------------------------------------
  alpha Z        PSCENC =       903.76514330
  Ewald energy   TEWEN  =    -11061.68602274
  -Hartree energ DENC   =      -580.39839212
  -exchange      EXHF   =         0.00000000
  -V(xc)+E(xc)   XCENC  =       911.78721269
  PAW double counting   =      2421.21235816    -2494.84305711
  entropy T*S    EENTRO =        -0.00000000
  eigenvalues    EBANDS =      -114.76113202
  atomic energy  EATOM  =      9416.14232778
  Solvation  Ediel_sol  =         0.00000000
  ---------------------------------------------------
  free energy    TOTEN  =      -598.78156206 eV

  energy without entropy =     -598.78156206  energy(sigma->0) =     -598.78156206


--------------------------------------------------------------------------------------------------------




--------------------------------------- Iteration      1(   6)  ---------------------------------------


    POTLOK:  cpu time    0.0585: real time    0.0589
    SETDIJ:  cpu time    0.0406: real time    0.0406
     EDDAV:  cpu time   26.1360: real time   26.1373
       DOS:  cpu time    0.0037: real time    0.0037
    CHARGE:  cpu time    0.6459: real time    0.6459
    MIXING:  cpu time    0.0040: real time    0.0040
    --------------------------------------------
      LOOP:  cpu time   26.8888: real time   26.8905

 eigenvalue-minimisations  : 14464
 total energy-change (2. order) : 0.1477855E+02  (-0.9904253E+00)
 number of electron     255.9999994 magnetization 
 augmentation part        6.0667528 magnetization 

 Broyden mixing:
  rms(total) = 0.14567E+01    rms(broyden)= 0.14566E+01
  rms(prec ) = 0.21110E+01
  weight for this iteration     100.00

 eigenvalues of (default mixing * dielectric matrix)
  average eigenvalue GAMMA=   2.1711
  2.1711

 Free energy of the ion-electron system (eV)
  ---------------------------------------------------
  alpha Z        PSCENC =       903.76514330
  Ewald energy   TEWEN  =    -11061.68602274
  -Hartree energ DENC   =      -701.20084963
  -exchange      EXHF   =         0.00000000
  -V(xc)+E(xc)   XCENC  =       923.01584483
  PAW double counting   =      3130.80557755    -3208.63524124
  entropy T*S    EENTRO =        -0.00000000
  eigenvalues    EBANDS =        13.79020543
  atomic energy  EATOM  =      9416.14232778
  Solvation  Ediel_sol  =         0.00000000
  ---------------------------------------------------
  free energy    TOTEN  =      -584.00301472 eV

  energy without entropy =     -584.00301472  energy(sigma->0) =     -584.00301472


--------------------------------------------------------------------------------------------------------




--------------------------------------- Iteration      1(   7)  ---------------------------------------


    POTLOK:  cpu time    0.0576: real time    0.0580
    SETDIJ:  cpu time    0.0403: real time    0.0403
     EDDAV:  cpu time   25.5297: real time   25.5311
       DOS:  cpu time    0.0044: real time    0.0044
    CHARGE:  cpu time    0.6473: real time    0.6474
    MIXING:  cpu time    0.0045: real time    0.0045
    --------------------------------------------
      LOOP:  cpu time   26.2838: real time   26.2856

 eigenvalue-minimisations  : 15168
 total energy-change (2. order) : 0.4969335E+01  (-0.1150929E+01)
 number of electron     255.9999994 magnetization 
 augmentation part        5.9158317 magnetization 

 Broyden mixing:
  rms(total) = 0.19773E+00    rms(broyden)= 0.19676E+00
  rms(prec ) = 0.24281E+00
  weight for this iteration     100.00

 eigenvalues of (default mixing * dielectric matrix)
  average eigenvalue GAMMA=   2.2759
  2.0380  2.5138

 Free energy of the ion-electron system (eV)
  ---------------------------------------------------
  alpha Z        PSCENC =       903.76514330
  Ewald energy   TEWEN  =    -11061.68602274
  -Hartree energ DENC   =      -855.69516004
  -exchange      EXHF   =         0.00000000
  -V(xc)+E(xc)   XCENC  =       937.55753083
  PAW double counting   =      4095.36799940    -4177.19007168
  entropy T*S    EENTRO =        -0.00000000
  eigenvalues    EBANDS =       162.70457331
  atomic energy  EATOM  =      9416.14232778
  Solvation  Ediel_sol  =         0.00000000
  ---------------------------------------------------
  free energy    TOTEN  =      -579.03367982 eV

  energy without entropy =     -579.03367982  energy(sigma->0) =     -579.03367982


--------------------------------------------------------------------------------------------------------




--------------------------------------- Iteration      1(   8)  ---------------------------------------


    POTLOK:  cpu time    0.0595: real time    0.0598
    SETDIJ:  cpu time    0.0398: real time    0.0398
     EDDAV:  cpu time   26.0278: real time   26.0291
       DOS:  cpu time    0.0038: real time    0.0038
    CHARGE:  cpu time    0.6462: real time    0.6462
    MIXING:  cpu time    0.0051: real time    0.0051
    --------------------------------------------
      LOOP:  cpu time   26.7821: real time   26.7838

 eigenvalue-minimisations  : 15360
 total energy-change (2. order) :-0.6403985E-01  (-0.3235062E-01)
 number of electron     255.9999994 magnetization 
 augmentation part        5.9237592 magnetization 

 Broyden mixing:
  rms(total) = 0.21866E-01    rms(broyden)= 0.21577E-01
  rms(prec ) = 0.26664E-01
  weight for this iteration     100.00

 eigenvalues of (default mixing * dielectric matrix)
  average eigenvalue GAMMA=   2.0760
  1.4568  2.6626  2.1087

 Free energy of the ion-electron system (eV)
  ---------------------------------------------------
  alpha Z        PSCENC =       903.76514330
  Ewald energy   TEWEN  =    -11061.68602274
  -Hartree energ DENC   =      -857.98769506
  -exchange      EXHF   =         0.00000000
  -V(xc)+E(xc)   XCENC  =       937.81241085
  PAW double counting   =      4159.48032270    -4240.23995654
  entropy T*S    EENTRO =        -0.00000000
  eigenvalues    EBANDS =       163.61575003
  atomic energy  EATOM  =      9416.14232778
  Solvation  Ediel_sol  =         0.00000000
  ---------------------------------------------------
  free energy    TOTEN  =      -579.09771967 eV

  energy without entropy =     -579.09771967  energy(sigma->0) =     -579.09771967


--------------------------------------------------------------------------------------------------------




--------------------------------------- Iteration      1(   9)  ---------------------------------------


    POTLOK:  cpu time    0.0580: real time    0.0583
    SETDIJ:  cpu time    0.0399: real time    0.0400
     EDDAV:  cpu time   27.0765: real time   27.0779
       DOS:  cpu time    0.0041: real time    0.0041
    CHARGE:  cpu time    0.6500: real time    0.6500
    MIXING:  cpu time    0.0060: real time    0.0060
    --------------------------------------------
      LOOP:  cpu time   27.8344: real time   27.8362

 eigenvalue-minimisations  : 16000
 total energy-change (2. order) :-0.2319700E-02  (-0.4236480E-03)
 number of electron     255.9999994 magnetization 
 augmentation part        5.9224876 magnetization 

 Broyden mixing:
  rms(total) = 0.93658E-02    rms(broyden)= 0.93432E-02
  rms(prec ) = 0.11653E-01
  weight for this iteration     100.00

 eigenvalues of (default mixing * dielectric matrix)
  average eigenvalue GAMMA=   1.9967
  0.9507  2.6953  2.3639  1.9770

 Free energy of the ion-electron system (eV)
  ---------------------------------------------------
  alpha Z        PSCENC =       903.76514330
  Ewald energy   TEWEN  =    -11061.68602274
  -Hartree energ DENC   =      -858.01246879
  -exchange      EXHF   =         0.00000000
  -V(xc)+E(xc)   XCENC  =       937.81414051
  PAW double counting   =      4157.94535833    -4238.62802188
  entropy T*S    EENTRO =        -0.00000000
  eigenvalues    EBANDS =       163.55950411
  atomic energy  EATOM  =      9416.14232778
  Solvation  Ediel_sol  =         0.00000000
  ---------------------------------------------------
  free energy    TOTEN  =      -579.10003937 eV

  energy without entropy =     -579.10003937  energy(sigma->0) =     -579.10003937


--------------------------------------------------------------------------------------------------------




--------------------------------------- Iteration      1(  10)  ---------------------------------------


    POTLOK:  cpu time    0.0594: real time    0.0609
    SETDIJ:  cpu time    0.0422: real time    0.0422
     EDDAV:  cpu time   25.3240: real time   25.3253
       DOS:  cpu time    0.0038: real time    0.0038
    CHARGE:  cpu time    0.6430: real time    0.6430
    MIXING:  cpu time    0.0050: real time    0.0050
    --------------------------------------------
      LOOP:  cpu time   26.0774: real time   26.0802

 eigenvalue-minimisations  : 14944
 total energy-change (2. order) :-0.4993088E-03  (-0.3648537E-04)
 number of electron     255.9999994 magnetization 
 augmentation part        5.9223005 magnetization 

 Broyden mixing:
  rms(total) = 0.11249E-02    rms(broyden)= 0.11131E-02
  rms(prec ) = 0.15547E-02
  weight for this iteration     100.00

 eigenvalues of (default mixing * dielectric matrix)
  average eigenvalue GAMMA=   1.9414
  2.8946  2.5357  2.0527  0.9910  1.2331

 Free energy of the ion-electron system (eV)
  ---------------------------------------------------
  alpha Z        PSCENC =       903.76514330
  Ewald energy   TEWEN  =    -11061.68602274
  -Hartree energ DENC   =      -858.38123321
  -exchange      EXHF   =         0.00000000
  -V(xc)+E(xc)   XCENC  =       937.84583724
  PAW double counting   =      4154.66983076    -4235.36040864
  entropy T*S    EENTRO =        -0.00000000
  eigenvalues    EBANDS =       163.90398682
  atomic energy  EATOM  =      9416.14232778
  Solvation  Ediel_sol  =         0.00000000
  ---------------------------------------------------
  free energy    TOTEN  =      -579.10053868 eV

  energy without entropy =     -579.10053868  energy(sigma->0) =     -579.10053868


--------------------------------------------------------------------------------------------------------




--------------------------------------- Iteration      1(  11)  ---------------------------------------


    POTLOK:  cpu time    0.0573: real time    0.0577
    SETDIJ:  cpu time    0.0400: real time    0.0400
     EDDAV:  cpu time   27.0096: real time   27.0109
       DOS:  cpu time    0.0037: real time    0.0037
    CHARGE:  cpu time    0.6433: real time    0.6434
    MIXING:  cpu time    0.0085: real time    0.0085
    --------------------------------------------
      LOOP:  cpu time   27.7624: real time   27.7643

 eigenvalue-minimisations  : 16032
 total energy-change (2. order) :-0.1643631E-04  (-0.1587489E-05)
 number of electron     255.9999994 magnetization 
 augmentation part        5.9221497 magnetization 

 Broyden mixing:
  rms(total) = 0.35727E-03    rms(broyden)= 0.35376E-03
  rms(prec ) = 0.42769E-03
  weight for this iteration     100.00

 eigenvalues of (default mixing * dielectric matrix)
  average eigenvalue GAMMA=   1.9940
  2.9031  2.5065  2.5065  2.0418  0.9814  1.0249

 Free energy of the ion-electron system (eV)
  ---------------------------------------------------
  alpha Z        PSCENC =       903.76514330
  Ewald energy   TEWEN  =    -11061.68602274
  -Hartree energ DENC   =      -858.50051674
  -exchange      EXHF   =         0.00000000
  -V(xc)+E(xc)   XCENC  =       937.85659370
  PAW double counting   =      4154.58973405    -4235.28391933
  entropy T*S    EENTRO =        -0.00000000
  eigenvalues    EBANDS =       164.01610486
  atomic energy  EATOM  =      9416.14232778
  Solvation  Ediel_sol  =         0.00000000
  ---------------------------------------------------
  free energy    TOTEN  =      -579.10055512 eV

  energy without entropy =     -579.10055512  energy(sigma->0) =     -579.10055512


--------------------------------------------------------------------------------------------------------




--------------------------------------- Iteration      1(  12)  ---------------------------------------


    POTLOK:  cpu time    0.0617: real time    0.0621
    SETDIJ:  cpu time    0.0403: real time    0.0403
     EDDAV:  cpu time   26.5635: real time   26.5648
       DOS:  cpu time    0.0039: real time    0.0039
    CHARGE:  cpu time    0.6426: real time    0.6426
    MIXING:  cpu time    0.0052: real time    0.0052
    --------------------------------------------
      LOOP:  cpu time   27.3171: real time   27.3189

 eigenvalue-minimisations  : 15680
 total energy-change (2. order) :-0.2735615E-06  (-0.5163575E-07)
 number of electron     255.9999994 magnetization 
 augmentation part        5.9221582 magnetization 

 Broyden mixing:
  rms(total) = 0.39370E-04    rms(broyden)= 0.33627E-04
  rms(prec ) = 0.41598E-04
  weight for this iteration     100.00
  WARNING: grid for Broyden might be to small

 eigenvalues of (default mixing * dielectric matrix)
  average eigenvalue GAMMA=   1.9270
  2.8707  1.0045  1.0045  2.5063  2.3648  2.0242  1.7140

 Free energy of the ion-electron system (eV)
  ---------------------------------------------------
  alpha Z        PSCENC =       903.76514330
  Ewald energy   TEWEN  =    -11061.68602274
  -Hartree energ DENC   =      -858.48856017
  -exchange      EXHF   =         0.00000000
  -V(xc)+E(xc)   XCENC  =       937.85546542
  PAW double counting   =      4154.61729470    -4235.31006509
  entropy T*S    EENTRO =        -0.00000000
  eigenvalues    EBANDS =       164.00386140
  atomic energy  EATOM  =      9416.14232778
  Solvation  Ediel_sol  =         0.00000000
  ---------------------------------------------------
  free energy    TOTEN  =      -579.10055539 eV

  energy without entropy =     -579.10055539  energy(sigma->0) =     -579.10055539


--------------------------------------------------------------------------------------------------------




--------------------------------------- Iteration      1(  13)  ---------------------------------------


    POTLOK:  cpu time    0.0653: real time    0.0657
    SETDIJ:  cpu time    0.0404: real time    0.0405
     EDDAV:  cpu time   22.3207: real time   22.3219
       DOS:  cpu time    0.0037: real time    0.0037
    CHARGE:  cpu time    0.6449: real time    0.6449
    MIXING:  cpu time    0.0050: real time    0.0050
    --------------------------------------------
      LOOP:  cpu time   23.0801: real time   23.0816

 eigenvalue-minimisations  : 11872
 total energy-change (2. order) :-0.1540866E-07  (-0.1027883E-08)
 number of electron     255.9999994 magnetization 
 augmentation part        5.9221550 magnetization 

 Broyden mixing:
  rms(total) = 0.24360E-04    rms(broyden)= 0.15032E-04
  rms(prec ) = 0.18881E-04
  weight for this iteration     100.00
  WARNING: grid for Broyden might be to small

 eigenvalues of (default mixing * dielectric matrix)
  average eigenvalue GAMMA=   1.9275
  2.9508  2.6143  2.3889  2.3889  2.0333  0.9949  0.9949  1.0539

 Free energy of the ion-electron system (eV)
  ---------------------------------------------------
  alpha Z        PSCENC =       903.76514330
  Ewald energy   TEWEN  =    -11061.68602274
  -Hartree energ DENC   =      -858.48810133
  -exchange      EXHF   =         0.00000000
  -V(xc)+E(xc)   XCENC  =       937.85542890
  PAW double counting   =      4154.62324492    -4235.31601763
  entropy T*S    EENTRO =        -0.00000000
  eigenvalues    EBANDS =       164.00344139
  atomic energy  EATOM  =      9416.14232778
  Solvation  Ediel_sol  =         0.00000000
  ---------------------------------------------------
  free energy    TOTEN  =      -579.10055541 eV

  energy without entropy =     -579.10055541  energy(sigma->0) =     -579.10055541


--------------------------------------------------------------------------------------------------------




--------------------------------------- Iteration      1(  14)  ---------------------------------------


    POTLOK:  cpu time    0.0626: real time    0.0630
    SETDIJ:  cpu time    0.0407: real time    0.0407
     EDDAV:  cpu time   20.5923: real time   20.5933
       DOS:  cpu time    0.0037: real time    0.0037
    CHARGE:  cpu time    0.6489: real time    0.6490
    MIXING:  cpu time    0.0060: real time    0.0060
    --------------------------------------------
      LOOP:  cpu time   21.3542: real time   21.3556

 eigenvalue-minimisations  : 10688
 total energy-change (2. order) :-0.5155744E-07  (-0.3578845E-09)
 number of electron     255.9999994 magnetization 
 augmentation part        5.9221555 magnetization 

 Broyden mixing:
  rms(total) = 0.19222E-04    rms(broyden)= 0.21484E-05
  rms(prec ) = 0.27375E-05
  weight for this iteration     100.00
  WARNING: grid for Broyden might be to small

 eigenvalues of (default mixing * dielectric matrix)
  average eigenvalue GAMMA=   1.8643
  2.9393  2.5976  2.4694  2.2990  2.0492  0.9779  1.0116  1.0116  1.4232

 Free energy of the ion-electron system (eV)
  ---------------------------------------------------
  alpha Z        PSCENC =       903.76514330
  Ewald energy   TEWEN  =    -11061.68602274
  -Hartree energ DENC   =      -858.48761256
  -exchange      EXHF   =         0.00000000
  -V(xc)+E(xc)   XCENC  =       937.85538538
  PAW double counting   =      4154.62138203    -4235.31407776
  entropy T*S    EENTRO =        -0.00000000
  eigenvalues    EBANDS =       164.00291911
  atomic energy  EATOM  =      9416.14232778
  Solvation  Ediel_sol  =         0.00000000
  ---------------------------------------------------
  free energy    TOTEN  =      -579.10055546 eV

  energy without entropy =     -579.10055546  energy(sigma->0) =     -579.10055546


--------------------------------------------------------------------------------------------------------




--------------------------------------- Iteration      1(  15)  ---------------------------------------


    POTLOK:  cpu time    0.0606: real time    0.0609
    SETDIJ:  cpu time    0.0405: real time    0.0405
     EDDAV:  cpu time   18.9958: real time   18.9967
       DOS:  cpu time    0.0037: real time    0.0037
    --------------------------------------------
      LOOP:  cpu time   19.1005: real time   19.1019

 eigenvalue-minimisations  :  9536
 total energy-change (2. order) : 0.1251465E-08  (-0.3916927E-10)
 number of electron     255.9999994 magnetization 
 augmentation part        5.9221555 magnetization 

 Free energy of the ion-electron system (eV)
  ---------------------------------------------------
  alpha Z        PSCENC =       903.76514330
  Ewald energy   TEWEN  =    -11061.68602274
  -Hartree energ DENC   =      -858.48781450
  -exchange      EXHF   =         0.00000000
  -V(xc)+E(xc)   XCENC  =       937.85540435
  PAW double counting   =      4154.62284842    -4235.31555415
  entropy T*S    EENTRO =        -0.00000000
  eigenvalues    EBANDS =       164.00311207
  atomic energy  EATOM  =      9416.14232778
  Solvation  Ediel_sol  =         0.00000000
  ---------------------------------------------------
  free energy    TOTEN  =      -579.10055546 eV

  energy without entropy =     -579.10055546  energy(sigma->0) =     -579.10055546


--------------------------------------------------------------------------------------------------------




 average (electrostatic) potential at core
  the test charge radii are     0.6991
  (the norm of the test charge is              1.0000)
       1 -45.6274       2 -45.6274       3 -45.6274       4 -45.6274       5 -45.6274
       6 -45.6274       7 -45.6274       8 -45.6274       9 -45.6274      10 -45.6274
      11 -45.6274      12 -45.6274      13 -45.6274      14 -45.6274      15 -45.6274
      16 -45.6274      17 -45.6274      18 -45.6274      19 -45.6274      20 -45.6274
      21 -45.6274      22 -45.6274      23 -45.6274      24 -45.6274      25 -45.6274
      26 -45.6274      27 -45.6274      28 -45.6274      29 -45.6274      30 -45.6274
      31 -45.6274      32 -45.6274      33 -45.6274      34 -45.6274      35 -45.6274
      36 -45.6274      37 -45.6274      38 -45.6274      39 -45.6274      40 -45.6274
      41 -45.6274      42 -45.6274      43 -45.6274      44 -45.6274      45 -45.6274
      46 -45.6274      47 -45.6274      48 -45.6274      49 -45.6274      50 -45.6274
      51 -45.6274      52 -45.6274      53 -45.6274      54 -45.6274      55 -45.6274
      56 -45.6274      57 -45.6274      58 -45.6274      59 -45.6274      60 -45.6274
      61 -45.6274      62 -45.6274      63 -45.6274      64 -45.6274
 
 
 
 E-fermi :   9.8777     XC(G=0): -13.1371     alpha+bet :-17.3986


 k-point     1 :       0.0000    0.0000    0.0000
  band No.  band energies     occupation 
      1     -11.7564      2.00000
      2      -9.4997      2.00000
      3      -9.4997      2.00000
      4      -9.4997      2.00000
      5      -9.4997      2.00000
      6      -9.4997      2.00000
      7      -9.4997      2.00000
      8      -7.5570      2.00000
      9      -7.5570      2.00000
     10      -7.5570      2.00000
     11      -7.5570      2.00000
     12      -7.5570      2.00000
     13      -7.5570      2.00000
     14      -7.1429      2.00000
     15      -7.1429      2.00000
     16      -7.1429      2.00000
     17      -7.1429      2.00000
     18      -7.1429      2.00000
     19      -7.1429      2.00000
     20      -6.8753      2.00000
     21      -5.8021      2.00000
     22      -5.8021      2.00000
     23      -5.8021      2.00000
     24      -3.7072      2.00000
     25      -3.7072      2.00000
     26      -3.7072      2.00000
     27      -3.6140      2.00000
     28      -3.3574      2.00000
     29      -3.3574      2.00000
     30      -3.3574      2.00000
     31      -2.9522      2.00000
     32      -2.9522      2.00000
     33      -2.9522      2.00000
     34      -2.8825      2.00000
     35      -2.8825      2.00000
     36      -2.8825      2.00000
     37      -2.8825      2.00000
     38      -2.8825      2.00000
     39      -2.8825      2.00000
     40      -1.8775      2.00000
     41      -1.8775      2.00000
     42      -1.8775      2.00000
     43      -1.8775      2.00000
     44      -1.8775      2.00000
     45      -1.8775      2.00000
     46       0.7756      2.00000
     47       0.7756      2.00000
     48       0.7756      2.00000
     49       0.7756      2.00000
     50       0.7756      2.00000
     51       0.7756      2.00000
     52       0.9001      2.00000
     53       0.9001      2.00000
     54       0.9001      2.00000
     55       0.9001      2.00000
     56       0.9001      2.00000
     57       0.9001      2.00000
     58       1.3399      2.00000
     59       1.3399      2.00000
     60       1.3399      2.00000
     61       1.3399      2.00000
     62       1.3399      2.00000
     63       1.3399      2.00000
     64       1.3606      2.00000
     65       1.3606      2.00000
     66       1.3606      2.00000
     67       1.3606      2.00000
     68       1.3606      2.00000
     69       1.3606      2.00000
     70       2.0339      2.00000
     71       2.0339      2.00000
     72       2.0339      2.00000
     73       2.0339      2.00000
     74       2.0339      2.00000
     75       2.0339      2.00000
[...]
      4.774698  1.138222  6.272826     0.074067    0.071161    0.007110  
      1.328299  4.725348  6.272826     0.074067    0.071161    0.007110  
      4.918298  4.725348  6.272826     0.074067    0.071161    0.007110  
      0.071800  1.793563  0.000000    -0.032975   -0.031681    0.002714  
      3.661799  1.793563  0.000000    -0.032975   -0.031681    0.002714  
      0.215399  5.380689  0.000000    -0.032975   -0.031681    0.002714  
      3.805399  5.380689  0.000000    -0.032975   -0.031681    0.002714  
      0.215399  1.931529  3.584472     0.032975    0.031681   -0.002714  
      3.805399  1.931529  3.584472     0.032975    0.031681   -0.002714  
      0.358999  5.518655  3.584472     0.032975    0.031681   -0.002714  
      3.948998  5.518655  3.584472     0.032975    0.031681   -0.002714  
      2.907899  2.793819  2.688354    -0.074067   -0.071161   -0.007110  
      6.497898  2.793819  2.688354    -0.074067   -0.071161   -0.007110  
      3.051498  6.380946  2.688354    -0.074067   -0.071161   -0.007110  
      6.641498  6.380946  2.688354    -0.074067   -0.071161   -0.007110  
      3.051498  2.931785  6.272826     0.074067    0.071161    0.007110  
      6.641498  2.931785  6.272826     0.074067    0.071161    0.007110  
      3.195098  6.518912  6.272826     0.074067    0.071161    0.007110  
      6.785097  6.518912  6.272826     0.074067    0.071161    0.007110  
      1.795000  0.000000  0.000000    -0.032975   -0.031681    0.002714  
      5.384999  0.000000  0.000000    -0.032975   -0.031681    0.002714  
      1.938599  3.587126  0.000000    -0.032975   -0.031681    0.002714  
      5.528599  3.587126  0.000000    -0.032975   -0.031681    0.002714  
      1.938599  0.137966  3.584472     0.032975    0.031681   -0.002714  
      5.528599  0.137966  3.584472     0.032975    0.031681   -0.002714  
      2.082199  3.725092  3.584472     0.032975    0.031681   -0.002714  
      5.672198  3.725092  3.584472     0.032975    0.031681   -0.002714  
      2.764299  0.931273  0.896118    -0.101873   -0.097876   -0.026302  
      6.354299  0.931273  0.896118    -0.101873   -0.097876   -0.026302  
      2.907899  4.518399  0.896118    -0.101873   -0.097876   -0.026302  
      6.497898  4.518399  0.896118    -0.101873   -0.097876   -0.026302  
      2.907899  1.069239  4.480590     0.101873    0.097876    0.026302  
      6.497898  1.069239  4.480590     0.101873    0.097876    0.026302  
      3.051498  4.656365  4.480590     0.101873    0.097876    0.026302  
      6.641498  4.656365  4.480590     0.101873    0.097876    0.026302  
      1.938599  1.862546  1.792236    -0.121559   -0.116790   -0.027111  
      5.528599  1.862546  1.792236    -0.121559   -0.116790   -0.027111  
      2.082199  5.449672  1.792236    -0.121559   -0.116790   -0.027111  
      5.672198  5.449672  1.792236    -0.121559   -0.116790   -0.027111  
      2.082199  2.000512  5.376708     0.121559    0.116790    0.027111  
      5.672198  2.000512  5.376708     0.121559    0.116790    0.027111  
      2.225798  5.587639  5.376708     0.121559    0.116790    0.027111  
      5.815798  5.587639  5.376708     0.121559    0.116790    0.027111  
 
 190 f  =    0.000003 THz     0.000019 2PiTHz    0.000102 cm-1     0.000013 meV
             X         Y         Z           dx          dy          dz
      1.041099  2.724836  0.896118    -0.100370    0.062197    0.041017  
      4.631099  2.724836  0.896118    -0.100370    0.062197    0.041017  
      1.184699  6.311963  0.896118    -0.100370    0.062197    0.041017  
      4.774698  6.311963  0.896118    -0.100370    0.062197    0.041017  
      1.184699  2.862802  4.480590    -0.100370    0.062197    0.041017  
      4.774698  2.862802  4.480590    -0.100370    0.062197    0.041017  
      1.328299  6.449929  4.480590    -0.100370    0.062197    0.041017  
      4.918298  6.449929  4.480590    -0.100370    0.062197    0.041017  
      0.071800  0.068983  1.792236    -0.100370    0.062197    0.041017  
      3.661799  0.068983  1.792236    -0.100370    0.062197    0.041017  
      0.215399  3.656109  1.792236    -0.100370    0.062197    0.041017  
      3.805399  3.656109  1.792236    -0.100370    0.062197    0.041017  
      0.215399  0.206949  5.376708    -0.100370    0.062197    0.041017  
      3.805399  0.206949  5.376708    -0.100370    0.062197    0.041017  
      0.358999  3.794075  5.376708    -0.100370    0.062197    0.041017  
      3.948998  3.794075  5.376708    -0.100370    0.062197    0.041017  
      1.041099  1.000256  2.688354    -0.100370    0.062197    0.041017  
      4.631099  1.000256  2.688354    -0.100370    0.062197    0.041017  
      1.184699  4.587382  2.688354    -0.100370    0.062197    0.041017  
      4.774698  4.587382  2.688354    -0.100370    0.062197    0.041017  
      1.184699  1.138222  6.272826    -0.100370    0.062197    0.041017  
      4.774698  1.138222  6.272826    -0.100370    0.062197    0.041017  
      1.328299  4.725348  6.272826    -0.100370    0.062197    0.041017  
      4.918298  4.725348  6.272826    -0.100370    0.062197    0.041017  
      0.071800  1.793563  0.000000    -0.100370    0.062197    0.041017  
      3.661799  1.793563  0.000000    -0.100370    0.062197    0.041017  
      0.215399  5.380689  0.000000    -0.100370    0.062197    0.041017  
      3.805399  5.380689  0.000000    -0.100370    0.062197    0.041017  
      0.215399  1.931529  3.584472    -0.100370    0.062197    0.041017  
      3.805399  1.931529  3.584472    -0.100370    0.062197    0.041017  
      0.358999  5.518655  3.584472    -0.100370    0.062197    0.041017  
      3.948998  5.518655  3.584472    -0.100370    0.062197    0.041017  
      2.907899  2.793819  2.688354    -0.100370    0.062197    0.041017  
      6.497898  2.793819  2.688354    -0.100370    0.062197    0.041017  
      3.051498  6.380946  2.688354    -0.100370    0.062197    0.041017  
      6.641498  6.380946  2.688354    -0.100370    0.062197    0.041017  
      3.051498  2.931785  6.272826    -0.100370    0.062197    0.041017  
      6.641498  2.931785  6.272826    -0.100370    0.062197    0.041017  
      3.195098  6.518912  6.272826    -0.100370    0.062197    0.041017  
      6.785097  6.518912  6.272826    -0.100370    0.062197    0.041017  
      1.795000  0.000000  0.000000    -0.100370    0.062197    0.041017  
      5.384999  0.000000  0.000000    -0.100370    0.062197    0.041017  
      1.938599  3.587126  0.000000    -0.100370    0.062197    0.041017  
      5.528599  3.587126  0.000000    -0.100370    0.062197    0.041017  
      1.938599  0.137966  3.584472    -0.100370    0.062197    0.041017  
      5.528599  0.137966  3.584472    -0.100370    0.062197    0.041017  
      2.082199  3.725092  3.584472    -0.100370    0.062197    0.041017  
      5.672198  3.725092  3.584472    -0.100370    0.062197    0.041017  
      2.764299  0.931273  0.896118    -0.100370    0.062197    0.041017  
      6.354299  0.931273  0.896118    -0.100370    0.062197    0.041017  
      2.907899  4.518399  0.896118    -0.100370    0.062197    0.041017  
      6.497898  4.518399  0.896118    -0.100370    0.062197    0.041017  
      2.907899  1.069239  4.480590    -0.100370    0.062197    0.041017  
      6.497898  1.069239  4.480590    -0.100370    0.062197    0.041017  
      3.051498  4.656365  4.480590    -0.100370    0.062197    0.041017  
      6.641498  4.656365  4.480590    -0.100370    0.062197    0.041017  
      1.938599  1.862546  1.792236    -0.100370    0.062197    0.041017  
      5.528599  1.862546  1.792236    -0.100370    0.062197    0.041017  
      2.082199  5.449672  1.792236    -0.100370    0.062197    0.041017  
      5.672198  5.449672  1.792236    -0.100370    0.062197    0.041017  
      2.082199  2.000512  5.376708    -0.100370    0.062197    0.041017  
      5.672198  2.000512  5.376708    -0.100370    0.062197    0.041017  
      2.225798  5.587639  5.376708    -0.100370    0.062197    0.041017  
      5.815798  5.587639  5.376708    -0.100370    0.062197    0.041017  
 
 191 f  =    0.000003 THz     0.000019 2PiTHz    0.000099 cm-1     0.000012 meV
             X         Y         Z           dx          dy          dz
      1.041099  2.724836  0.896118    -0.011083   -0.080515    0.094971  
      4.631099  2.724836  0.896118    -0.011083   -0.080515    0.094971  
      1.184699  6.311963  0.896118    -0.011083   -0.080515    0.094971  
      4.774698  6.311963  0.896118    -0.011083   -0.080515    0.094971  
      1.184699  2.862802  4.480590    -0.011083   -0.080515    0.094971  
      4.774698  2.862802  4.480590    -0.011083   -0.080515    0.094971  
      1.328299  6.449929  4.480590    -0.011083   -0.080515    0.094971  
      4.918298  6.449929  4.480590    -0.011083   -0.080515    0.094971  
      0.071800  0.068983  1.792236    -0.011083   -0.080515    0.094971  
      3.661799  0.068983  1.792236    -0.011083   -0.080515    0.094971  
      0.215399  3.656109  1.792236    -0.011083   -0.080515    0.094971  
      3.805399  3.656109  1.792236    -0.011083   -0.080515    0.094971  
      0.215399  0.206949  5.376708    -0.011083   -0.080515    0.094971  
      3.805399  0.206949  5.376708    -0.011083   -0.080515    0.094971  
      0.358999  3.794075  5.376708    -0.011083   -0.080515    0.094971  
      3.948998  3.794075  5.376708    -0.011083   -0.080515    0.094971  
      1.041099  1.000256  2.688354    -0.011083   -0.080515    0.094971  
      4.631099  1.000256  2.688354    -0.011083   -0.080515    0.094971  
      1.184699  4.587382  2.688354    -0.011083   -0.080515    0.094971  
      4.774698  4.587382  2.688354    -0.011083   -0.080515    0.094971  
      1.184699  1.138222  6.272826    -0.011083   -0.080515    0.094971  
      4.774698  1.138222  6.272826    -0.011083   -0.080515    0.094971  
      1.328299  4.725348  6.272826    -0.011083   -0.080515    0.094971  
      4.918298  4.725348  6.272826    -0.011083   -0.080515    0.094971  
      0.071800  1.793563  0.000000    -0.011083   -0.080515    0.094971  
      3.661799  1.793563  0.000000    -0.011083   -0.080515    0.094971  
      0.215399  5.380689  0.000000    -0.011083   -0.080515    0.094971  
      3.805399  5.380689  0.000000    -0.011083   -0.080515    0.094971  
      0.215399  1.931529  3.584472    -0.011083   -0.080515    0.094971  
      3.805399  1.931529  3.584472    -0.011083   -0.080515    0.094971  
      0.358999  5.518655  3.584472    -0.011083   -0.080515    0.094971  
      3.948998  5.518655  3.584472    -0.011083   -0.080515    0.094971  
      2.907899  2.793819  2.688354    -0.011083   -0.080515    0.094971  
      6.497898  2.793819  2.688354    -0.011083   -0.080515    0.094971  
      3.051498  6.380946  2.688354    -0.011083   -0.080515    0.094971  
      6.641498  6.380946  2.688354    -0.011083   -0.080515    0.094971  
      3.051498  2.931785  6.272826    -0.011083   -0.080515    0.094971  
      6.641498  2.931785  6.272826    -0.011083   -0.080515    0.094971  
      3.195098  6.518912  6.272826    -0.011083   -0.080515    0.094971  
      6.785097  6.518912  6.272826    -0.011083   -0.080515    0.094971  
      1.795000  0.000000  0.000000    -0.011083   -0.080515    0.094971  
      5.384999  0.000000  0.000000    -0.011083   -0.080515    0.094971  
      1.938599  3.587126  0.000000    -0.011083   -0.080515    0.094971  
      5.528599  3.587126  0.000000    -0.011083   -0.080515    0.094971  
      1.938599  0.137966  3.584472    -0.011083   -0.080515    0.094971  
      5.528599  0.137966  3.584472    -0.011083   -0.080515    0.094971  
      2.082199  3.725092  3.584472    -0.011083   -0.080515    0.094971  
      5.672198  3.725092  3.584472    -0.011083   -0.080515    0.094971  
      2.764299  0.931273  0.896118    -0.011083   -0.080515    0.094971  
      6.354299  0.931273  0.896118    -0.011083   -0.080515    0.094971  
      2.907899  4.518399  0.896118    -0.011083   -0.080515    0.094971  
      6.497898  4.518399  0.896118    -0.011083   -0.080515    0.094971  
      2.907899  1.069239  4.480590    -0.011083   -0.080515    0.094971  
      6.497898  1.069239  4.480590    -0.011083   -0.080515    0.094971  
      3.051498  4.656365  4.480590    -0.011083   -0.080515    0.094971  
      6.641498  4.656365  4.480590    -0.011083   -0.080515    0.094971  
      1.938599  1.862546  1.792236    -0.011083   -0.080515    0.094971  
      5.528599  1.862546  1.792236    -0.011083   -0.080515    0.094971  
      2.082199  5.449672  1.792236    -0.011083   -0.080515    0.094971  
      5.672198  5.449672  1.792236    -0.011083   -0.080515    0.094971  
      2.082199  2.000512  5.376708    -0.011083   -0.080515    0.094971  
      5.672198  2.000512  5.376708    -0.011083   -0.080515    0.094971  
      2.225798  5.587639  5.376708    -0.011083   -0.080515    0.094971  
      5.815798  5.587639  5.376708    -0.011083   -0.080515    0.094971  
 
 192 f  =    0.000001 THz     0.000005 2PiTHz    0.000025 cm-1     0.000003 meV
             X         Y         Z           dx          dy          dz
      1.041099  2.724836  0.896118    -0.073676   -0.072621   -0.070165  
      4.631099  2.724836  0.896118    -0.073676   -0.072621   -0.070165  
      1.184699  6.311963  0.896118    -0.073676   -0.072621   -0.070165  
      4.774698  6.311963  0.896118    -0.073676   -0.072621   -0.070165  
      1.184699  2.862802  4.480590    -0.073676   -0.072621   -0.070165  
      4.774698  2.862802  4.480590    -0.073676   -0.072621   -0.070165  
      1.328299  6.449929  4.480590    -0.073676   -0.072621   -0.070165  
      4.918298  6.449929  4.480590    -0.073676   -0.072621   -0.070165  
      0.071800  0.068983  1.792236    -0.073676   -0.072621   -0.070165  
      3.661799  0.068983  1.792236    -0.073676   -0.072621   -0.070165  
      0.215399  3.656109  1.792236    -0.073676   -0.072621   -0.070165  
      3.805399  3.656109  1.792236    -0.073676   -0.072621   -0.070165  
      0.215399  0.206949  5.376708    -0.073676   -0.072621   -0.070165  
      3.805399  0.206949  5.376708    -0.073676   -0.072621   -0.070165  
      0.358999  3.794075  5.376708    -0.073676   -0.072621   -0.070165  
      3.948998  3.794075  5.376708    -0.073676   -0.072621   -0.070165  
      1.041099  1.000256  2.688354    -0.073676   -0.072621   -0.070165  
      4.631099  1.000256  2.688354    -0.073676   -0.072621   -0.070165  
      1.184699  4.587382  2.688354    -0.073676   -0.072621   -0.070165  
      4.774698  4.587382  2.688354    -0.073676   -0.072621   -0.070165  
      1.184699  1.138222  6.272826    -0.073676   -0.072621   -0.070165  
      4.774698  1.138222  6.272826    -0.073676   -0.072621   -0.070165  
      1.328299  4.725348  6.272826    -0.073676   -0.072621   -0.070165  
      4.918298  4.725348  6.272826    -0.073676   -0.072621   -0.070165  
      0.071800  1.793563  0.000000    -0.073676   -0.072621   -0.070165  
      3.661799  1.793563  0.000000    -0.073676   -0.072621   -0.070165  
      0.215399  5.380689  0.000000    -0.073676   -0.072621   -0.070165  
      3.805399  5.380689  0.000000    -0.073676   -0.072621   -0.070165  
      0.215399  1.931529  3.584472    -0.073676   -0.072621   -0.070165  
      3.805399  1.931529  3.584472    -0.073676   -0.072621   -0.070165  
      0.358999  5.518655  3.584472    -0.073676   -0.072621   -0.070165  
      3.948998  5.518655  3.584472    -0.073676   -0.072621   -0.070165  
      2.907899  2.793819  2.688354    -0.073676   -0.072621   -0.070165  
      6.497898  2.793819  2.688354    -0.073676   -0.072621   -0.070165  
      3.051498  6.380946  2.688354    -0.073676   -0.072621   -0.070165  
      6.641498  6.380946  2.688354    -0.073676   -0.072621   -0.070165  
      3.051498  2.931785  6.272826    -0.073676   -0.072621   -0.070165  
      6.641498  2.931785  6.272826    -0.073676   -0.072621   -0.070165  
      3.195098  6.518912  6.272826    -0.073676   -0.072621   -0.070165  
      6.785097  6.518912  6.272826    -0.073676   -0.072621   -0.070165  
      1.795000  0.000000  0.000000    -0.073676   -0.072621   -0.070165  
      5.384999  0.000000  0.000000    -0.073676   -0.072621   -0.070165  
      1.938599  3.587126  0.000000    -0.073676   -0.072621   -0.070165  
      5.528599  3.587126  0.000000    -0.073676   -0.072621   -0.070165  
      1.938599  0.137966  3.584472    -0.073676   -0.072621   -0.070165  
      5.528599  0.137966  3.584472    -0.073676   -0.072621   -0.070165  
      2.082199  3.725092  3.584472    -0.073676   -0.072621   -0.070165  
      5.672198  3.725092  3.584472    -0.073676   -0.072621   -0.070165  
      2.764299  0.931273  0.896118    -0.073676   -0.072621   -0.070165  
      6.354299  0.931273  0.896118    -0.073676   -0.072621   -0.070165  
      2.907899  4.518399  0.896118    -0.073676   -0.072621   -0.070165  
      6.497898  4.518399  0.896118    -0.073676   -0.072621   -0.070165  
      2.907899  1.069239  4.480590    -0.073676   -0.072621   -0.070165  
      6.497898  1.069239  4.480590    -0.073676   -0.072621   -0.070165  
      3.051498  4.656365  4.480590    -0.073676   -0.072621   -0.070165  
      6.641498  4.656365  4.480590    -0.073676   -0.072621   -0.070165  
      1.938599  1.862546  1.792236    -0.073676   -0.072621   -0.070165  
      5.528599  1.862546  1.792236    -0.073676   -0.072621   -0.070165  
      2.082199  5.449672  1.792236    -0.073676   -0.072621   -0.070165  
      5.672198  5.449672  1.792236    -0.073676   -0.072621   -0.070165  
      2.082199  2.000512  5.376708    -0.073676   -0.072621   -0.070165  
      5.672198  2.000512  5.376708    -0.073676   -0.072621   -0.070165  
      2.225798  5.587639  5.376708    -0.073676   -0.072621   -0.070165  
      5.815798  5.587639  5.376708    -0.073676   -0.072621   -0.070165  
 


--------------------------------------------------------------------------------------------------------



 ELASTIC MODULI CONTR FROM IONIC RELAXATION (kBar)
 Direction    XX          YY          ZZ          XY          YZ          ZX
 --------------------------------------------------------------------------------
 XX         -63.8242    -55.7856    -54.8556    -38.1740    -12.0809    -36.7236
 YY         -55.7856    -58.2598    -53.3756    -31.3250    -38.1214    -15.5225
 ZZ         -54.8556    -53.3756    -52.9282    -18.4851    -31.1390    -32.4166
 XY         -38.1740    -31.3250    -18.4851    -87.9135     23.2851     25.2011
 YZ         -12.0809    -38.1214    -31.1390     23.2851    -91.6024     21.8416
 ZX         -36.7236    -15.5225    -32.4166     25.2011     21.8416    -89.8577
 --------------------------------------------------------------------------------



--------------------------------------------------------------------------------------------------------


     LOOP+:  cpu time 1252.8011: real time 1253.1614
    4ORBIT:  cpu time    0.0000: real time    0.0000

 total amount of memory used by VASP MPI-rank0    83596. kBytes
=======================================================================

   base      :      30000. kBytes
   nonl-proj :      20742. kBytes
   fftplans  :       4537. kBytes
   grid      :       5806. kBytes
   one-center:        196. kBytes
   wavefun   :      22315. kBytes
 
  
  
 General timing and accounting informations for this job:
 ========================================================
  
                  Total CPU time used (sec):     1265.171
                            User time (sec):     1258.087
                          System time (sec):        7.084
                         Elapsed time (sec):     1265.721
  
                   Maximum memory used (kb):      432244.
                   Average memory used (kb):           0.
  
                          Minor page faults:        39318
                          Major page faults:           36
                 Voluntary context switches:          848
