# Thermal properties / unit cell (natom)

unit:
  temperature:   K
  free_energy:   kJ/mol
  entropy:       J/K/mol
  heat_capacity: J/K/mol

natom: 8    
cutoff_frequency:    0.000
num_modes: 2654208
num_integrated_modes: 2654208

zero_point_energy:     136.5105992
high_T_entropy:        436.5938202

thermal_properties:
- temperature:         0.0000000
  free_energy:       136.5105992
  entropy:             0.0000000
  heat_capacity:       0.0000000
  energy:            136.5105992

- temperature:         2.0000000
  free_energy:       136.5105992
  entropy:             0.0000000
  heat_capacity:       0.0000000
  energy:            136.5105992

- temperature:         4.0000000
  free_energy:       136.5105992
  entropy:             0.0000093
  heat_capacity:       0.0000577
  energy:            136.5105992

- temperature:         6.0000000
  free_energy:       136.5105991
  entropy:             0.0000745
  heat_capacity:       0.0003183
  energy:            136.5105995

- temperature:         8.0000000
  free_energy:       136.5105988
  entropy:             0.0002279
  heat_capacity:       0.0008149
  energy:            136.5106006

- temperature:        10.0000000
  free_energy:       136.5105981
  entropy:             0.0004891
  heat_capacity:       0.0016128
  energy:            136.5106030

- temperature:        12.0000000
  free_energy:       136.5105968
  entropy:             0.0008812
  heat_capacity:       0.0027957
  energy:            136.5106073

- temperature:        14.0000000
  free_energy:       136.5105945
  entropy:             0.0014295
  heat_capacity:       0.0044459
  energy:            136.5106145

- temperature:        16.0000000
  free_energy:       136.5105909
  entropy:             0.0021602
  heat_capacity:       0.0066452
  energy:            136.5106255

- temperature:        18.0000000
  free_energy:       136.5105857
  entropy:             0.0030997
  heat_capacity:       0.0094749
  energy:            136.5106415

- temperature:        20.0000000
  free_energy:       136.5105784
  entropy:             0.0042747
  heat_capacity:       0.0130177
  energy:            136.5106639

- temperature:        22.0000000
  free_energy:       136.5105684
  entropy:             0.0057123
  heat_capacity:       0.0173571
  energy:            136.5106941

- temperature:        24.0000000
  free_energy:       136.5105553
  entropy:             0.0074397
  heat_capacity:       0.0225783
  energy:            136.5107339

- temperature:        26.0000000
  free_energy:       136.5105384
  entropy:             0.0094846
  heat_capacity:       0.0287681
  energy:            136.5107850

- temperature:        28.0000000
  free_energy:       136.5105171
  entropy:             0.0118750
  heat_capacity:       0.0360155
  energy:            136.5108496

- temperature:        30.0000000
  free_energy:       136.5104907
  entropy:             0.0146392
  heat_capacity:       0.0444115
  energy:            136.5109299

- temperature:        32.0000000
  free_energy:       136.5104583
  entropy:             0.0178062
  heat_capacity:       0.0540501
  energy:            136.5110281

- temperature:        34.0000000
  free_energy:       136.5104192
  entropy:             0.0214054
  heat_capacity:       0.0650279
  energy:            136.5111470

- temperature:        36.0000000
  free_energy:       136.5103724
  entropy:             0.0254667
  heat_capacity:       0.0774454
  energy:            136.5112892

- temperature:        38.0000000
  free_energy:       136.5103170
  entropy:             0.0300208
  heat_capacity:       0.0914070
  energy:            136.5114578

- temperature:        40.0000000
  free_energy:       136.5102520
  entropy:             0.0350991
  heat_capacity:       0.1070216
  energy:            136.5116559

- temperature:        42.0000000
  free_energy:       136.5101762
  entropy:             0.0407338
  heat_capacity:       0.1244039
  energy:            136.5118870

- temperature:        44.0000000
  free_energy:       136.5100886
  entropy:             0.0469583
  heat_capacity:       0.1436746
  energy:            136.5121548

- temperature:        46.0000000
  free_energy:       136.5099880
  entropy:             0.0538068
  heat_capacity:       0.1649618
  energy:            136.5124631

- temperature:        48.0000000
  free_energy:       136.5098730
  entropy:             0.0613149
  heat_capacity:       0.1884013
  energy:            136.5128161

- temperature:        50.0000000
  free_energy:       136.5097423
  entropy:             0.0695195
  heat_capacity:       0.2141382
  energy:            136.5132182

- temperature:        52.0000000
  free_energy:       136.5095944
  entropy:             0.0784590
  heat_capacity:       0.2423271
  energy:            136.5136743

- temperature:        54.0000000
  free_energy:       136.5094279
  entropy:             0.0881737
  heat_capacity:       0.2731328
  energy:            136.5141893

- temperature:        56.0000000
  free_energy:       136.5092412
  entropy:             0.0987054
  heat_capacity:       0.3067309
  energy:            136.5147687

- temperature:        58.0000000
  free_energy:       136.5090325
  entropy:             0.1100980
  heat_capacity:       0.3433081
  energy:            136.5154182

- temperature:        60.0000000
  free_energy:       136.5088002
  entropy:             0.1223975
  heat_capacity:       0.3830617
  energy:            136.5161440

- temperature:        62.0000000
  free_energy:       136.5085423
  entropy:             0.1356518
  heat_capacity:       0.4261997
  energy:            136.5169527

- temperature:        64.0000000
  free_energy:       136.5082569
  entropy:             0.1499113
  heat_capacity:       0.4729401
  energy:            136.5178512

- temperature:        66.0000000
  free_energy:       136.5079419
  entropy:             0.1652284
  heat_capacity:       0.5235100
  energy:            136.5188470

- temperature:        68.0000000
  free_energy:       136.5075952
  entropy:             0.1816578
  heat_capacity:       0.5781449
  energy:            136.5199480

- temperature:        70.0000000
  free_energy:       136.5072145
  entropy:             0.1992562
  heat_capacity:       0.6370868
  energy:            136.5211625

- temperature:        72.0000000
  free_energy:       136.5067974
  entropy:             0.2180827
  heat_capacity:       0.7005835
  energy:            136.5224993

- temperature:        74.0000000
  free_energy:       136.5063413
  entropy:             0.2381982
  heat_capacity:       0.7688869
  energy:            136.5239680

- temperature:        76.0000000
  free_energy:       136.5058437
  entropy:             0.2596654
  heat_capacity:       0.8422512
  energy:            136.5255783

- temperature:        78.0000000
  free_energy:       136.5053017
  entropy:             0.2825490
  heat_capacity:       0.9209316
  energy:            136.5273405

- temperature:        80.0000000
  free_energy:       136.5047125
  entropy:             0.3069150
  heat_capacity:       1.0051827
  energy:            136.5292657

- temperature:        82.0000000
  free_energy:       136.5040730
  entropy:             0.3328308
  heat_capacity:       1.0952566
  energy:            136.5313652

- temperature:        84.0000000
  free_energy:       136.5033801
  entropy:             0.3603651
  heat_capacity:       1.1914018
  energy:            136.5336508

- temperature:        86.0000000
  free_energy:       136.5026304
  entropy:             0.3895875
  heat_capacity:       1.2938617
  energy:            136.5361350

- temperature:        88.0000000
  free_energy:       136.5018206
  entropy:             0.4205683
  heat_capacity:       1.4028731
  energy:            136.5388306

- temperature:        90.0000000
  free_energy:       136.5009469
  entropy:             0.4533782
  heat_capacity:       1.5186653
  energy:            136.5417510

- temperature:        92.0000000
  free_energy:       136.5000058
  entropy:             0.4880882
  heat_capacity:       1.6414589
  energy:            136.5449099

- temperature:        94.0000000
  free_energy:       136.4989933
  entropy:             0.5247696
  heat_capacity:       1.7714649
  energy:            136.5483216

- temperature:        96.0000000
  free_energy:       136.4979054
  entropy:             0.5634933
  heat_capacity:       1.9088838
  energy:            136.5520007

- temperature:        98.0000000
  free_energy:       136.4967379
  entropy:             0.6043299
  heat_capacity:       2.0539054
  energy:            136.5559622

- temperature:       100.0000000
  free_energy:       136.4954866
  entropy:             0.6473494
  heat_capacity:       2.2067077
  energy:            136.5602215

- temperature:       102.0000000
  free_energy:       136.4941470
  entropy:             0.6926212
  heat_capacity:       2.3674571
  energy:            136.5647944

- temperature:       104.0000000
  free_energy:       136.4927146
  entropy:             0.7402135
  heat_capacity:       2.5363077
  energy:            136.5696968

- temperature:       106.0000000
  free_energy:       136.4911846
  entropy:             0.7901937
  heat_capacity:       2.7134013
  energy:            136.5749451

- temperature:       108.0000000
  free_energy:       136.4895521
  entropy:             0.8426278
  heat_capacity:       2.8988675
  energy:            136.5805559

- temperature:       110.0000000
  free_energy:       136.4878124
  entropy:             0.8975805
  heat_capacity:       3.0928234
  energy:            136.5865462

- temperature:       112.0000000
  free_energy:       136.4859601
  entropy:             0.9551149
  heat_capacity:       3.2953742
  energy:            136.5929330

- temperature:       114.0000000
  free_energy:       136.4839901
  entropy:             1.0152927
  heat_capacity:       3.5066128
  energy:            136.5997335

- temperature:       116.0000000
  free_energy:       136.4818971
  entropy:             1.0781736
  heat_capacity:       3.7266206
  energy:            136.6069653

- temperature:       118.0000000
  free_energy:       136.4796756
  entropy:             1.1438159
  heat_capacity:       3.9554673
  energy:            136.6146459

- temperature:       120.0000000
  free_energy:       136.4773200
  entropy:             1.2122757
  heat_capacity:       4.1932116
  energy:            136.6227931

- temperature:       122.0000000
  free_energy:       136.4748246
  entropy:             1.2836074
  heat_capacity:       4.4399014
  energy:            136.6314247

- temperature:       124.0000000
  free_energy:       136.4721836
  entropy:             1.3578634
  heat_capacity:       4.6955742
  energy:            136.6405587

- temperature:       126.0000000
  free_energy:       136.4693912
  entropy:             1.4350940
  heat_capacity:       4.9602573
  energy:            136.6502130

- temperature:       128.0000000
  free_energy:       136.4664412
  entropy:             1.5153476
  heat_capacity:       5.2339686
  energy:            136.6604057

- temperature:       130.0000000
  free_energy:       136.4633277
  entropy:             1.5986706
  heat_capacity:       5.5167167
  energy:            136.6711549

- temperature:       132.0000000
  free_energy:       136.4600445
  entropy:             1.6851072
  heat_capacity:       5.8085015
  energy:            136.6824786

- temperature:       134.0000000
  free_energy:       136.4565852
  entropy:             1.7746995
  heat_capacity:       6.1093142
  energy:            136.6943949

- temperature:       136.0000000
  free_energy:       136.4529435
  entropy:             1.8674878
  heat_capacity:       6.4191384
  energy:            136.7069219

- temperature:       138.0000000
  free_energy:       136.4491131
  entropy:             1.9635101
  heat_capacity:       6.7379497
  energy:            136.7200775

- temperature:       140.0000000
  free_energy:       136.4450873
  entropy:             2.0628024
  heat_capacity:       7.0657168
  energy:            136.7338796

- temperature:       142.0000000
  free_energy:       136.4408597
  entropy:             2.1653987
  heat_capacity:       7.4024011
  energy:            136.7483463

- temperature:       144.0000000
  free_energy:       136.4364235
  entropy:             2.2713310
  heat_capacity:       7.7479579
  energy:            136.7634952

- temperature:       146.0000000
  free_energy:       136.4317721
  entropy:             2.3806294
  heat_capacity:       8.1023359
  energy:            136.7793440

- temperature:       148.0000000
  free_energy:       136.4268987
  entropy:             2.4933219
  heat_capacity:       8.4654783
  energy:            136.7959103

- temperature:       150.0000000
  free_energy:       136.4217965
  entropy:             2.6094345
  heat_capacity:       8.8373222
  energy:            136.8132117

- temperature:       152.0000000
  free_energy:       136.4164587
  entropy:             2.7289915
  heat_capacity:       9.2177999
  energy:            136.8312654

- temperature:       154.0000000
  free_energy:       136.4108782
  entropy:             2.8520153
  heat_capacity:       9.6068384
  energy:            136.8500886

- temperature:       156.0000000
  free_energy:       136.4050483
  entropy:             2.9785263
  heat_capacity:      10.0043599
  energy:            136.8696984

- temperature:       158.0000000
  free_energy:       136.3989618
  entropy:             3.1085433
  heat_capacity:      10.4102821
  energy:            136.8901116

- temperature:       160.0000000
  free_energy:       136.3926118
  entropy:             3.2420831
  heat_capacity:      10.8245185
  energy:            136.9113451

- temperature:       162.0000000
  free_energy:       136.3859911
  entropy:             3.3791611
  heat_capacity:      11.2469785
  energy:            136.9334152

- temperature:       164.0000000
  free_energy:       136.3790928
  entropy:             3.5197905
  heat_capacity:      11.6775674
  energy:            136.9563384

- temperature:       166.0000000
  free_energy:       136.3719096
  entropy:             3.6639834
  heat_capacity:      12.1161871
  energy:            136.9801308

- temperature:       168.0000000
  free_energy:       136.3644344
  entropy:             3.8117500
  heat_capacity:      12.5627359
  energy:            137.0048084

- temperature:       170.0000000
  free_energy:       136.3566602
  entropy:             3.9630988
  heat_capacity:      13.0171087
  energy:            137.0303870

- temperature:       172.0000000
  free_energy:       136.3485797
  entropy:             4.1180370
  heat_capacity:      13.4791976
  energy:            137.0568820

- temperature:       174.0000000
  free_energy:       136.3401856
  entropy:             4.2765701
  heat_capacity:      13.9488915
  energy:            137.0843088

- temperature:       176.0000000
  free_energy:       136.3314710
  entropy:             4.4387023
  heat_capacity:      14.4260763
  energy:            137.1126826

- temperature:       178.0000000
  free_energy:       136.3224284
  entropy:             4.6044362
  heat_capacity:      14.9106358
  energy:            137.1420181

- temperature:       180.0000000
  free_energy:       136.3130508
  entropy:             4.7737730
  heat_capacity:      15.4024508
  energy:            137.1723300

- temperature:       182.0000000
  free_energy:       136.3033309
  entropy:             4.9467126
  heat_capacity:      15.9014000
  energy:            137.2036326

- temperature:       184.0000000
  free_energy:       136.2932616
  entropy:             5.1232536
  heat_capacity:      16.4073599
  energy:            137.2359402

- temperature:       186.0000000
  free_energy:       136.2828355
  entropy:             5.3033932
  heat_capacity:      16.9202048
  energy:            137.2692667

- temperature:       188.0000000
  free_energy:       136.2720456
  entropy:             5.4871274
  heat_capacity:      17.4398073
  energy:            137.3036256

- temperature:       190.0000000
  free_energy:       136.2608846
  entropy:             5.6744510
  heat_capacity:      17.9660380
  energy:            137.3390303

- temperature:       192.0000000
  free_energy:       136.2493454
  entropy:             5.8653574
  heat_capacity:      18.4987658
  energy:            137.3754940

- temperature:       194.0000000
  free_energy:       136.2374208
  entropy:             6.0598392
  heat_capacity:      19.0378584
  energy:            137.4130296

- temperature:       196.0000000
  free_energy:       136.2251037
  entropy:             6.2578875
  heat_capacity:      19.5831817
  energy:            137.4516496

- temperature:       198.0000000
  free_energy:       136.2123869
  entropy:             6.4594925
  heat_capacity:      20.1346004
  energy:            137.4913664

- temperature:       200.0000000
  free_energy:       136.1992633
  entropy:             6.6646433
  heat_capacity:      20.6919783
  energy:            137.5321920

- temperature:       202.0000000
  free_energy:       136.1857260
  entropy:             6.8733279
  heat_capacity:      21.2551778
  energy:            137.5741382

- temperature:       204.0000000
  free_energy:       136.1717677
  entropy:             7.0855334
  heat_capacity:      21.8240606
  energy:            137.6172165

- temperature:       206.0000000
  free_energy:       136.1573815
  entropy:             7.3012459
  heat_capacity:      22.3984874
  energy:            137.6614381

- temperature:       208.0000000
  free_energy:       136.1425604
  entropy:             7.5204504
  heat_capacity:      22.9783185
  energy:            137.7068141

- temperature:       210.0000000
  free_energy:       136.1272974
  entropy:             7.7431312
  heat_capacity:      23.5634132
  energy:            137.7533549

- temperature:       212.0000000
  free_energy:       136.1115855
  entropy:             7.9692716
  heat_capacity:      24.1536307
  energy:            137.8010711

- temperature:       214.0000000
  free_energy:       136.0954180
  entropy:             8.1988541
  heat_capacity:      24.7488296
  energy:            137.8499728

- temperature:       216.0000000
  free_energy:       136.0787878
  entropy:             8.4318603
  heat_capacity:      25.3488682
  energy:            137.9000697

- temperature:       218.0000000
  free_energy:       136.0616883
  entropy:             8.6682711
  heat_capacity:      25.9536050
  energy:            137.9513714

- temperature:       220.0000000
  free_energy:       136.0441125
  entropy:             8.9080665
  heat_capacity:      26.5628979
  energy:            138.0038871

- temperature:       222.0000000
  free_energy:       136.0260538
  entropy:             9.1512258
  heat_capacity:      27.1766054
  energy:            138.0576259

- temperature:       224.0000000
  free_energy:       136.0075054
  entropy:             9.3977278
  heat_capacity:      27.7945857
  energy:            138.1125964

- temperature:       226.0000000
  free_energy:       135.9884606
  entropy:             9.6475502
  heat_capacity:      28.4166974
  energy:            138.1688070

- temperature:       228.0000000
  free_energy:       135.9689130
  entropy:             9.9006705
  heat_capacity:      29.0427995
  energy:            138.2262658

- temperature:       230.0000000
  free_energy:       135.9488558
  entropy:            10.1570652
  heat_capacity:      29.6727513
  energy:            138.2849808

- temperature:       232.0000000
  free_energy:       135.9282825
  entropy:            10.4167103
  heat_capacity:      30.3064127
  energy:            138.3449593

- temperature:       234.0000000
  free_energy:       135.9071868
  entropy:            10.6795812
  heat_capacity:      30.9436442
  energy:            138.4062088

- temperature:       236.0000000
  free_energy:       135.8855621
  entropy:            10.9456530
  heat_capacity:      31.5843067
  energy:            138.4687362

- temperature:       238.0000000
  free_energy:       135.8634021
  entropy:            11.2148998
  heat_capacity:      32.2282624
  energy:            138.5325482

- temperature:       240.0000000
  free_energy:       135.8407004
  entropy:            11.4872956
  heat_capacity:      32.8753738
  energy:            138.5976513

- temperature:       242.0000000
  free_energy:       135.8174508
  entropy:            11.7628138
  heat_capacity:      33.5255045
  energy:            138.6640517

- temperature:       244.0000000
  free_energy:       135.7936471
  entropy:            12.0414271
  heat_capacity:      34.1785192
  energy:            138.7317553

- temperature:       246.0000000
  free_energy:       135.7692830
  entropy:            12.3231081
  heat_capacity:      34.8342836
  energy:            138.8007676

- temperature:       248.0000000
  free_energy:       135.7443526
  entropy:            12.6078288
  heat_capacity:      35.4926642
  energy:            138.8710942

- temperature:       250.0000000
  free_energy:       135.7188497
  entropy:            12.8955609
  heat_capacity:      36.1535292
  energy:            138.9427399

- temperature:       252.0000000
  free_energy:       135.6927684
  entropy:            13.1862757
  heat_capacity:      36.8167477
  energy:            139.0157098

- temperature:       254.0000000
  free_energy:       135.6661026
  entropy:            13.4799440
  heat_capacity:      37.4821901
  energy:            139.0900084

- temperature:       256.0000000
  free_energy:       135.6388467
  entropy:            13.7765365
  heat_capacity:      38.1497283
  energy:            139.1656400

- temperature:       258.0000000
  free_energy:       135.6109946
  entropy:            14.0760236
  heat_capacity:      38.8192354
  energy:            139.2426086

- temperature:       260.0000000
  free_energy:       135.5825406
  entropy:            14.3783751
  heat_capacity:      39.4905861
  energy:            139.3209182

- temperature:       262.0000000
  free_energy:       135.5534792
  entropy:            14.6835609
  heat_capacity:      40.1636566
  energy:            139.4005721

- temperature:       264.0000000
  free_energy:       135.5238045
  entropy:            14.9915505
  heat_capacity:      40.8383246
  energy:            139.4815739

- temperature:       266.0000000
  free_energy:       135.4935111
  entropy:            15.3023131
  heat_capacity:      41.5144694
  energy:            139.5639264

- temperature:       268.0000000
  free_energy:       135.4625935
  entropy:            15.6158179
  heat_capacity:      42.1919717
  energy:            139.6476326

- temperature:       270.0000000
  free_energy:       135.4310461
  entropy:            15.9320336
  heat_capacity:      42.8707142
  energy:            139.7326951

- temperature:       272.0000000
  free_energy:       135.3988635
  entropy:            16.2509291
  heat_capacity:      43.5505811
  energy:            139.8191163

- temperature:       274.0000000
  free_energy:       135.3660406
  entropy:            16.5724729
  heat_capacity:      44.2314583
  energy:            139.9068981

- temperature:       276.0000000
  free_energy:       135.3325719
  entropy:            16.8966333
  heat_capacity:      44.9132335
  energy:            139.9960427

- temperature:       278.0000000
  free_energy:       135.2984523
  entropy:            17.2233787
  heat_capacity:      45.5957961
  energy:            140.0865516

- temperature:       280.0000000
  free_energy:       135.2636767
  entropy:            17.5526773
  heat_capacity:      46.2790373
  energy:            140.1784263

- temperature:       282.0000000
  free_energy:       135.2282399
  entropy:            17.8844972
  heat_capacity:      46.9628501
  energy:            140.2716681

- temperature:       284.0000000
  free_energy:       135.1921370
  entropy:            18.2188063
  heat_capacity:      47.6471294
  energy:            140.3662780

- temperature:       286.0000000
  free_energy:       135.1553631
  entropy:            18.5555728
  heat_capacity:      48.3317719
  energy:            140.4622569

- temperature:       288.0000000
  free_energy:       135.1179131
  entropy:            18.8947645
  heat_capacity:      49.0166761
  energy:            140.5596053

- temperature:       290.0000000
  free_energy:       135.0797824
  entropy:            19.2363493
  heat_capacity:      49.7017424
  energy:            140.6583237

- temperature:       292.0000000
  free_energy:       135.0409662
  entropy:            19.5802951
  heat_capacity:      50.3868730
  energy:            140.7584123

- temperature:       294.0000000
  free_energy:       135.0014597
  entropy:            19.9265697
  heat_capacity:      51.0719722
  energy:            140.8598712

- temperature:       296.0000000
  free_energy:       134.9612583
  entropy:            20.2751411
  heat_capacity:      51.7569458
  energy:            140.9627001

- temperature:       298.0000000
  free_energy:       134.9203576
  entropy:            20.6259772
  heat_capacity:      52.4417019
  energy:            141.0668988

- temperature:       300.0000000
  free_energy:       134.8787529
  entropy:            20.9790459
  heat_capacity:      53.1261501
  energy:            141.1724667

- temperature:       302.0000000
  free_energy:       134.8364399
  entropy:            21.3343152
  heat_capacity:      53.8102023
  energy:            141.2794031

- temperature:       304.0000000
  free_energy:       134.7934142
  entropy:            21.6917532
  heat_capacity:      54.4937719
  energy:            141.3877072

- temperature:       306.0000000
  free_energy:       134.7496715
  entropy:            22.0513279
  heat_capacity:      55.1767744
  energy:            141.4973779

- temperature:       308.0000000
  free_energy:       134.7052075
  entropy:            22.4130076
  heat_capacity:      55.8591271
  energy:            141.6084139

- temperature:       310.0000000
  free_energy:       134.6600181
  entropy:            22.7767606
  heat_capacity:      56.5407493
  energy:            141.7208139

- temperature:       312.0000000
  free_energy:       134.6140991
  entropy:            23.1425551
  heat_capacity:      57.2215618
  energy:            141.8345763

- temperature:       314.0000000
  free_energy:       134.5674465
  entropy:            23.5103598
  heat_capacity:      57.9014877
  energy:            141.9496995

- temperature:       316.0000000
  free_energy:       134.5200564
  entropy:            23.8801433
  heat_capacity:      58.5804517
  energy:            142.0661816

- temperature:       318.0000000
  free_energy:       134.4719247
  entropy:            24.2518741
  heat_capacity:      59.2583803
  energy:            142.1840206

- temperature:       320.0000000
  free_energy:       134.4230476
  entropy:            24.6255213
  heat_capacity:      59.9352020
  energy:            142.3032144

- temperature:       322.0000000
  free_energy:       134.3734213
  entropy:            25.0010539
  heat_capacity:      60.6108469
  energy:            142.4237607

- temperature:       324.0000000
  free_energy:       134.3230421
  entropy:            25.3784409
  heat_capacity:      61.2852469
  energy:            142.5456570

- temperature:       326.0000000
  free_energy:       134.2719063
  entropy:            25.7576516
  heat_capacity:      61.9583360
  energy:            142.6689008

- temperature:       328.0000000
  free_energy:       134.2200103
  entropy:            26.1386557
  heat_capacity:      62.6300494
  energy:            142.7934894

- temperature:       330.0000000
  free_energy:       134.1673505
  entropy:            26.5214226
  heat_capacity:      63.3003246
  energy:            142.9194200

- temperature:       332.0000000
  free_energy:       134.1139235
  entropy:            26.9059223
  heat_capacity:      63.9691005
  energy:            143.0466897

- temperature:       334.0000000
  free_energy:       134.0597257
  entropy:            27.2921247
  heat_capacity:      64.6363177
  energy:            143.1752954

- temperature:       336.0000000
  free_energy:       134.0047539
  entropy:            27.6800001
  heat_capacity:      65.3019186
  energy:            143.3052339

- temperature:       338.0000000
  free_energy:       133.9490046
  entropy:            28.0695187
  heat_capacity:      65.9658472
  energy:            143.4365019

- temperature:       340.0000000
  free_energy:       133.8924747
  entropy:            28.4606512
  heat_capacity:      66.6280491
  energy:            143.5690961

- temperature:       342.0000000
  free_energy:       133.8351610
  entropy:            28.8533684
  heat_capacity:      67.2884718
  energy:            143.7030130

- temperature:       344.0000000
  free_energy:       133.7770602
  entropy:            29.2476412
  heat_capacity:      67.9470639
  energy:            143.8382488

- temperature:       346.0000000
  free_energy:       133.7181694
  entropy:            29.6434410
  heat_capacity:      68.6037761
  energy:            143.9748000

- temperature:       348.0000000
  free_energy:       133.6584855
  entropy:            30.0407390
  heat_capacity:      69.2585603
  energy:            144.1126626

- temperature:       350.0000000
  free_energy:       133.5980054
  entropy:            30.4395070
  heat_capacity:      69.9113700
  energy:            144.2518329

- temperature:       352.0000000
  free_energy:       133.5367265
  entropy:            30.8397167
  heat_capacity:      70.5621604
  energy:            144.3923068

- temperature:       354.0000000
  free_energy:       133.4746456
  entropy:            31.2413404
  heat_capacity:      71.2108880
  energy:            144.5340801

- temperature:       356.0000000
  free_energy:       133.4117602
  entropy:            31.6443503