<?xml version="1.0" encoding="ISO-8859-1"?>
<modeling>
 <generator>
  <i name="program" type="string">vasp </i>
  <i name="version" type="string">5.4.4.18Apr17-6-g9f103f2a35  </i>
  <i name="subversion" type="string">(build Mar 12 2022 03:36:41) complex            parallel </i>
  <i name="platform" type="string">IFC19.0.3.199_CrayMPICH7.7.19 </i>
  <i name="date" type="string">2022 12 02 </i>
  <i name="time" type="string">03:44:55 </i>
 </generator>
 <incar>
  <i type="string" name="PREC">accurate</i>
  <i type="int" name="IALGO">    38</i>
  <i type="logical" name="ADDGRID"> T  </i>
  <i type="int" name="IBRION">     8</i>
  <i name="EDIFF">      0.00000001</i>
  <i type="logical" name="LREAL"> F  </i>
  <i type="int" name="ISMEAR">     0</i>
  <i name="SIGMA">      0.06000000</i>
  <i type="logical" name="LWAVE"> F  </i>
  <i type="logical" name="LCHARG"> F  </i>
  <v type="int" name="KPOINT_BSE">    -1     0     0     0</v>
 </incar>
 <structure name="primitive_cell" >
  <crystal>
   <varray name="basis" >
    <v>      -0.14359957      -1.86254617      -1.79223614 </v>
    <v>      -1.86679947      -1.79356316       0.00000000 </v>
    <v>      -1.86679947      -0.06898301      -1.79223614 </v>
   </varray>
   <i name="volume">     11.54001244 </i>
   <varray name="rec_basis" >
    <v>       0.27855158      -0.28992564      -0.27898110 </v>
    <v>      -0.27855158      -0.26762373       0.30044112 </v>
    <v>      -0.27855158       0.28992564      -0.27898109 </v>
   </varray>
  </crystal>
  <varray name="positions" >
   <v>       0.25000000       0.25000000       0.25000000 </v>
   <v>      -0.50000000      -0.50000000      -0.50000000 </v>
  </varray>
 </structure>
 <varray name="primitive_index" >
  <v type="int" >        1 </v>
  <v type="int" >       11 </v>
 </varray>
 <kpoints>
  <generation param="Gamma">
   <v type="int" name="divisions">       6        6        6 </v>
   <v name="usershift">      0.00000000       0.00000000       0.00000000 </v>
   <v name="genvec1">      0.16666667       0.00000000       0.00000000 </v>
   <v name="genvec2">      0.00000000       0.16666667       0.00000000 </v>
   <v name="genvec3">      0.00000000       0.00000000       0.16666667 </v>
   <v name="shift">      0.00000000       0.00000000       0.00000000 </v>
  </generation>
  <varray name="kpointlist" >
   <v>       0.00000000       0.00000000       0.00000000 </v>
   <v>       0.16666667      -0.00000000       0.00000000 </v>
   <v>       0.33333333      -0.00000000      -0.00000000 </v>
   <v>       0.50000000       0.00000000      -0.00000000 </v>
   <v>       0.16666667       0.16666667       0.00000000 </v>
   <v>       0.33333333       0.16666667       0.00000000 </v>
   <v>       0.50000000       0.16666667      -0.00000000 </v>
   <v>      -0.33333333       0.16666667       0.00000000 </v>
   <v>      -0.16666667       0.16666667      -0.00000000 </v>
   <v>       0.33333333       0.33333333       0.00000000 </v>
   <v>       0.50000000       0.33333333       0.00000000 </v>
   <v>      -0.33333333       0.33333333       0.00000000 </v>
   <v>       0.50000000       0.50000000       0.00000000 </v>
   <v>       0.16666667       0.16666667       0.16666667 </v>
   <v>       0.33333333       0.16666667       0.16666667 </v>
   <v>       0.50000000       0.16666667       0.16666667 </v>
   <v>      -0.33333333       0.16666667       0.16666667 </v>
   <v>      -0.16666667       0.16666667       0.16666667 </v>
   <v>       0.33333333       0.33333333       0.16666667 </v>
   <v>       0.50000000       0.33333333       0.16666667 </v>
   <v>      -0.33333333       0.33333333       0.16666667 </v>
   <v>      -0.16666667       0.33333333       0.16666667 </v>
   <v>       0.50000000       0.50000000       0.16666667 </v>
   <v>      -0.33333333       0.50000000       0.16666667 </v>
   <v>      -0.16666667       0.50000000       0.16666667 </v>
   <v>      -0.33333333      -0.33333333       0.16666667 </v>
   <v>       0.33333333       0.33333333       0.33333333 </v>
   <v>       0.50000000       0.33333333       0.33333333 </v>
   <v>      -0.33333333       0.33333333       0.33333333 </v>
   <v>       0.50000000       0.50000000       0.33333333 </v>
   <v>      -0.33333333       0.50000000       0.33333333 </v>
   <v>       0.50000000       0.50000000       0.50000000 </v>
  </varray>
  <varray name="weights" >
   <v>       0.00462963 </v>
   <v>       0.02777778 </v>
   <v>       0.02777778 </v>
   <v>       0.01388889 </v>
   <v>       0.02777778 </v>
   <v>       0.05555556 </v>
   <v>       0.05555556 </v>
   <v>       0.05555556 </v>
   <v>       0.02777778 </v>
   <v>       0.02777778 </v>
   <v>       0.05555556 </v>
   <v>       0.02777778 </v>
   <v>       0.01388889 </v>
   <v>       0.00925926 </v>
   <v>       0.02777778 </v>
   <v>       0.02777778 </v>
   <v>       0.02777778 </v>
   <v>       0.02777778 </v>
   <v>       0.02777778 </v>
   <v>       0.05555556 </v>
   <v>       0.05555556 </v>
   <v>       0.05555556 </v>
   <v>       0.02777778 </v>
   <v>       0.05555556 </v>
   <v>       0.02777778 </v>
   <v>       0.02777778 </v>
   <v>       0.00925926 </v>
   <v>       0.02777778 </v>
   <v>       0.02777778 </v>
   <v>       0.02777778 </v>
   <v>       0.02777778 </v>
   <v>       0.00462963 </v>
  </varray>
 </kpoints>
 <parameters>
  <separator name="general" >
   <i type="string" name="SYSTEM">unknown system</i>
   <i type="logical" name="LCOMPAT"> F  </i>
  </separator>
  <separator name="electronic" >
   <i type="string" name="PREC">accura</i>
   <i name="ENMAX">    400.00000000</i>
   <i name="ENAUG">    644.87300000</i>
   <i name="EDIFF">      0.00000001</i>
   <i type="int" name="IALGO">    38</i>
   <i type="int" name="IWAVPR">    11</i>
   <i type="int" name="NBANDS">   192</i>
   <i name="NELECT">    256.00000000</i>
   <i type="int" name="TURBO">     0</i>
   <i type="int" name="IRESTART">     0</i>
   <i type="int" name="NREBOOT">     0</i>
   <i type="int" name="NMIN">     0</i>
   <i name="EREF">      0.00000000</i>
   <separator name="electronic smearing" >
    <i type="int" name="ISMEAR">     0</i>
    <i name="SIGMA">      0.06000000</i>
    <i name="KSPACING">      0.50000000</i>
    <i type="logical" name="KGAMMA"> T  </i>
   </separator>
   <separator name="electronic projectors" >
    <i type="logical" name="LREAL"> F  </i>
    <v name="ROPT">      0.00000000</v>
    <i type="int" name="LMAXPAW">  -100</i>
    <i type="int" name="LMAXMIX">     2</i>
    <i type="logical" name="NLSPLINE"> F  </i>
   </separator>
   <separator name="electronic startup" >
    <i type="int" name="ISTART">     0</i>
    <i type="int" name="ICHARG">     2</i>
    <i type="int" name="INIWAV">     1</i>
   </separator>
   <separator name="electronic spin" >
    <i type="int" name="ISPIN">     1</i>
    <i type="logical" name="LNONCOLLINEAR"> F  </i>
    <v name="MAGMOM">      1.00000000      1.00000000      1.00000000      1.00000000      1.00000000      1.00000000      1.00000000      1.00000000      1.00000000      1.00000000      1.00000000      1.00000000      1.00000000      1.00000000      1.00000000      1.00000000      1.00000000      1.00000000      1.00000000      1.00000000
      1.00000000      1.00000000      1.00000000      1.00000000      1.00000000      1.00000000      1.00000000      1.00000000      1.00000000      1.00000000      1.00000000      1.00000000      1.00000000      1.00000000      1.00000000      1.00000000      1.00000000      1.00000000      1.00000000      1.00000000
      1.00000000      1.00000000      1.00000000      1.00000000      1.00000000      1.00000000      1.00000000      1.00000000      1.00000000      1.00000000      1.00000000      1.00000000      1.00000000      1.00000000      1.00000000      1.00000000      1.00000000      1.00000000      1.00000000      1.00000000
      1.00000000      1.00000000      1.00000000      1.00000000</v>
    <i name="NUPDOWN">     -1.00000000</i>
    <i type="logical" name="LSORBIT"> F  </i>
    <v name="SAXIS">      0.00000000      0.00000000      1.00000000</v>
    <i type="logical" name="LSPIRAL"> F  </i>
    <v name="QSPIRAL">      0.00000000      0.00000000      0.00000000</v>
    <i type="logical" name="LZEROZ"> F  </i>
   </separator>
   <separator name="electronic exchange-correlation" >
    <i type="logical" name="LASPH"> F  </i>
    <i type="logical" name="LMETAGGA"> F  </i>
   </separator>
   <separator name="electronic convergence" >
    <i type="int" name="NELM">    60</i>
    <i type="int" name="NELMDL">    -5</i>
    <i type="int" name="NELMIN">     2</i>
    <i name="ENINI">    400.00000000</i>
    <separator name="electronic convergence detail" >
     <i type="logical" name="LDIAG"> T  </i>
     <i type="logical" name="LSUBROT"> F  </i>
     <i name="WEIMIN">      0.00100000</i>
     <i name="EBREAK">      0.00000000</i>
     <i name="DEPER">      0.30000000</i>
     <i type="int" name="NRMM">     4</i>
     <i name="TIME">      0.40000000</i>
    </separator>
   </separator>
   <separator name="electronic mixer" >
    <i name="AMIX">      0.40000000</i>
    <i name="BMIX">      1.00000000</i>
    <i name="AMIN">      0.10000000</i>
    <i name="AMIX_MAG">      1.60000000</i>
    <i name="BMIX_MAG">      1.00000000</i>
    <separator name="electronic mixer details" >
     <i type="int" name="IMIX">     4</i>
     <i type="logical" name="MIXFIRST"> F  </i>
     <i type="int" name="MAXMIX">   -45</i>
     <i name="WC">    100.00000000</i>
     <i type="int" name="INIMIX">     1</i>
     <i type="int" name="MIXPRE">     1</i>
     <i type="int" name="MREMOVE">     5</i>
    </separator>
   </separator>
   <separator name="electronic dipolcorrection" >
    <i type="logical" name="LDIPOL"> F  </i>
    <i type="logical" name="LMONO"> F  </i>
    <i type="int" name="IDIPOL">     0</i>
    <i name="EPSILON">      1.00000000</i>
    <v name="DIPOL">   -100.00000000   -100.00000000   -100.00000000</v>
    <i name="EFIELD">      0.00000000</i>
   </separator>
  </separator>
  <separator name="grids" >
   <i type="int" name="NGX">    48</i>
   <i type="int" name="NGY">    48</i>
   <i type="int" name="NGZ">    48</i>
   <i type="int" name="NGXF">    96</i>
   <i type="int" name="NGYF">    96</i>
   <i type="int" name="NGZF">    96</i>
   <i type="logical" name="ADDGRID"> T  </i>
  </separator>
  <separator name="ionic" >
   <i type="int" name="NSW">     1</i>
   <i type="int" name="IBRION">     8</i>
   <i type="int" name="MDALGO">     0</i>
   <i type="int" name="ISIF">     2</i>
   <i name="PSTRESS">      0.00000000</i>
   <i name="EDIFFG">      0.00000010</i>
   <i type="int" name="NFREE">     0</i>
   <i name="POTIM">      0.50000000</i>
   <i name="SMASS">     -3.00000000</i>
   <i name="SCALEE">      1.00000000</i>
  </separator>
  <separator name="ionic md" >
   <i name="TEBEG">      0.00010000</i>
   <i name="TEEND">      0.00010000</i>
   <i type="int" name="NBLOCK">     1</i>
   <i type="int" name="KBLOCK">     1</i>
   <i type="int" name="NPACO">   256</i>
   <i name="APACO">     16.00000000</i>
  </separator>
  <separator name="symmetry" >
   <i type="int" name="ISYM">     2</i>
   <i name="SYMPREC">      0.00001000</i>
  </separator>
  <separator name="dos" >
   <i type="int" name="LORBIT">     0</i>
   <v name="RWIGS">     -1.00000000</v>
   <i type="int" name="NEDOS">   301</i>
   <i name="EMIN">     10.00000000</i>
   <i name="EMAX">    -10.00000000</i>
   <i name="EFERMI">      0.00000000</i>
  </separator>
  <separator name="writing" >
   <i type="int" name="NWRITE">     2</i>
   <i type="logical" name="LWAVE"> F  </i>
   <i type="logical" name="LDOWNSAMPLE"> F  </i>
   <i type="logical" name="LCHARG"> F  </i>
   <i type="logical" name="LPARD"> F  </i>
   <i type="logical" name="LVTOT"> F  </i>
   <i type="logical" name="LVHAR"> F  </i>
   <i type="logical" name="LELF"> F  </i>
   <i type="logical" name="LOPTICS"> F  </i>
   <v name="STM">      0.00000000      0.00000000      0.00000000      0.00000000      0.00000000      0.00000000      0.00000000</v>
  </separator>
  <separator name="performance" >
   <i type="int" name="NPAR">    32</i>
   <i type="int" name="NSIM">     4</i>
   <i type="int" name="NBLK">    -1</i>
   <i type="logical" name="LPLANE"> T  </i>
   <i type="logical" name="LSCALAPACK"> T  </i>
   <i type="logical" name="LSCAAWARE"> F  </i>
   <i type="logical" name="LSCALU"> F  </i>
   <i type="logical" name="LASYNC"> F  </i>
   <i type="logical" name="LORBITALREAL"> F  </i>
  </separator>
  <separator name="miscellaneous" >
   <i type="int" name="IDIOT">     3</i>
   <i type="int" name="ISPECIAL">     0</i>
   <i type="logical" name="LMUSIC"> F  </i>
   <v name="POMASS">     12.01100000</v>
   <v name="DARWINR">      0.00000000</v>
   <v name="DARWINV">      1.00000000</v>
   <i type="logical" name="LCORR"> T  </i>
  </separator>
  <i type="logical" name="GGA_COMPAT"> T  </i>
  <i type="logical" name="LBERRY"> F  </i>
  <i type="int" name="ICORELEVEL">     0</i>
  <i type="logical" name="LDAU"> F  </i>
  <i type="int" name="I_CONSTRAINED_M">     0</i>
  <separator name="electronic exchange-correlation" >
   <i type="string" name="GGA">--</i>
   <i type="int" name="VOSKOWN">     0</i>
   <i type="logical" name="LHFCALC"> F  </i>
   <i type="string" name="PRECFOCK"></i>
   <i type="logical" name="LSYMGRAD"> F  </i>
   <i type="logical" name="LHFONE"> F  </i>
   <i type="logical" name="LRHFCALC"> F  </i>
   <i type="logical" name="LTHOMAS"> F  </i>
   <i type="logical" name="LMODELHF"> F  </i>
   <i name="ENCUT4O">     -1.00000000</i>
   <i type="int" name="EXXOEP">     0</i>
   <i type="int" name="FOURORBIT">     0</i>
   <i name="AEXX">      0.00000000</i>
   <i name="HFALPHA">      0.00000000</i>
   <i name="MCALPHA">      0.00000000</i>
   <i name="ALDAX">      1.00000000</i>
   <i name="AGGAX">      1.00000000</i>
   <i name="ALDAC">      1.00000000</i>
   <i name="AGGAC">      1.00000000</i>
   <i type="int" name="NKREDX">     1</i>
   <i type="int" name="NKREDY">     1</i>
   <i type="int" name="NKREDZ">     1</i>
   <i type="logical" name="SHIFTRED"> F  </i>
   <i type="logical" name="ODDONLY"> F  </i>
   <i type="logical" name="EVENONLY"> F  </i>
   <i type="int" name="LMAXFOCK">     0</i>
   <i type="int" name="NMAXFOCKAE">     0</i>
   <i type="logical" name="LFOCKAEDFT"> F  </i>
   <i name="HFSCREEN">      0.00000000</i>
   <i name="HFSCREENC">      0.00000000</i>
   <i type="int" name="NBANDSGWLOW">     0</i>
  </separator>
  <separator name="vdW DFT" >
   <i type="logical" name="LUSE_VDW"> F  </i>
   <i name="Zab_VDW">     -0.84910000</i>
   <i name="PARAM1">      0.12340000</i>
   <i name="PARAM2">      1.00000000</i>
   <i name="PARAM3">      0.00000000</i>
  </separator>
  <separator name="model GW" >
   <i type="int" name="MODEL_GW">     0</i>
   <i name="MODEL_EPS0">      3.46200373</i>
   <i name="MODEL_ALPHA">      1.00000000</i>
  </separator>
  <separator name="linear response parameters" >
   <i type="logical" name="LEPSILON"> F  </i>
   <i type="logical" name="LRPA"> F  </i>
   <i type="logical" name="LNABLA"> F  </i>
   <i type="logical" name="LVEL"> F  </i>
   <i type="int" name="KINTER">     0</i>
   <i name="CSHIFT">      0.10000000</i>
   <i name="OMEGAMAX">     -1.00000000</i>
   <i name="DEG_THRESHOLD">      0.00200000</i>
   <i name="RTIME">     -0.10000000</i>
   <i name="WPLASMAI">      0.00000000</i>
   <v name="DFIELD">      0.00000000      0.00000000      0.00000000</v>
   <v name="WPLASMA">      0.00000000      0.00000000      0.00000000      0.00000000      0.00000000      0.00000000      0.00000000      0.00000000      0.00000000</v>
  </separator>
  <separator name="orbital magnetization" >
   <i type="logical" name="NUCIND"> F  </i>
   <v name="MAGPOS">      0.00000000      0.00000000      0.00000000</v>
   <i type="logical" name="LNICSALL"> T  </i>
   <i type="logical" name="ORBITALMAG"> F  </i>
   <i type="logical" name="LMAGBLOCH"> F  </i>
   <i type="logical" name="LCHIMAG"> F  </i>
   <i type="logical" name="LGAUGE"> T  </i>
   <i type="int" name="MAGATOM">     0</i>
   <v name="MAGDIPOL">      0.00000000      0.00000000      0.00000000</v>
   <v name="AVECCONST">      0.00000000      0.00000000      0.00000000</v>
  </separator>
  <separator name="response functions" >
   <i type="logical" name="LADDER"> F  </i>
   <i type="logical" name="LRPAFORCE"> F  </i>
   <i type="logical" name="LFXC"> F  </i>
   <i type="logical" name="LHARTREE"> T  </i>
   <i type="int" name="IBSE">     0</i>
   <v type="int" name="KPOINT">    -1     0     0     0</v>
   <i type="logical" name="LTCTE"> F  </i>
   <i type="logical" name="LTETE"> F  </i>
   <i type="logical" name="LTRIPLET"> F  </i>
   <i type="logical" name="LFXCEPS"> F  </i>
   <i type="logical" name="LFXHEG"> F  </i>
   <i type="int" name="NATURALO">     2</i>
   <i type="logical" name="L2ORDER"> F  </i>
   <i type="logical" name="LMP2LT"> F  </i>
   <i type="logical" name="LUSEW"> F  </i>
   <i name="ENCUTGW">     -2.00000000</i>
   <i name="ENCUTGWSOFT">     -2.00000000</i>
   <i name="ENCUTLF">     -1.00000000</i>
   <i type="int" name="LMAXMP2">    -1</i>
   <i name="SCISSOR">      0.00000000</i>
   <i type="int" name="NOMEGA">     0</i>
   <i type="int" name="NOMEGAR">     0</i>
   <i type="int" name="NBANDSGW">    -1</i>
   <i type="int" name="NBANDSO">    -1</i>
   <i type="int" name="NBANDSV">    -1</i>
   <i type="int" name="NELM">     1</i>
   <i type="int" name="NELMHF">     1</i>
   <i type="int" name="DIM">     3</i>
   <i type="int" name="ANTIRES">     0</i>
   <i name="OMEGAMAX">    -30.00000000</i>
   <i name="OMEGAMIN">    -30.00000000</i>
   <i name="OMEGATL">   -200.00000000</i>
   <i type="int" name="OMEGAGRID">   140</i>
   <i name="CSHIFT">     -0.10000000</i>
   <i type="logical" name="SELFENERGY"> F  </i>
   <i type="logical" name="LSPECTRAL"> F  </i>
   <i type="logical" name="LSPECTRALGW"> F  </i>
   <i type="logical" name="LSINGLES"> F  </i>
   <i type="logical" name="LFERMIGW"> F  </i>
   <i type="logical" name="ODDONLYGW"> F  </i>
   <i type="logical" name="EVENONLYGW"> F  </i>
   <i type="int" name="NKREDLFX">     1</i>
   <i type="int" name="NKREDLFY">     1</i>
   <i type="int" name="NKREDLFZ">     1</i>
   <i type="int" name="MAXMEM">  2800</i>
   <i type="int" name="TELESCOPE">     0</i>
   <i type="int" name="TAUPAR">     1</i>
   <i type="int" name="OMEGAPAR">    -1</i>
   <i name="LAMBDA">      1.00000000</i>
  </separator>
  <separator name="External order field" >
   <i name="OFIELD_KAPPA">      0.00000000</i>
   <v name="OFIELD_K">      0.00000000      0.00000000      0.00000000</v>
   <i name="OFIELD_Q6_NEAR">      0.00000000</i>
   <i name="OFIELD_Q6_FAR">      0.00000000</i>
   <i name="OFIELD_A">      0.00000000</i>
  </separator>
 </parameters>
 <atominfo>
  <atoms>      64 </atoms>
  <types>       1 </types>
  <array name="atoms" >
   <dimension dim="1">ion</dimension>
   <field type="string">element</field>
   <field type="int">atomtype</field>
   <set>
    <rc><c>C </c><c>   1</c></rc>
    <rc><c>C </c><c>   1</c></rc>
    <rc><c>C </c><c>   1</c></rc>
    <rc><c>C </c><c>   1</c></rc>
    <rc><c>C </c><c>   1</c></rc>
    <rc><c>C </c><c>   1</c></rc>
    <rc><c>C </c><c>   1</c></rc>
    <rc><c>C </c><c>   1</c></rc>
    <rc><c>C </c><c>   1</c></rc>
    <rc><c>C </c><c>   1</c></rc>
    <rc><c>C </c><c>   1</c></rc>
    <rc><c>C </c><c>   1</c></rc>
    <rc><c>C </c><c>   1</c></rc>
    <rc><c>C </c><c>   1</c></rc>
    <rc><c>C </c><c>   1</c></rc>
    <rc><c>C </c><c>   1</c></rc>
    <rc><c>C </c><c>   1</c></rc>
    <rc><c>C </c><c>   1</c></rc>
    <rc><c>C </c><c>   1</c></rc>
    <rc><c>C </c><c>   1</c></rc>
    <rc><c>C </c><c>   1</c></rc>
    <rc><c>C </c><c>   1</c></rc>
    <rc><c>C </c><c>   1</c></rc>
    <rc><c>C </c><c>   1</c></rc>
    <rc><c>C </c><c>   1</c></rc>
    <rc><c>C </c><c>   1</c></rc>
    <rc><c>C </c><c>   1</c></rc>
    <rc><c>C </c><c>   1</c></rc>
    <rc><c>C </c><c>   1</c></rc>
    <rc><c>C </c><c>   1</c></rc>
    <rc><c>C </c><c>   1</c></rc>
    <rc><c>C </c><c>   1</c></rc>
    <rc><c>C </c><c>   1</c></rc>
    <rc><c>C </c><c>   1</c></rc>
    <rc><c>C </c><c>   1</c></rc>
    <rc><c>C </c><c>   1</c></rc>
    <rc><c>C </c><c>   1</c></rc>
    <rc><c>C </c><c>   1</c></rc>
    <rc><c>C </c><c>   1</c></rc>
    <rc><c>C </c><c>   1</c></rc>
    <rc><c>C </c><c>   1</c></rc>
    <rc><c>C </c><c>   1</c></rc>
    <rc><c>C </c><c>   1</c></rc>
    <rc><c>C </c><c>   1</c></rc>
    <rc><c>C </c><c>   1</c></rc>
    <rc><c>C </c><c>   1</c></rc>
    <rc><c>C </c><c>   1</c></rc>
    <rc><c>C </c><c>   1</c></rc>
    <rc><c>C </c><c>   1</c></rc>
    <rc><c>C </c><c>   1</c></rc>
    <rc><c>C </c><c>   1</c></rc>
    <rc><c>C </c><c>   1</c></rc>
    <rc><c>C </c><c>   1</c></rc>
    <rc><c>C </c><c>   1</c></rc>
    <rc><c>C </c><c>   1</c></rc>
    <rc><c>C </c><c>   1</c></rc>
    <rc><c>C </c><c>   1</c></rc>
    <rc><c>C </c><c>   1</c></rc>
    <rc><c>C </c><c>   1</c></rc>
    <rc><c>C </c><c>   1</c></rc>
    <rc><c>C </c><c>   1</c></rc>
    <rc><c>C </c><c>   1</c></rc>
    <rc><c>C </c><c>   1</c></rc>
    <rc><c>C </c><c>   1</c></rc>
   </set>
  </array>
  <array name="atomtypes" >
   <dimension dim="1">type</dimension>
   <field type="int">atomspertype</field>
   <field type="string">element</field>
   <field>mass</field>
   <field>valence</field>
   <field type="string">pseudopotential</field>
   <set>
    <rc><c>  64</c><c>C </c><c>     12.01100000</c><c>      4.00000000</c><c> PAW_PBE C 08Apr2002                    </c></rc>
   </set>
  </array>
 </atominfo>
 <structure name="initialpos" >
  <crystal>
   <varray name="basis" >
    <v>       7.17999872       0.00000000       0.00000000 </v>
    <v>       0.28719915       7.17425265       0.00000000 </v>
    <v>       0.28719915       0.27593202       7.16894456 </v>
   </varray>
   <i name="volume">    369.28039792 </i>
   <varray name="rec_basis" >
    <v>       0.13927579      -0.00557548      -0.00536501 </v>
    <v>       0.00000000       0.13938734      -0.00536501 </v>
    <v>       0.00000000       0.00000000       0.13949055 </v>
   </varray>
  </crystal>
  <varray name="positions" >
   <v>       0.12500000       0.37500000       0.12500000 </v>
   <v>       0.62500000       0.37500000       0.12500000 </v>
   <v>       0.12500000       0.87500000       0.12500000 </v>
   <v>       0.62500000       0.87500000       0.12500000 </v>
   <v>       0.12500000       0.37500000       0.62500000 </v>
   <v>       0.62500000       0.37500000       0.62500000 </v>
   <v>       0.12500000       0.87500000       0.62500000 </v>
   <v>       0.62500000       0.87500000       0.62500000 </v>
   <v>       0.00000000       0.00000000       0.25000000 </v>
   <v>       0.50000000       0.00000000       0.25000000 </v>
   <v>       0.00000000       0.50000000       0.25000000 </v>
   <v>       0.50000000       0.50000000       0.25000000 </v>
   <v>       0.00000000       0.00000000       0.75000000 </v>
   <v>       0.50000000       0.00000000       0.75000000 </v>
   <v>       0.00000000       0.50000000       0.75000000 </v>
   <v>       0.50000000       0.50000000       0.75000000 </v>
   <v>       0.12500000       0.12500000       0.37500000 </v>
   <v>       0.62500000       0.12500000       0.37500000 </v>
   <v>       0.12500000       0.62500000       0.37500000 </v>
   <v>       0.62500000       0.62500000       0.37500000 </v>
   <v>       0.12500000       0.12500000       0.87500000 </v>
   <v>       0.62500000       0.12500000       0.87500000 </v>
   <v>       0.12500000       0.62500000       0.87500000 </v>
   <v>       0.62500000       0.62500000       0.87500000 </v>
   <v>       0.00000000       0.25000000       0.00000000 </v>
   <v>       0.50000000       0.25000000       0.00000000 </v>
   <v>       0.00000000       0.75000000       0.00000000 </v>
   <v>       0.50000000       0.75000000       0.00000000 </v>
   <v>       0.00000000       0.25000000       0.50000000 </v>
   <v>       0.50000000       0.25000000       0.50000000 </v>
   <v>       0.00000000       0.75000000       0.50000000 </v>
   <v>       0.50000000       0.75000000       0.50000000 </v>
   <v>       0.37500000       0.37500000       0.37500000 </v>
   <v>       0.87500000       0.37500000       0.37500000 </v>
   <v>       0.37500000       0.87500000       0.37500000 </v>
   <v>       0.87500000       0.87500000       0.37500000 </v>
   <v>       0.37500000       0.37500000       0.87500000 </v>
   <v>       0.87500000       0.37500000       0.87500000 </v>
   <v>       0.37500000       0.87500000       0.87500000 </v>
   <v>       0.87500000       0.87500000       0.87500000 </v>
   <v>       0.25000000       0.00000000       0.00000000 </v>
   <v>       0.75000000       0.00000000       0.00000000 </v>
   <v>       0.25000000       0.50000000       0.00000000 </v>
   <v>       0.75000000       0.50000000       0.00000000 </v>
   <v>       0.25000000       0.00000000       0.50000000 </v>
   <v>       0.75000000       0.00000000       0.50000000 </v>
   <v>       0.25000000       0.50000000       0.50000000 </v>
   <v>       0.75000000       0.50000000       0.50000000 </v>
   <v>       0.37500000       0.12500000       0.12500000 </v>
   <v>       0.87500000       0.12500000       0.12500000 </v>
   <v>       0.37500000       0.62500000       0.12500000 </v>
   <v>       0.87500000       0.62500000       0.12500000 </v>
   <v>       0.37500000       0.12500000       0.62500000 </v>
   <v>       0.87500000       0.12500000       0.62500000 </v>
   <v>       0.37500000       0.62500000       0.62500000 </v>
   <v>       0.87500000       0.62500000       0.62500000 </v>
   <v>       0.25000000       0.25000000       0.25000000 </v>
   <v>       0.75000000       0.25000000       0.25000000 </v>
   <v>       0.25000000       0.75000000       0.25000000 </v>
   <v>       0.75000000       0.75000000       0.25000000 </v>
   <v>       0.25000000       0.25000000       0.75000000 </v>
   <v>       0.75000000       0.25000000       0.75000000 </v>
   <v>       0.25000000       0.75000000       0.75000000 </v>
   <v>       0.75000000       0.75000000       0.75000000 </v>
  </varray>
 </structure>
 <calculation>
  <scstep>
   <time name="dav">   21.52   21.53</time>
   <time name="total">   21.63   21.71</time>
   <energy>
    <i name="alphaZ">    903.76514330 </i>
    <i name="ewald"> -11061.68602274 </i>
    <i name="hartreedc">   -580.39839212 </i>
    <i name="XCdc">    911.78721269 </i>
    <i name="pawpsdc">   2421.21235816 </i>
    <i name="pawaedc">  -2494.84305711 </i>
    <i name="eentropy">     -0.01260760 </i>
    <i name="bandstr">    992.23380218 </i>
    <i name="atom">   9416.14232778 </i>
    <i name="e_fr_energy">    508.20076454 </i>
    <i name="e_wo_entrp">    508.21337213 </i>
    <i name="e_0_energy">    508.20706834 </i>
   </energy>
  </scstep>
  <scstep>
   <time name="dav">   27.00   27.00</time>
   <time name="total">   27.00   27.00</time>
   <energy>
    <i name="e_fr_energy">   -556.61483162 </i>
    <i name="e_wo_entrp">   -556.61483162 </i>
    <i name="e_0_energy">   -556.61483162 </i>
   </energy>
  </scstep>
  <scstep>
   <time name="dav">   27.48   27.48</time>
   <time name="total">   27.48   27.48</time>
   <energy>
    <i name="e_fr_energy">   -598.31342121 </i>
    <i name="e_wo_entrp">   -598.31342121 </i>
    <i name="e_0_energy">   -598.31342121 </i>
   </energy>
  </scstep>
  <scstep>
   <time name="dav">   27.32   27.32</time>
   <time name="total">   27.32   27.32</time>
   <energy>
    <i name="e_fr_energy">   -598.77184469 </i>
    <i name="e_wo_entrp">   -598.77184469 </i>
    <i name="e_0_energy">   -598.77184469 </i>
   </energy>
  </scstep>
  <scstep>
   <time name="dav">   25.72   25.72</time>
   <time name="total">   26.37   26.37</time>
   <energy>
    <i name="e_fr_energy">   -598.78156206 </i>
    <i name="e_wo_entrp">   -598.78156206 </i>
    <i name="e_0_energy">   -598.78156206 </i>
   </energy>
  </scstep>
  <scstep>
   <time name="dav">   26.14   26.14</time>
   <time name="total">   26.89   26.89</time>
   <energy>
    <i name="e_fr_energy">   -584.00301472 </i>
    <i name="e_wo_entrp">   -584.00301472 </i>
    <i name="e_0_energy">   -584.00301472 </i>
   </energy>
  </scstep>
  <scstep>
   <time name="dav">   25.53   25.53</time>
   <time name="total">   26.28   26.29</time>
   <energy>
    <i name="e_fr_energy">   -579.03367982 </i>
    <i name="e_wo_entrp">   -579.03367982 </i>
    <i name="e_0_energy">   -579.03367982 </i>
   </energy>
  </scstep>
  <scstep>
   <time name="dav">   26.03   26.03</time>
   <time name="total">   26.78   26.78</time>
   <energy>
    <i name="e_fr_energy">   -579.09771967 </i>
    <i name="e_wo_entrp">   -579.09771967 </i>
    <i name="e_0_energy">   -579.09771967 </i>
   </energy>
  </scstep>
  <scstep>
   <time name="dav">   27.08   27.08</time>
   <time name="total">   27.83   27.84</time>
   <energy>
    <i name="e_fr_energy">   -579.10003937 </i>
    <i name="e_wo_entrp">   -579.10003937 </i>
    <i name="e_0_energy">   -579.10003937 </i>
   </energy>
  </scstep>
  <scstep>
   <time name="dav">   25.32   25.33</time>
   <time name="total">   26.08   26.08</time>
   <energy>
    <i name="e_fr_energy">   -579.10053868 </i>
    <i name="e_wo_entrp">   -579.10053868 </i>
    <i name="e_0_energy">   -579.10053868 </i>
   </energy>
  </scstep>
  <scstep>
   <time name="dav">   27.01   27.01</time>
   <time name="total">   27.76   27.76</time>
   <energy>
    <i name="e_fr_energy">   -579.10055512 </i>
    <i name="e_wo_entrp">   -579.10055512 </i>
    <i name="e_0_energy">   -579.10055512 </i>
   </energy>
  </scstep>
  <scstep>
   <time name="dav">   26.56   26.56</time>
   <time name="total">   27.32   27.32</time>
   <energy>
    <i name="e_fr_energy">   -579.10055539 </i>
    <i name="e_wo_entrp">   -579.10055539 </i>
    <i name="e_0_energy">   -579.10055539 </i>
   </energy>
  </scstep>
  <scstep>
   <time name="dav">   22.32   22.32</time>
   <time name="total">   23.08   23.08</time>
   <energy>
    <i name="e_fr_energy">   -579.10055541 </i>
    <i name="e_wo_entrp">   -579.10055541 </i>
    <i name="e_0_energy">   -579.10055541 </i>
   </energy>
  </scstep>
  <scstep>
   <time name="dav">   20.59   20.59</time>
   <time name="total">   21.35   21.36</time>
   <energy>
    <i name="e_fr_energy">   -579.10055546 </i>
    <i name="e_wo_entrp">   -579.10055546 </i>
    <i name="e_0_energy">   -579.10055546 </i>
   </energy>
  </scstep>
  <scstep>
   <time name="dav">   19.00   19.00</time>
   <time name="total">   19.10   19.10</time>
   <energy>
    <i name="alphaZ">    903.76514330 </i>
    <i name="ewald"> -11061.68602274 </i>
    <i name="hartreedc">   -858.48781450 </i>
    <i name="XCdc">    937.85540435 </i>
    <i name="pawpsdc">   4154.62284842 </i>
    <i name="pawaedc">  -4235.31555415 </i>
    <i name="eentropy">     -0.00000000 </i>
    <i name="bandstr">    164.00311207 </i>
    <i name="atom">   9416.14232778 </i>
    <i name="e_fr_energy">   -579.10055546 </i>
    <i name="e_wo_entrp">   -579.10055546 </i>
    <i name="e_0_energy">   -579.10055546 </i>
   </energy>
  </scstep>
  <structure>
   <crystal>
    <varray name="basis" >
     <v>       7.17999872       0.00000000       0.00000000 </v>
     <v>       0.28719915       7.17425265       0.00000000 </v>
     <v>       0.28719915       0.27593202       7.16894456 </v>
    </varray>
    <i name="volume">    369.28039792 </i>
    <varray name="rec_basis" >
     <v>       0.13927579      -0.00557548      -0.00536501 </v>
     <v>       0.00000000       0.13938734      -0.00536501 </v>
     <v>       0.00000000       0.00000000       0.13949055 </v>
    </varray>
   </crystal>
   <varray name="positions" >
    <v>       0.12500000       0.37500000       0.12500000 </v>
    <v>       0.62500000       0.37500000       0.12500000 </v>
    <v>       0.12500000       0.87500000       0.12500000 </v>
    <v>       0.62500000       0.87500000       0.12500000 </v>
    <v>       0.12500000       0.37500000       0.62500000 </v>
    <v>       0.62500000       0.37500000       0.62500000 </v>
    <v>       0.12500000       0.87500000       0.62500000 </v>
    <v>       0.62500000       0.87500000       0.62500000 </v>
    <v>       0.00000000       0.00000000       0.25000000 </v>
    <v>       0.50000000       0.00000000       0.25000000 </v>
    <v>       0.00000000       0.50000000       0.25000000 </v>
    <v>       0.50000000       0.50000000       0.25000000 </v>
    <v>       0.00000000       0.00000000       0.75000000 </v>
    <v>       0.50000000       0.00000000       0.75000000 </v>
    <v>       0.00000000       0.50000000       0.75000000 </v>
    <v>       0.50000000       0.50000000       0.75000000 </v>
    <v>       0.12500000       0.12500000       0.37500000 </v>
    <v>       0.62500000       0.12500000       0.37500000 </v>
    <v>       0.12500000       0.62500000       0.37500000 </v>
    <v>       0.62500000       0.62500000       0.37500000 </v>
    <v>       0.12500000       0.12500000       0.87500000 </v>
    <v>       0.62500000       0.12500000       0.87500000 </v>
    <v>       0.12500000       0.62500000       0.87500000 </v>
    <v>       0.62500000       0.62500000       0.87500000 </v>
    <v>       0.00000000       0.25000000       0.00000000 </v>
    <v>       0.50000000       0.25000000       0.00000000 </v>
    <v>       0.00000000       0.75000000       0.00000000 </v>
    <v>       0.50000000       0.75000000       0.00000000 </v>
    <v>       0.00000000       0.25000000       0.50000000 </v>
    <v>       0.50000000       0.25000000       0.50000000 </v>
    <v>       0.00000000       0.75000000       0.50000000 </v>
    <v>       0.50000000       0.75000000       0.50000000 </v>
    <v>       0.37500000       0.37500000       0.37500000 </v>
    <v>       0.87500000       0.37500000       0.37500000 </v>
    <v>       0.37500000       0.87500000       0.37500000 </v>
    <v>       0.87500000       0.87500000       0.37500000 </v>
    <v>       0.37500000       0.37500000       0.87500000 </v>
    <v>       0.87500000       0.37500000       0.87500000 </v>
    <v>       0.37500000       0.87500000       0.87500000 </v>
    <v>       0.87500000       0.87500000       0.87500000 </v>
    <v>       0.25000000       0.00000000       0.00000000 </v>
    <v>       0.75000000       0.00000000       0.00000000 </v>
    <v>       0.25000000       0.50000000       0.00000000 </v>
    <v>       0.75000000       0.50000000       0.00000000 </v>
    <v>       0.25000000       0.00000000       0.50000000 </v>
    <v>       0.75000000       0.00000000       0.50000000 </v>
    <v>       0.25000000       0.50000000       0.50000000 </v>
    <v>       0.75000000       0.50000000       0.50000000 </v>
    <v>       0.37500000       0.12500000       0.12500000 </v>
    <v>       0.87500000       0.12500000       0.12500000 </v>
    <v>       0.37500000       0.62500000       0.12500000 </v>
    <v>       0.87500000       0.62500000       0.12500000 </v>
    <v>       0.37500000       0.12500000       0.62500000 </v>
    <v>       0.87500000       0.12500000       0.62500000 </v>
    <v>       0.37500000       0.62500000       0.62500000 </v>
    <v>       0.87500000       0.62500000       0.62500000 </v>
    <v>       0.25000000       0.25000000       0.25000000 </v>
    <v>       0.75000000       0.25000000       0.25000000 </v>
    <v>       0.25000000       0.75000000       0.25000000 </v>
    <v>       0.75000000       0.75000000       0.25000000 </v>
    <v>       0.25000000       0.25000000       0.75000000 </v>
    <v>       0.75000000       0.25000000       0.75000000 </v>
    <v>       0.25000000       0.75000000       0.75000000 </v>
    <v>       0.75000000       0.75000000       0.75000000 </v>
   </varray>
  </structure>
  <varray name="forces" >
   <v>       0.02735296       0.02627988       0.02528783 </v>
   <v>       0.02735296       0.02627988       0.02528783 </v>
   <v>       0.02735296       0.02627988       0.02528783 </v>
   <v>       0.02735296       0.02627988       0.02528783 </v>
   <v>       0.02735296       0.02627988       0.02528783 </v>
   <v>       0.02735296       0.02627988       0.02528783 </v>
   <v>       0.02735296       0.02627988       0.02528783 </v>
   <v>       0.02735296       0.02627988       0.02528783 </v>
   <v>      -0.02735296      -0.02627988      -0.02528783 </v>
   <v>      -0.02735296      -0.02627988      -0.02528783 </v>
   <v>      -0.02735296      -0.02627988      -0.02528783 </v>
   <v>      -0.02735296      -0.02627988      -0.02528783 </v>
   <v>      -0.02735296      -0.02627988      -0.02528783 </v>
   <v>      -0.02735296      -0.02627988      -0.02528783 </v>
   <v>      -0.02735296      -0.02627988      -0.02528783 </v>
   <v>      -0.02735296      -0.02627988      -0.02528783 </v>
   <v>       0.02735296       0.02627988       0.02528783 </v>
   <v>       0.02735296       0.02627988       0.02528783 </v>
   <v>       0.02735296       0.02627988       0.02528783 </v>
   <v>       0.02735296       0.02627988       0.02528783 </v>
   <v>       0.02735296       0.02627988       0.02528783 </v>
   <v>       0.02735296       0.02627988       0.02528783 </v>
   <v>       0.02735296       0.02627988       0.02528783 </v>
   <v>       0.02735296       0.02627988       0.02528783 </v>
   <v>      -0.02735296      -0.02627988      -0.02528783 </v>
   <v>      -0.02735296      -0.02627988      -0.02528783 </v>
   <v>      -0.02735296      -0.02627988      -0.02528783 </v>
   <v>      -0.02735296      -0.02627988      -0.02528783 </v>
   <v>      -0.02735296      -0.02627988      -0.02528783 </v>
   <v>      -0.02735296      -0.02627988      -0.02528783 </v>
   <v>      -0.02735296      -0.02627988      -0.02528783 </v>
   <v>      -0.02735296      -0.02627988      -0.02528783 </v>
   <v>       0.02735296       0.02627988       0.02528783 </v>
   <v>       0.02735296       0.02627988       0.02528783 </v>
   <v>       0.02735296       0.02627988       0.02528783 </v>
   <v>       0.02735296       0.02627988       0.02528783 </v>
   <v>       0.02735296       0.02627988       0.02528783 </v>
   <v>       0.02735296       0.02627988       0.02528783 </v>
   <v>       0.02735296       0.02627988       0.02528783 </v>
   <v>       0.02735296       0.02627988       0.02528783 </v>
   <v>      -0.02735296      -0.02627988      -0.02528783 </v>
   <v>      -0.02735296      -0.02627988      -0.02528783 </v>
   <v>      -0.02735296      -0.02627988      -0.02528783 </v>
   <v>      -0.02735296      -0.02627988      -0.02528783 </v>
   <v>      -0.02735296      -0.02627988      -0.02528783 </v>
   <v>      -0.02735296      -0.02627988      -0.02528783 </v>
   <v>      -0.02735296      -0.02627988      -0.02528783 </v>
   <v>      -0.02735296      -0.02627988      -0.02528783 </v>
   <v>       0.02735296       0.02627988       0.02528783 </v>
   <v>       0.02735296       0.02627988       0.02528783 </v>
   <v>       0.02735296       0.02627988       0.02528783 </v>
   <v>       0.02735296       0.02627988       0.02528783 </v>
   <v>       0.02735296       0.02627988       0.02528783 </v>
   <v>       0.02735296       0.02627988       0.02528783 </v>
   <v>       0.02735296       0.02627988       0.02528783 </v>
   <v>       0.02735296       0.02627988       0.02528783 </v>
   <v>      -0.02735296      -0.02627988      -0.02528783 </v>
   <v>      -0.02735296      -0.02627988      -0.02528783 </v>
   <v>      -0.02735296      -0.02627988      -0.02528783 </v>
   <v>      -0.02735296      -0.02627988      -0.02528783 </v>
   <v>      -0.02735296      -0.02627988      -0.02528783 </v>
   <v>      -0.02735296      -0.02627988      -0.02528783 </v>
   <v>      -0.02735296      -0.02627988      -0.02528783 </v>
   <v>      -0.02735296      -0.02627988      -0.02528783 </v>
  </varray>
  <varray name="stress" >
   <v>     -88.76558460    -215.21743817    -207.09310597 </v>
   <v>    -215.21743817     -71.53444995    -198.96864779 </v>
   <v>    -207.09310597    -198.96864779     -56.21788370 </v>
  </varray>
  <energy>
   <i name="e_fr_energy">   -579.10055546 </i>
   <i name="e_wo_entrp">   -579.10055546 </i>
   <i name="e_0_energy">     -0.00000000 </i>
  </energy>
  <kpoints>
   <generation param="Gamma">
    <v type="int" name="divisions">       6        6        6 </v>
    <v name="usershift">      0.00000000       0.00000000       0.00000000 </v>
    <v name="genvec1">      0.16666667       0.00000000       0.00000000 </v>
    <v name="genvec2">      0.00000000       0.16666667       0.00000000 </v>
    <v name="genvec3">      0.00000000       0.00000000       0.16666667 </v>
    <v name="shift">      0.00000000       0.00000000       0.00000000 </v>
   </generation>
   <varray name="kpointlist" >
    <v>       0.00000000       0.00000000       0.00000000 </v>
    <v>       0.16666667      -0.00000000       0.00000000 </v>
    <v>       0.33333333      -0.00000000      -0.00000000 </v>
    <v>       0.50000000       0.00000000      -0.00000000 </v>
    <v>       0.00000000       0.16666667       0.00000000 </v>
    <v>       0.16666667       0.16666667       0.00000000 </v>
    <v>       0.33333333       0.16666667       0.00000000 </v>
    <v>       0.50000000       0.16666667      -0.00000000 </v>
    <v>      -0.33333333       0.16666667       0.00000000 </v>
    <v>      -0.16666667       0.16666667      -0.00000000 </v>
    <v>       0.00000000       0.33333333       0.00000000 </v>
    <v>       0.16666667       0.33333333       0.00000000 </v>
    <v>       0.33333333       0.33333333       0.00000000 </v>
    <v>       0.50000000       0.33333333       0.00000000 </v>
    <v>      -0.33333333       0.33333333       0.00000000 </v>
    <v>      -0.16666667       0.33333333       0.00000000 </v>
    <v>       0.00000000       0.50000000       0.00000000 </v>
    <v>       0.16666667       0.50000000       0.00000000 </v>
    <v>       0.33333333       0.50000000       0.00000000 </v>
    <v>       0.50000000       0.50000000       0.00000000 </v>
    <v>       0.00000000       0.16666667       0.16666667 </v>
    <v>       0.16666667       0.16666667       0.16666667 </v>
    <v>       0.33333333       0.16666667       0.16666667 </v>
    <v>       0.50000000       0.16666667       0.16666667 </v>
    <v>      -0.33333333       0.16666667       0.16666667 </v>
    <v>      -0.16666667       0.16666667       0.16666667 </v>
    <v>       0.00000000       0.33333333       0.16666667 </v>
    <v>       0.16666667       0.33333333       0.16666667 </v>
    <v>       0.33333333       0.33333333       0.16666667 </v>
    <v>       0.50000000       0.33333333       0.16666667 </v>
    <v>      -0.33333333       0.33333333       0.16666667 </v>
    <v>      -0.16666667       0.33333333       0.16666667 </v>
    <v>       0.00000000       0.50000000       0.16666667 </v>
    <v>       0.16666667       0.50000000       0.16666667 </v>
    <v>       0.33333333       0.50000000       0.16666667 </v>
    <v>       0.50000000       0.50000000       0.16666667 </v>
    <v>      -0.33333333       0.50000000       0.16666667 </v>
    <v>      -0.16666667       0.50000000       0.16666667 </v>
    <v>       0.00000000      -0.33333333       0.16666667 </v>
    <v>       0.16666667      -0.33333333       0.16666667 </v>
    <v>       0.33333333      -0.33333333       0.16666667 </v>
    <v>       0.50000000      -0.33333333       0.16666667 </v>
    <v>      -0.33333333      -0.33333333       0.16666667 </v>
    <v>      -0.16666667      -0.33333333       0.16666667 </v>
    <v>       0.00000000      -0.16666667       0.16666667 </v>
    <v>       0.16666667      -0.16666667       0.16666667 </v>
    <v>       0.33333333      -0.16666667       0.16666667 </v>
    <v>       0.50000000      -0.16666667       0.16666667 </v>
    <v>       0.00000000       0.33333333       0.33333333 </v>
    <v>       0.16666667       0.33333333       0.33333333 </v>
    <v>       0.33333333       0.33333333       0.33333333 </v>
    <v>       0.50000000       0.33333333       0.33333333 </v>
    <v>      -0.33333333       0.33333333       0.33333333 </v>
    <v>      -0.16666667       0.33333333       0.33333333 </v>
    <v>       0.00000000       0.50000000       0.33333333 </v>
    <v>       0.16666667       0.50000000       0.33333333 </v>
    <v>       0.33333333       0.50000000       0.33333333 </v>
    <v>       0.50000000       0.50000000       0.33333333 </v>
    <v>      -0.33333333       0.50000000       0.33333333 </v>
    <v>      -0.16666667       0.50000000       0.33333333 </v>
    <v>       0.00000000      -0.33333333       0.33333333 </v>
    <v>       0.16666667      -0.33333333       0.33333333 </v>
    <v>       0.33333333      -0.33333333       0.33333333 </v>
    <v>       0.50000000      -0.33333333       0.33333333 </v>
    <v>       0.00000000       0.50000000       0.50000000 </v>
    <v>       0.16666667       0.50000000       0.50000000 </v>
    <v>       0.33333333       0.50000000       0.50000000 </v>
    <v>       0.50000000       0.50000000       0.50000000 </v>
   </varray>
   <varray name="weights" >
    <v>       0.00462963 </v>
    <v>       0.00925926 </v>
    <v>       0.00925926 </v>
    <v>       0.00462963 </v>
    <v>       0.01851852 </v>
    <v>       0.01851852 </v>
    <v>       0.01851852 </v>
    <v>       0.01851852 </v>
    <v>       0.01851852 </v>
    <v>       0.01851852 </v>
    <v>       0.01851852 </v>
    <v>       0.01851852 </v>
    <v>       0.01851852 </v>
    <v>       0.01851852 </v>
    <v>       0.01851852 </v>
    <v>       0.01851852 </v>
    <v>       0.00925926 </v>
    <v>       0.01851852 </v>
    <v>       0.01851852 </v>
    <v>       0.00925926 </v>
    <v>       0.00925926 </v>
    <v>       0.00925926 </v>
    <v>       0.00925926 </v>
    <v>       0.00925926 </v>
    <v>       0.00925926 </v>
    <v>       0.00925926 </v>
    <v>       0.01851852 </v>
    <v>       0.01851852 </v>
    <v>       0.01851852 </v>
    <v>       0.01851852 </v>
    <v>       0.01851852 </v>
    <v>       0.01851852 </v>
    <v>       0.01851852 </v>
    <v>       0.01851852 </v>
    <v>       0.01851852 </v>
    <v>       0.01851852 </v>
    <v>       0.01851852 </v>
    <v>       0.01851852 </v>
    <v>       0.01851852 </v>
    <v>       0.01851852 </v>
    <v>       0.01851852 </v>
    <v>       0.01851852 </v>
    <v>       0.01851852 </v>
    <v>       0.01851852 </v>
    <v>       0.00925926 </v>
    <v>       0.01851852 </v>
    <v>       0.01851852 </v>
    <v>       0.00925926 </v>
    <v>       0.00925926 </v>
    <v>       0.00925926 </v>
    <v>       0.00925926 </v>
    <v>       0.00925926 </v>
    <v>       0.00925926 </v>
    <v>       0.00925926 </v>
    <v>       0.01851852 </v>
    <v>       0.01851852 </v>
    <v>       0.01851852 </v>
    <v>       0.01851852 </v>
    <v>       0.01851852 </v>
    <v>       0.01851852 </v>
    <v>       0.00925926 </v>
    <v>       0.01851852 </v>
    <v>       0.01851852 </v>
    <v>       0.00925926 </v>
    <v>       0.00462963 </v>
    <v>       0.00925926 </v>
    <v>       0.00925926 </v>
    <v>       0.00462963 </v>
   </varray>
  </kpoints>
  <scstep>
   <time name="total">   56.04   56.04</time>
   <energy>
    <i name="e_fr_energy">   -362.96714758 </i>
    <i name="e_wo_entrp">   -362.96714758 </i>
    <i name="e_0_energy">   -362.96714758 </i>
   </energy>
  </scstep>
  <scstep>
   <time name="total">   41.96   41.96</time>
   <energy>
    <i name="e_fr_energy">   -308.94328224 </i>
    <i name="e_wo_entrp">   -308.94328224 </i>
    <i name="e_0_energy">   -308.94328224 </i>
   </energy>
  </scstep>
  <scstep>
   <time name="total">   42.58   42.58</time>
   <energy>
    <i name="e_fr_energy">   -308.57122720 </i>
    <i name="e_wo_entrp">   -308.57122720 </i>
    <i name="e_0_energy">   -308.57122720 </i>
   </energy>
  </scstep>
  <scstep>
   <time name="total">   42.98   42.99</time>
   <energy>
    <i name="e_fr_energy">   -309.21446302 </i>
    <i name="e_wo_entrp">   -309.21446302 </i>
    <i name="e_0_energy">   -309.21446302 </i>
   </energy>
  </scstep>
  <scstep>
   <time name="total">   43.11   43.12</time>
   <energy>
    <i name="e_fr_energy">   -309.42052916 </i>
    <i name="e_wo_entrp">   -309.42052916 </i>
    <i name="e_0_energy">   -309.42052916 </i>
   </energy>
  </scstep>
  <scstep>
   <time name="total">   43.63   43.63</time>
   <energy>
    <i name="e_fr_energy">   -309.37776547 </i>
    <i name="e_wo_entrp">   -309.37776547 </i>
    <i name="e_0_energy">   -309.37776547 </i>
   </energy>
  </scstep>
  <scstep>
   <time name="total">   43.55   43.55</time>
   <energy>
    <i name="e_fr_energy">   -309.35656014 </i>
    <i name="e_wo_entrp">   -309.35656014 </i>
    <i name="e_0_energy">   -309.35656014 </i>
   </energy>
  </scstep>
  <scstep>
   <time name="total">   44.77   44.77</time>
   <energy>
    <i name="e_fr_energy">   -309.35524127 </i>
    <i name="e_wo_entrp">   -309.35524127 </i>
    <i name="e_0_energy">   -309.35524127 </i>
   </energy>
  </scstep>
  <scstep>
   <time name="total">   46.51   46.51</time>
   <energy>
    <i name="e_fr_energy">   -309.35478326 </i>
    <i name="e_wo_entrp">   -309.35478326 </i>
    <i name="e_0_energy">   -309.35478326 </i>
   </energy>
  </scstep>
  <scstep>
   <time name="total">   47.01   47.01</time>
   <energy>
    <i name="e_fr_energy">   -309.35495348 </i>
    <i name="e_wo_entrp">   -309.35495348 </i>
    <i name="e_0_energy">   -309.35495348 </i>
   </energy>
  </scstep>
  <scstep>
   <time name="total">   47.34   47.34</time>
   <energy>
    <i name="e_fr_energy">   -309.35498068 </i>
    <i name="e_wo_entrp">   -309.35498068 </i>
    <i name="e_0_energy">   -309.35498068 </i>
   </energy>
  </scstep>
  <scstep>
   <time name="total">   47.14   47.14</time>
   <energy>
    <i name="e_fr_energy">   -309.35497926 </i>
    <i name="e_wo_entrp">   -309.35497926 </i>
    <i name="e_0_energy">   -309.35497926 </i>
   </energy>
  </scstep>
  <kpoints>
   <generation param="Gamma">
    <v type="int" name="divisions">       6        6        6 </v>
    <v name="usershift">      0.00000000       0.00000000       0.00000000 </v>
    <v name="genvec1">      0.16666667       0.00000000       0.00000000 </v>
    <v name="genvec2">      0.00000000       0.16666667       0.00000000 </v>
    <v name="genvec3">      0.00000000       0.00000000       0.16666667 </v>
    <v name="shift">      0.00000000       0.00000000       0.00000000 </v>
   </generation>
   <varray name="kpointlist" >
    <v>       0.00000000       0.00000000       0.00000000 </v>
    <v>       0.16666667      -0.00000000       0.00000000 </v>
    <v>       0.33333333      -0.00000000      -0.00000000 </v>
    <v>       0.50000000       0.00000000      -0.00000000 </v>
    <v>       0.16666667       0.16666667       0.00000000 </v>
    <v>       0.33333333       0.16666667       0.00000000 </v>
    <v>       0.50000000       0.16666667      -0.00000000 </v>
    <v>      -0.33333333       0.16666667       0.00000000 </v>
    <v>      -0.16666667       0.16666667      -0.00000000 </v>
    <v>       0.33333333       0.33333333       0.00000000 </v>
    <v>       0.50000000       0.33333333       0.00000000 </v>
    <v>      -0.33333333       0.33333333       0.00000000 </v>
    <v>       0.50000000       0.50000000       0.00000000 </v>
    <v>       0.16666667       0.16666667       0.16666667 </v>
    <v>       0.33333333       0.16666667       0.16666667 </v>
    <v>       0.50000000       0.16666667       0.16666667 </v>
    <v>      -0.33333333       0.16666667       0.16666667 </v>
    <v>      -0.16666667       0.16666667       0.16666667 </v>
    <v>       0.33333333       0.33333333       0.16666667 </v>
    <v>       0.50000000       0.33333333       0.16666667 </v>
    <v>      -0.33333333       0.33333333       0.16666667 </v>
    <v>      -0.16666667       0.33333333       0.16666667 </v>
    <v>       0.50000000       0.50000000       0.16666667 </v>
    <v>      -0.33333333       0.50000000       0.16666667 </v>
    <v>      -0.16666667       0.50000000       0.16666667 </v>
    <v>      -0.33333333      -0.33333333       0.16666667 </v>
    <v>       0.33333333       0.33333333       0.33333333 </v>
    <v>       0.50000000       0.33333333       0.33333333 </v>
    <v>      -0.33333333       0.33333333       0.33333333 </v>
    <v>       0.50000000       0.50000000       0.33333333 </v>
    <v>      -0.33333333       0.50000000       0.33333333 </v>
    <v>       0.50000000       0.50000000       0.50000000 </v>
   </varray>
   <varray name="weights" >
    <v>       0.00462963 </v>
    <v>       0.02777778 </v>
    <v>       0.02777778 </v>
    <v>       0.01388889 </v>
    <v>       0.02777778 </v>
    <v>       0.05555556 </v>
    <v>       0.05555556 </v>
    <v>       0.05555556 </v>
    <v>       0.02777778 </v>
    <v>       0.02777778 </v>
    <v>       0.05555556 </v>
    <v>       0.02777778 </v>
    <v>       0.01388889 </v>
    <v>       0.00925926 </v>
    <v>       0.02777778 </v>
    <v>       0.02777778 </v>
    <v>       0.02777778 </v>
    <v>       0.02777778 </v>
    <v>       0.02777778 </v>
    <v>       0.05555556 </v>
    <v>       0.05555556 </v>
    <v>       0.05555556 </v>
    <v>       0.02777778 </v>
    <v>       0.05555556 </v>
    <v>       0.02777778 </v>
    <v>       0.02777778 </v>
    <v>       0.00925926 </v>
    <v>       0.02777778 </v>
    <v>       0.02777778 </v>
    <v>       0.02777778 </v>
    <v>       0.02777778 </v>
    <v>       0.00462963 </v>
   </varray>
  </kpoints>
  <dynmat>
   <varray name="hessian" >
    <v>      -3.56647106       0.29504614       0.28390832       0.01359212       0.00038780       0.00037317       0.00772660       0.00062261      -0.00009798       0.00949757      -0.00198718      -0.00060597       0.00772660      -0.00007396       0.00062592       0.00949757      -0.00068195      -0.00196240      -0.04659895       0.00156370       0.00150467       0.00445073       0.00046734       0.00044970      -0.01094292      -0.00527511       0.00057823       0.00796018      -0.01196961      -0.01841559       0.77188080      -0.22177071      -0.21339900      -0.00930014      -0.00925424      -0.00890489       0.02321203      -0.01791129      -0.01723515      -0.00270133      -0.00282597      -0.00271930      -0.01094292       0.00037491      -0.00529345       0.00796018      -0.01886233      -0.01125247      -0.11898454       0.06407061      -0.06235727      -0.00489314       0.00341841      -0.00224803      -0.10789588       0.06448706       0.06205271      -0.00374624       0.00432134       0.00415821      -0.10789588      -0.04259652      -0.04098853      -0.00374624      -0.00251597      -0.00242099      -0.11898454      -0.05984688       0.06642155      -0.00489314      -0.00211489       0.00350234       0.58272046      -0.00883138      -0.00849800      -0.00511339       0.00942098       0.00906534      -0.01210918       0.00970103      -0.00270147       0.00701139       0.00590149       0.01536571      -0.01210918      -0.00232636       0.00979776       0.00701139       0.01558132       0.00530614       0.02961798       0.01467634       0.01412231      -0.00199580       0.00262937       0.00253011       0.11790770      -0.05163588       0.11795905       0.13070437      -0.06984241      -0.14327162       0.00680904      -0.00293852      -0.00544489       0.00702725      -0.00259208       0.00673054       0.13070437       0.05407508      -0.14402528       0.11790770       0.05544770       0.11383742       0.00702725       0.00294121       0.00691349       0.00680904       0.00389879      -0.00570806      -0.01497000       0.00681941       0.00027404       0.00115464       0.00401963      -0.01719562       0.79876750       0.21763439      -0.23138879      -0.00356542       0.00636286      -0.00581948       0.03002693       0.01775353      -0.02044366      -0.00320669       0.00194866      -0.00288282      -0.01286196      -0.00431110      -0.00895246       0.00948773       0.01857576      -0.01275465       0.13070437      -0.14183891       0.05957449       0.11790770       0.11588578       0.05102833       0.11790770       0.11588578      -0.05613454       0.13070437      -0.14585185      -0.06428030       0.00702725       0.00702150       0.00267313       0.00680904      -0.00555388       0.00411545       0.00680904      -0.00555388      -0.00272693       0.00702725       0.00662587      -0.00284903       0.79876750      -0.22284704       0.22637291      -0.00356542      -0.00557045       0.00658198      -0.01286196      -0.00911165      -0.00396359       0.00948773      -0.01203077       0.01905257      -0.01497000       0.00053612       0.00680382       0.00115464      -0.01702829       0.00467802       0.03002693      -0.01974570       0.01852669      -0.00320669      -0.00280574       0.00205809 </v>
    <v>       0.29504614      -3.59009379       0.27277034       0.00038780       0.00768616      -0.00011300       0.00062261       0.01355167       0.00037739      -0.00198718       0.00965667      -0.00058219      -0.00007396       0.00773253       0.00060137      -0.00068195      -0.04663425       0.00158444       0.00156370       0.00946227      -0.00202421       0.00046734       0.00441331       0.00043206      -0.00527511      -0.00313126       0.00656410      -0.01196961       0.01044851       0.01980505      -0.22177071       0.81656644       0.23509700      -0.00925424      -0.01212674      -0.00361028      -0.01791129       0.00255334       0.00537172      -0.00282597      -0.00298125       0.00216860       0.00037491      -0.01500647       0.00702118      -0.01886233       0.03157248       0.01899199      -0.05984688       0.13093543      -0.14089010      -0.00211489       0.00699418       0.00682592      -0.04259652       0.11739325       0.11556945      -0.00251597       0.00675368      -0.00561571       0.06448706       0.11739325       0.11556945       0.00432134       0.00675368      -0.00561571       0.06407061       0.13093543      -0.14679963       0.00341841       0.00699418       0.00677882      -0.00883138       0.58342757      -0.00816462       0.00942098      -0.01287467      -0.00306654       0.00970103      -0.00587888       0.00918075       0.00590149       0.00653890       0.01476290      -0.00232636      -0.01192292       0.00941338       0.01558132       0.02840671       0.01392121       0.01467634       0.00580012       0.00474504       0.00262937      -0.00220631       0.00243085       0.05544770      -0.10841034       0.05738028       0.05407508      -0.11875349      -0.05667178       0.00389879      -0.00380160       0.00437951       0.00294121      -0.00492622      -0.00251927      -0.06984241      -0.11875349       0.07224036      -0.05163588      -0.10841034      -0.04557849      -0.00259208      -0.00492622       0.00322838      -0.00293852      -0.00380160      -0.00219443       0.00681941      -0.00409314      -0.00583511       0.00401963       0.00083282      -0.01652102       0.21763439       0.78134289      -0.22231119       0.00636286      -0.01549771       0.00050723       0.01775353       0.00803340      -0.01194647       0.00194866      -0.00336271      -0.00276973      -0.00431110      -0.01251680      -0.00860125       0.01857576       0.02857260      -0.01994944      -0.14585185       0.14222119      -0.06671667       0.11588578       0.10862944       0.04902644       0.11588578       0.10862944      -0.05393233      -0.14183891       0.14222119       0.06219547       0.00662587       0.00648092      -0.00295833      -0.00555388       0.00725370       0.00395399      -0.00555388       0.00725370      -0.00261995       0.00702150       0.00648092       0.00278932      -0.22284704       0.78967975      -0.22263208      -0.00557045      -0.01050875       0.00031520      -0.00911165      -0.00856492      -0.00875336      -0.01203077       0.00892096      -0.01919305       0.00053612      -0.01097939      -0.00557006      -0.01702829       0.02461073      -0.01743623      -0.01974570       0.00950573      -0.01200314      -0.00280574      -0.00247588      -0.00280386 </v>
    <v>       0.28390832       0.27277034      -3.61109185       0.00037317      -0.00011300       0.00769486      -0.00009798       0.00037739       0.00769486      -0.00060597      -0.00058219      -0.04667283       0.00062592       0.00060137       0.01351400      -0.00196240       0.00158444       0.00961809       0.00150467      -0.00202421       0.00961809       0.00044970       0.00043206       0.00438005       0.00057823       0.00656410      -0.01552936      -0.01841559       0.01980505       0.03007919      -0.21339900       0.23509700       0.79846877      -0.00890489      -0.00361028      -0.01184882      -0.01723515       0.00537172       0.00213983      -0.00271930       0.00216860      -0.00314818      -0.00529345       0.00702118      -0.00365415      -0.01125247       0.01899199       0.00895522       0.06642155      -0.14679963       0.14200859       0.00350234       0.00677882       0.00647053      -0.04098853       0.11556945       0.10849674      -0.00242099      -0.00561571       0.00718598       0.06205271       0.11556945       0.10849674       0.00415821      -0.00561571       0.00718598      -0.06235727      -0.14089010       0.14200859      -0.00224803       0.00682592       0.00647053      -0.00849800      -0.00816462       0.58405612       0.00906534      -0.00306654      -0.01263861      -0.00270147       0.00918075      -0.01263861       0.01536571       0.01476290       0.02730266       0.00979776       0.00941338      -0.00659457       0.00530614       0.01392121       0.00543485       0.01412231       0.00474504       0.00543485       0.00253011       0.00243085      -0.00239344       0.11383742      -0.04557849       0.10849674      -0.14402528       0.07224036       0.14200859      -0.00570806      -0.00219443       0.00718598       0.00691349       0.00322838       0.00647053      -0.14327162      -0.05667178       0.14200859       0.11795905       0.05738028       0.10849674       0.00673054      -0.00251927       0.00647053      -0.00544489       0.00437951       0.00718598       0.00027404      -0.00583511      -0.01054041      -0.01719562      -0.01652102       0.02591775      -0.23138879      -0.22231119       0.80680563      -0.00581948       0.00050723      -0.01054041      -0.02044366      -0.01194647       0.01042755      -0.00288282      -0.00276973      -0.00226136      -0.00895246      -0.00860125      -0.00789694      -0.01275465      -0.01994944       0.01042755      -0.06428030       0.06219547      -0.11896610      -0.05613454      -0.05393233      -0.10854306       0.05102833       0.04902644      -0.10854306       0.05957449      -0.06671667      -0.11896610      -0.00284903       0.00278932      -0.00493662      -0.00272693      -0.00261995      -0.00386933       0.00411545       0.00395399      -0.00386933       0.00267313      -0.00295833      -0.00493662       0.22637291      -0.22263208       0.79846877       0.00658198       0.00031520      -0.01552936      -0.00396359      -0.00875336      -0.01184882       0.01905257      -0.01919305       0.03007919       0.00680382      -0.00557006      -0.00365415       0.00467802      -0.01743623       0.00213983       0.01852669      -0.01200314       0.00895522       0.00205809      -0.00280386      -0.00314818 </v>
    <v>       0.01359212       0.00038780       0.00037317      -3.56647106       0.29504614       0.28390832       0.00949757      -0.00198718      -0.00060597       0.00772660       0.00062261      -0.00009798       0.00949757      -0.00068195      -0.00196240       0.00772660      -0.00007396       0.00062592       0.00445073       0.00046734       0.00044970      -0.04659895       0.00156370       0.00150467       0.00796018      -0.01196961      -0.01841559      -0.01094292      -0.00527511       0.00057823      -0.00930014      -0.00925424      -0.00890489       0.77188080      -0.22177071      -0.21339900      -0.00270133      -0.00282597      -0.00271930       0.02321203      -0.01791129      -0.01723515       0.00796018      -0.01886233      -0.01125247      -0.01094292       0.00037491      -0.00529345      -0.00489314       0.00341841      -0.00224803      -0.11898454       0.06407061      -0.06235727      -0.00374624       0.00432134       0.00415821      -0.10789588       0.06448706       0.06205271      -0.00374624      -0.00251597      -0.00242099      -0.10789588      -0.04259652      -0.04098853      -0.00489314      -0.00211489       0.00350234      -0.11898454      -0.05984688       0.06642155      -0.00511339       0.00942098       0.00906534       0.58272046      -0.00883138      -0.00849800       0.00701139       0.00590149       0.01536571      -0.01210918       0.00970103      -0.00270147       0.00701139       0.01558132       0.00530614      -0.01210918      -0.00232636       0.00979776      -0.00199580       0.00262937       0.00253011       0.02961798       0.01467634       0.01412231       0.13070437      -0.06984241      -0.14327162       0.11790770      -0.05163588       0.11795905       0.00702725      -0.00259208       0.00673054       0.00680904      -0.00293852      -0.00544489       0.11790770       0.05544770       0.11383742       0.13070437       0.05407508      -0.14402528       0.00680904       0.00389879      -0.00570806       0.00702725       0.00294121       0.00691349       0.00115464       0.00401963      -0.01719562      -0.01497000       0.00681941       0.00027404      -0.00356542       0.00636286      -0.00581948       0.79876750       0.21763439      -0.23138879      -0.00320669       0.00194866      -0.00288282       0.03002693       0.01775353      -0.02044366       0.00948773       0.01857576      -0.01275465      -0.01286196      -0.00431110      -0.00895246       0.11790770       0.11588578       0.05102833       0.13070437      -0.14183891       0.05957449       0.13070437      -0.14585185      -0.06428030       0.11790770       0.11588578      -0.05613454       0.00680904      -0.00555388       0.00411545       0.00702725       0.00702150       0.00267313       0.00702725       0.00662587      -0.00284903       0.00680904      -0.00555388      -0.00272693      -0.00356542      -0.00557045       0.00658198       0.79876750      -0.22284704       0.22637291       0.00948773      -0.01203077       0.01905257      -0.01286196      -0.00911165      -0.00396359       0.00115464      -0.01702829       0.00467802      -0.01497000       0.00053612       0.00680382      -0.00320669      -0.00280574       0.00205809       0.03002693      -0.01974570       0.01852669 </v>
    <v>       0.00038780       0.00768616      -0.00011300       0.29504614      -3.59009379       0.27277034      -0.00198718       0.00965667      -0.00058219       0.00062261       0.01355167       0.00037739      -0.00068195      -0.04663425       0.00158444      -0.00007396       0.00773253       0.00060137       0.00046734       0.00441331       0.00043206       0.00156370       0.00946227      -0.00202421      -0.01196961       0.01044851       0.01980505      -0.00527511      -0.00313126       0.00656410      -0.00925424      -0.01212674      -0.00361028      -0.22177071       0.81656644       0.23509700      -0.00282597      -0.00298125       0.00216860      -0.01791129       0.00255334       0.00537172      -0.01886233       0.03157248       0.01899199       0.00037491      -0.01500647       0.00702118      -0.00211489       0.00699418       0.00682592      -0.05984688       0.13093543      -0.14089010      -0.00251597       0.00675368      -0.00561571      -0.04259652       0.11739325       0.11556945       0.00432134       0.00675368      -0.00561571       0.06448706       0.11739325       0.11556945       0.00341841       0.00699418       0.00677882       0.06407061       0.13093543      -0.14679963       0.00942098      -0.01287467      -0.00306654      -0.00883138       0.58342757      -0.00816462       0.00590149       0.00653890       0.01476290       0.00970103      -0.00587888       0.00918075       0.01558132       0.02840671       0.01392121      -0.00232636      -0.01192292       0.00941338       0.00262937      -0.00220631       0.00243085       0.01467634       0.00580012       0.00474504       0.05407508      -0.11875349      -0.05667178       0.05544770      -0.10841034       0.05738028       0.00294121      -0.00492622      -0.00251927       0.00389879      -0.00380160       0.00437951      -0.05163588      -0.10841034      -0.04557849      -0.06984241      -0.11875349       0.07224036      -0.00293852      -0.00380160      -0.00219443      -0.00259208      -0.00492622       0.00322838       0.00401963       0.00083282      -0.01652102       0.00681941      -0.00409314      -0.00583511       0.00636286      -0.01549771       0.00050723       0.21763439       0.78134289      -0.22231119       0.00194866      -0.00336271      -0.00276973       0.01775353       0.00803340      -0.01194647       0.01857576       0.02857260      -0.01994944      -0.00431110      -0.01251680      -0.00860125       0.11588578       0.10862944       0.04902644      -0.14585185       0.14222119      -0.06671667      -0.14183891       0.14222119       0.06219547       0.11588578       0.10862944      -0.05393233      -0.00555388       0.00725370       0.00395399       0.00662587       0.00648092      -0.00295833       0.00702150       0.00648092       0.00278932      -0.00555388       0.00725370      -0.00261995      -0.00557045      -0.01050875       0.00031520      -0.22284704       0.78967975      -0.22263208      -0.01203077       0.00892096      -0.01919305      -0.00911165      -0.00856492      -0.00875336      -0.01702829       0.02461073      -0.01743623       0.00053612      -0.01097939      -0.00557006      -0.00280574      -0.00247588      -0.00280386      -0.01974570       0.00950573      -0.01200314 </v>
    <v>       0.00037317      -0.00011300       0.00769486       0.28390832       0.27277034      -3.61109185      -0.00060597      -0.00058219      -0.04667283      -0.00009798       0.00037739       0.00769486      -0.00196240       0.00158444       0.00961809       0.00062592       0.00060137       0.01351400       0.00044970       0.00043206       0.00438005       0.00150467      -0.00202421       0.00961809      -0.01841559       0.01980505       0.03007919       0.00057823       0.00656410      -0.01552936      -0.00890489      -0.00361028      -0.01184882      -0.21339900       0.23509700       0.79846877      -0.00271930       0.00216860      -0.00314818      -0.01723515       0.00537172       0.00213983      -0.01125247       0.01899199       0.00895522      -0.00529345       0.00702118      -0.00365415       0.00350234       0.00677882       0.00647053       0.06642155      -0.14679963       0.14200859      -0.00242099      -0.00561571       0.00718598      -0.04098853       0.11556945       0.10849674       0.00415821      -0.00561571       0.00718598       0.06205271       0.11556945       0.10849674      -0.00224803       0.00682592       0.00647053      -0.06235727      -0.14089010       0.14200859       0.00906534      -0.00306654      -0.01263861      -0.00849800      -0.00816462       0.58405612       0.01536571       0.01476290       0.02730266      -0.00270147       0.00918075      -0.01263861       0.00530614       0.01392121       0.00543485       0.00979776       0.00941338      -0.00659457       0.00253011       0.00243085      -0.00239344       0.01412231       0.00474504       0.00543485      -0.14402528       0.07224036       0.14200859       0.11383742      -0.04557849       0.10849674       0.00691349       0.00322838       0.00647053      -0.00570806      -0.00219443       0.00718598       0.11795905       0.05738028       0.10849674      -0.14327162      -0.05667178       0.14200859      -0.00544489       0.00437951       0.00718598       0.00673054      -0.00251927       0.00647053      -0.01719562      -0.01652102       0.02591775       0.00027404      -0.00583511      -0.01054041      -0.00581948       0.00050723      -0.01054041      -0.23138879      -0.22231119       0.80680563      -0.00288282      -0.00276973      -0.00226136      -0.02044366      -0.01194647       0.01042755      -0.01275465      -0.01994944       0.01042755      -0.00895246      -0.00860125      -0.00789694      -0.05613454      -0.05393233      -0.10854306      -0.06428030       0.06219547      -0.11896610       0.05957449      -0.06671667      -0.11896610       0.05102833       0.04902644      -0.10854306      -0.00272693      -0.00261995      -0.00386933      -0.00284903       0.00278932      -0.00493662       0.00267313      -0.00295833      -0.00493662       0.00411545       0.00395399      -0.00386933       0.00658198       0.00031520      -0.01552936       0.22637291      -0.22263208       0.79846877       0.01905257      -0.01919305       0.03007919      -0.00396359      -0.00875336      -0.01184882       0.00467802      -0.01743623       0.00213983       0.00680382      -0.00557006      -0.00365415       0.00205809      -0.00280386      -0.00314818       0.01852669      -0.01200314       0.00895522 </v>
    <v>       0.00772660       0.00062261      -0.00009798       0.00949757      -0.00198718      -0.00060597      -3.56647106       0.29504614       0.28390832       0.01359212       0.00038780       0.00037317      -0.04659895       0.00156370       0.00150467       0.00445073       0.00046734       0.00044970       0.00772660      -0.00007396       0.00062592       0.00949757      -0.00068195      -0.00196240       0.77188080      -0.22177071      -0.21339900      -0.00930014      -0.00925424      -0.00890489      -0.01094292      -0.00527511       0.00057823       0.00796018      -0.01196961      -0.01841559      -0.01094292       0.00037491      -0.00529345       0.00796018      -0.01886233      -0.01125247       0.02321203      -0.01791129      -0.01723515      -0.00270133      -0.00282597      -0.00271930      -0.10789588       0.06448706       0.06205271      -0.00374624       0.00432134       0.00415821      -0.11898454       0.06407061      -0.06235727      -0.00489314       0.00341841      -0.00224803      -0.11898454      -0.05984688       0.06642155      -0.00489314      -0.00211489       0.00350234      -0.10789588      -0.04259652      -0.04098853      -0.00374624      -0.00251597      -0.00242099      -0.01210918       0.00970103      -0.00270147       0.00701139       0.00590149       0.01536571       0.58272046      -0.00883138      -0.00849800      -0.00511339       0.00942098       0.00906534       0.02961798       0.01467634       0.01412231      -0.00199580       0.00262937       0.00253011      -0.01210918      -0.00232636       0.00979776       0.00701139       0.01558132       0.00530614       0.00680904      -0.00293852      -0.00544489       0.00702725      -0.00259208       0.00673054       0.11790770      -0.05163588       0.11795905       0.13070437      -0.06984241      -0.14327162       0.00702725       0.00294121       0.00691349       0.00680904       0.00389879      -0.00570806       0.13070437       0.05407508      -0.14402528       0.11790770       0.05544770       0.11383742       0.79876750       0.21763439      -0.23138879      -0.00356542       0.00636286      -0.00581948      -0.01497000       0.00681941       0.00027404       0.00115464       0.00401963      -0.01719562      -0.01286196      -0.00431110      -0.00895246       0.00948773       0.01857576      -0.01275465       0.03002693       0.01775353      -0.02044366      -0.00320669       0.00194866      -0.00288282       0.11790770       0.11588578      -0.05613454       0.13070437      -0.14585185      -0.06428030       0.13070437      -0.14183891       0.05957449       0.11790770       0.11588578       0.05102833       0.00680904      -0.00555388      -0.00272693       0.00702725       0.00662587      -0.00284903       0.00702725       0.00702150       0.00267313       0.00680904      -0.00555388       0.00411545      -0.01286196      -0.00911165      -0.00396359       0.00948773      -0.01203077       0.01905257       0.79876750      -0.22284704       0.22637291      -0.00356542      -0.00557045       0.00658198       0.03002693      -0.01974570       0.01852669      -0.00320669      -0.00280574       0.00205809      -0.01497000       0.00053612       0.00680382       0.00115464      -0.01702829       0.00467802 </v>
[...]
      </set>
     </set>
    </set>
   </array>
  </eigenvalues>
  <separator name="orbital magnetization" >
   <v name="MAGDIPOLOUT">      0.00000000      0.00000000      0.00000000</v>
  </separator>
  <dos>
   <i name="efermi">      9.87542237 </i>
   <total>
    <array>
     <dimension dim="1">gridpoints</dimension>
     <dimension dim="2">spin</dimension>
     <field>energy</field>
     <field>total</field>
     <field>integrated</field>
     <set>
      <set comment="spin 1">
       <r>   -13.4190     0.0000     0.0000 </r>
       <r>   -13.2970     0.0000     0.0000 </r>
       <r>   -13.1751     0.0000     0.0000 </r>
       <r>   -13.0532     0.0000     0.0000 </r>
       <r>   -12.9313     0.0000     0.0000 </r>
       <r>   -12.8094     0.0000     0.0000 </r>
       <r>   -12.6874     0.0000     0.0000 </r>
       <r>   -12.5655     0.0000     0.0000 </r>
       <r>   -12.4436     0.0000     0.0000 </r>
       <r>   -12.3217     0.0000     0.0000 </r>
       <r>   -12.1998     0.0000     0.0000 </r>
       <r>   -12.0778     0.0000     0.0000 </r>
       <r>   -11.9559     0.0000     0.0000 </r>
       <r>   -11.8340     0.0028     0.0003 </r>
       <r>   -11.7121     0.2357     0.0291 </r>
       <r>   -11.5902     1.2259     0.1785 </r>
       <r>   -11.4682     1.4544     0.3558 </r>
       <r>   -11.3463     2.7628     0.6927 </r>
       <r>   -11.2244     1.6445     0.8932 </r>
       <r>   -11.1025     3.5706     1.3285 </r>
       <r>   -10.9806     2.8776     1.6793 </r>
       <r>   -10.8586     3.6175     2.1204 </r>
       <r>   -10.7367     2.6491     2.4434 </r>
       <r>   -10.6148     4.6952     3.0158 </r>
       <r>   -10.4929     4.5507     3.5706 </r>
       <r>   -10.3710     4.1625     4.0781 </r>
       <r>   -10.2490     3.1033     4.4565 </r>
       <r>   -10.1271     4.9433     5.0592 </r>
       <r>   -10.0052     6.1972     5.8147 </r>
       <r>    -9.8833     4.7743     6.3968 </r>
       <r>    -9.7614     5.4639     7.0630 </r>
       <r>    -9.6394     4.1074     7.5638 </r>
       <r>    -9.5175     5.7536     8.2652 </r>
       <r>    -9.3956     5.9328     8.9886 </r>
       <r>    -9.2737     7.0516     9.8483 </r>
       <r>    -9.1518     5.6905    10.5421 </r>
       <r>    -9.0298     6.5712    11.3432 </r>
       <r>    -8.9079     6.4281    12.1270 </r>
       <r>    -8.7860     5.0810    12.7464 </r>
       <r>    -8.6641     5.9335    13.4699 </r>
       <r>    -8.5422     9.2121    14.5930 </r>
       <r>    -8.4202     6.6323    15.4016 </r>
       <r>    -8.2983     8.1198    16.3916 </r>
       <r>    -8.1764     6.9510    17.2390 </r>
       <r>    -8.0545     7.2631    18.1246 </r>
       <r>    -7.9326     6.6128    18.9308 </r>
       <r>    -7.8106     7.8123    19.8833 </r>
       <r>    -7.6887     7.2829    20.7712 </r>
       <r>    -7.5668     9.5493    21.9355 </r>
       <r>    -7.4449    10.1632    23.1746 </r>
       <r>    -7.3230     9.9219    24.3843 </r>
       <r>    -7.2010     6.5024    25.1770 </r>
       <r>    -7.0791     7.1641    26.0505 </r>
       <r>    -6.9572    10.9874    27.3901 </r>
       <r>    -6.8353     9.2144    28.5135 </r>
       <r>    -6.7134     9.1824    29.6330 </r>
       <r>    -6.5914    12.5423    31.1622 </r>
       <r>    -6.4695     9.6940    32.3440 </r>
       <r>    -6.3476    10.3256    33.6029 </r>
       <r>    -6.2257    10.3191    34.8611 </r>
       <r>    -6.1038    12.2671    36.3567 </r>
       <r>    -5.9818    10.5135    37.6385 </r>
       <r>    -5.8599     9.9269    38.8488 </r>
       <r>    -5.7380     8.8458    39.9273 </r>
       <r>    -5.6161    11.1850    41.2909 </r>
       <r>    -5.4942    13.1856    42.8985 </r>
       <r>    -5.3722    14.3799    44.6517 </r>
       <r>    -5.2503    11.9800    46.1123 </r>
       <r>    -5.1284     9.1996    47.2339 </r>
       <r>    -5.0065    10.9541    48.5694 </r>
       <r>    -4.8845     9.2914    49.7023 </r>
       <r>    -4.7626     7.2790    50.5897 </r>
       <r>    -4.6407     7.0002    51.4432 </r>
       <r>    -4.5188    11.1317    52.8004 </r>
       <r>    -4.3969    12.1864    54.2861 </r>
       <r>    -4.2749     7.3440    55.1815 </r>
       <r>    -4.1530     7.8352    56.1368 </r>
       <r>    -4.0311    10.5999    57.4291 </r>
       <r>    -3.9092     5.2597    58.0704 </r>
       <r>    -3.7873     6.8490    58.9054 </r>
       <r>    -3.6653     8.6366    59.9584 </r>
       <r>    -3.5434     6.7333    60.7793 </r>
       <r>    -3.4215     7.1871    61.6556 </r>
       <r>    -3.2996    10.4097    62.9247 </r>
       <r>    -3.1777     7.2631    63.8102 </r>
       <r>    -3.0557     6.5049    64.6033 </r>
       <r>    -2.9338     6.6937    65.4194 </r>
       <r>    -2.8119    11.9451    66.8758 </r>
       <r>    -2.6900    11.7933    68.3136 </r>
       <r>    -2.5681     6.2614    69.0770 </r>
       <r>    -2.4461     8.5027    70.1137 </r>
       <r>    -2.3242    12.2861    71.6116 </r>
       <r>    -2.2023     9.6403    72.7869 </r>
       <r>    -2.0804    12.6784    74.3327 </r>
       <r>    -1.9585    19.6266    76.7256 </r>
       <r>    -1.8365    21.2519    79.3166 </r>
       <r>    -1.7146    16.5139    81.3300 </r>
       <r>    -1.5927    16.9390    83.3952 </r>
       <r>    -1.4708    15.1476    85.2420 </r>
       <r>    -1.3489    14.5798    87.0196 </r>
       <r>    -1.2269    16.0420    88.9754 </r>
       <r>    -1.1050    12.9742    90.5572 </r>
       <r>    -0.9831    10.9750    91.8953 </r>
       <r>    -0.8612    10.9724    93.2331 </r>
       <r>    -0.7393    10.3928    94.5001 </r>
       <r>    -0.6173     8.9166    95.5873 </r>
       <r>    -0.4954    11.6306    97.0053 </r>
       <r>    -0.3735    11.1771    98.3680 </r>
       <r>    -0.2516     9.7064    99.5514 </r>
       <r>    -0.1297    12.8319   101.1158 </r>
       <r>    -0.0077     7.5841   102.0405 </r>
       <r>     0.1142     6.6379   102.8498 </r>
       <r>     0.2361     7.0262   103.7064 </r>
       <r>     0.3580     7.8189   104.6597 </r>
       <r>     0.4799    12.4025   106.1718 </r>
       <r>     0.6019    11.3656   107.5575 </r>
       <r>     0.7238    13.5908   109.2145 </r>
       <r>     0.8457    19.5253   111.5950 </r>
       <r>     0.9676    17.8839   113.7754 </r>
       <r>     1.0895    14.2922   115.5180 </r>
       <r>     1.2115    18.0409   117.7175 </r>
       <r>     1.3334    14.1424   119.4417 </r>
       <r>     1.4553    15.3007   121.3072 </r>
       <r>     1.5772    15.1896   123.1591 </r>
       <r>     1.6991    19.1958   125.4995 </r>
       <r>     1.8211    16.2540   127.4812 </r>
       <r>     1.9430    16.1062   129.4449 </r>
       <r>     2.0649    17.6046   131.5912 </r>
       <r>     2.1868    20.2324   134.0580 </r>
       <r>     2.3087    17.7303   136.2196 </r>
       <r>     2.4307    14.0951   137.9381 </r>
       <r>     2.5526    18.5528   140.2001 </r>
       <r>     2.6745    19.6983   142.6017 </r>
       <r>     2.7964    19.9962   145.0396 </r>
       <r>     2.9183    20.8619   147.5831 </r>
       <r>     3.0403    22.5894   150.3372 </r>
       <r>     3.1622    22.6692   153.1011 </r>
       <r>     3.2841    23.5736   155.9752 </r>
       <r>     3.4060    18.2211   158.1967 </r>
       <r>     3.5279    24.8224   161.2230 </r>
       <r>     3.6499    26.9581   164.5098 </r>
       <r>     3.7718    24.1041   167.4486 </r>
       <r>     3.8937    22.9402   170.2454 </r>
       <r>     4.0156    23.6544   173.1294 </r>
       <r>     4.1375    26.5936   176.3717 </r>
       <r>     4.2595    26.6104   179.6160 </r>
       <r>     4.3814    26.0018   182.7862 </r>
       <r>     4.5033    21.0447   185.3519 </r>
       <r>     4.6252    23.5997   188.2292 </r>
       <r>     4.7472    21.7603   190.8822 </r>
       <r>     4.8691    21.8989   193.5522 </r>
       <r>     4.9910    25.8617   196.7052 </r>
       <r>     5.1129    24.3898   199.6789 </r>
       <r>     5.2348    21.1553   202.2581 </r>
       <r>     5.3568    27.6067   205.6239 </r>
       <r>     5.4787    19.2569   207.9717 </r>
       <r>     5.6006    21.2052   210.5571 </r>
       <r>     5.7225    19.1165   212.8878 </r>
       <r>     5.8444    17.7625   215.0534 </r>
       <r>     5.9664    27.5278   218.4096 </r>
       <r>     6.0883    23.7064   221.2999 </r>
       <r>     6.2102    23.3788   224.1502 </r>
       <r>     6.3321    18.4668   226.4017 </r>
       <r>     6.4540    18.4953   228.6566 </r>
       <r>     6.5760    16.6147   230.6823 </r>
       <r>     6.6979    19.6698   233.0804 </r>
       <r>     6.8198    21.7851   235.7365 </r>
       <r>     6.9417    16.9512   237.8032 </r>
       <r>     7.0636    12.7868   239.3622 </r>
       <r>     7.1856    14.5102   241.1312 </r>
       <r>     7.3075    13.0398   242.7211 </r>
       <r>     7.4294     9.5657   243.8873 </r>
       <r>     7.5513     9.7332   245.0740 </r>
       <r>     7.6732    13.0492   246.6650 </r>
       <r>     7.7952    10.9972   248.0057 </r>
       <r>     7.9171     8.3540   249.0243 </r>
       <r>     8.0390     4.7170   249.5994 </r>
       <r>     8.1609     6.6632   250.4117 </r>
       <r>     8.2828     9.4642   251.5656 </r>
       <r>     8.4048     4.7263   252.1419 </r>
       <r>     8.5267     5.7720   252.8456 </r>
       <r>     8.6486     5.8566   253.5596 </r>
       <r>     8.7705     3.7114   254.0121 </r>
       <r>     8.8924     4.5543   254.5674 </r>
       <r>     9.0144     2.5944   254.8837 </r>
       <r>     9.1363     3.3907   255.2971 </r>
       <r>     9.2582     3.1021   255.6753 </r>
       <r>     9.3801     1.4121   255.8475 </r>
       <r>     9.5020     0.9619   255.9647 </r>
       <r>     9.6240     0.2770   255.9985 </r>
       <r>     9.7459     0.0123   256.0000 </r>
       <r>     9.8678     0.0000   256.0000 </r>
       <r>     9.9897     0.0000   256.0000 </r>
       <r>    10.1116     0.0000   256.0000 </r>
       <r>    10.2336     0.0000   256.0000 </r>
       <r>    10.3555     0.0000   256.0000 </r>
       <r>    10.4774     0.0000   256.0000 </r>
       <r>    10.5993     0.0000   256.0000 </r>
       <r>    10.7212     0.0000   256.0000 </r>
       <r>    10.8432     0.0000   256.0000 </r>
       <r>    10.9651     0.0000   256.0000 </r>
       <r>    11.0870     0.0000   256.0000 </r>
       <r>    11.2089     0.0000   256.0000 </r>
       <r>    11.3308     0.0000   256.0000 </r>
       <r>    11.4528     0.0000   256.0000 </r>
       <r>    11.5747     0.0000   256.0000 </r>
       <r>    11.6966     0.0000   256.0000 </r>
       <r>    11.8185     0.0000   256.0000 </r>
       <r>    11.9404     0.0000   256.0000 </r>
       <r>    12.0624     0.0000   256.0000 </r>
       <r>    12.1843     0.0000   256.0000 </r>
       <r>    12.3062     0.0000   256.0000 </r>
       <r>    12.4281     0.0000   256.0000 </r>
       <r>    12.5500     0.0000   256.0000 </r>
       <r>    12.6720     0.0000   256.0000 </r>
       <r>    12.7939     0.0000   256.0000 </r>
       <r>    12.9158     0.0000   256.0000 </r>
       <r>    13.0377     0.0000   256.0000 </r>
       <r>    13.1596     0.0000   256.0000 </r>
       <r>    13.2816     0.0000   256.0000 </r>
       <r>    13.4035     0.1061   256.0129 </r>
       <r>    13.5254     1.4205   256.1861 </r>
       <r>    13.6473     2.5882   256.5017 </r>
       <r>    13.7693     6.0611   257.2406 </r>
       <r>    13.8912     4.5623   257.7969 </r>
       <r>    14.0131     6.6630   258.6092 </r>
       <r>    14.1350     6.0974   259.3526 </r>
       <r>    14.2569     6.5215   260.1477 </r>
       <r>    14.3789     9.8619   261.3501 </r>
       <r>    14.5008    10.2696   262.6022 </r>
       <r>    14.6227     9.9756   263.8184 </r>
       <r>    14.7446    10.3263   265.0774 </r>
       <r>    14.8665    12.2087   266.5659 </r>
       <r>    14.9885     9.3936   267.7111 </r>
       <r>    15.1104    12.3030   269.2111 </r>
       <r>    15.2323    10.4603   270.4864 </r>
       <r>    15.3542    13.1746   272.0927 </r>
       <r>    15.4761    16.5735   274.1133 </r>
       <r>    15.5981    11.9439   275.5695 </r>
       <r>    15.7200    16.0592   277.5275 </r>
       <r>    15.8419    18.0484   279.7279 </r>
       <r>    15.9638    19.6322   282.1215 </r>
       <r>    16.0857    21.0899   284.6928 </r>
       <r>    16.2077    17.6899   286.8495 </r>
       <r>    16.3296    17.0129   288.9237 </r>
       <r>    16.4515    21.4186   291.5351 </r>
       <r>    16.5734    18.8333   293.8313 </r>
       <r>    16.6953    33.0146   297.8564 </r>
       <r>    16.8173    33.4562   301.9354 </r>
       <r>    16.9392    23.7826   304.8350 </r>
       <r>    17.0611    27.4505   308.1818 </r>
       <r>    17.1830    20.1348   310.6366 </r>
       <r>    17.3049    24.1011   313.5750 </r>
       <r>    17.4269    22.6015   316.3306 </r>
       <r>    17.5488    20.1920   318.7924 </r>
       <r>    17.6707    25.7429   321.9310 </r>
       <r>    17.7926    20.2740   324.4028 </r>
       <r>    17.9145    21.6645   327.0441 </r>
       <r>    18.0365    29.0317   330.5837 </r>
       <r>    18.1584    27.8400   333.9780 </r>
       <r>    18.2803    34.9618   338.2405 </r>
       <r>    18.4022    38.4429   342.9275 </r>
       <r>    18.5241    42.0123   348.0496 </r>
       <r>    18.6461    31.0702   351.8377 </r>
       <r>    18.7680    32.1227   355.7541 </r>
       <r>    18.8899    29.7052   359.3758 </r>
       <r>    19.0118    27.6564   362.7476 </r>
       <r>    19.1337    24.2302   365.7018 </r>
       <r>    19.2557    24.0399   368.6328 </r>
       <r>    19.3776    21.3377   371.2342 </r>
       <r>    19.4995    22.6365   373.9941 </r>
       <r>    19.6214    23.6932   376.8828 </r>
       <r>    19.7433    25.1114   379.9444 </r>
       <r>    19.8653    14.5342   381.7164 </r>
       <r>    19.9872     6.1740   382.4691 </r>
       <r>    20.1091     2.8551   382.8172 </r>
       <r>    20.2310     2.2075   383.0863 </r>
       <r>    20.3529     2.7388   383.4202 </r>
       <r>    20.4749     2.4103   383.7141 </r>
       <r>    20.5968     1.2954   383.8720 </r>
       <r>    20.7187     0.6075   383.9461 </r>
       <r>    20.8406     0.1381   383.9629 </r>
       <r>    20.9625     0.0002   383.9630 </r>
       <r>    21.0845     0.0000   383.9630 </r>
       <r>    21.2064     0.0000   383.9630 </r>
       <r>    21.3283     0.0000   383.9630 </r>
       <r>    21.4502     0.0471   383.9687 </r>
       <r>    21.5721     0.2471   383.9988 </r>
       <r>    21.6941     0.0096   384.0000 </r>
       <r>    21.8160     0.0000   384.0000 </r>
       <r>    21.9379     0.0000   384.0000 </r>
       <r>    22.0598     0.0000   384.0000 </r>
       <r>    22.1817     0.0000   384.0000 </r>
       <r>    22.3037     0.0000   384.0000 </r>
       <r>    22.4256     0.0000   384.0000 </r>
       <r>    22.5475     0.0000   384.0000 </r>
       <r>    22.6694     0.0000   384.0000 </r>
       <r>    22.7914     0.0000   384.0000 </r>
       <r>    22.9133     0.0000   384.0000 </r>
       <r>    23.0352     0.0000   384.0000 </r>
       <r>    23.1571     0.0000   384.0000 </r>
      </set>
     </set>
    </array>
   </total>
  </dos>
 </calculation>
 <structure name="finalpos" >
  <crystal>
   <varray name="basis" >
    <v>       7.17999872       0.00000000       0.00000000 </v>
    <v>       0.28719915       7.17425265       0.00000000 </v>
    <v>       0.28719915       0.27593202       7.16894456 </v>
   </varray>
   <i name="volume">    369.28039792 </i>
   <varray name="rec_basis" >
    <v>       0.13927579      -0.00557548      -0.00536501 </v>
    <v>       0.00000000       0.13938734      -0.00536501 </v>
    <v>       0.00000000       0.00000000       0.13949055 </v>
   </varray>
  </crystal>
  <varray name="positions" >
   <v>       0.12500000       0.37500000       0.12500000 </v>
   <v>       0.62500000       0.37500000       0.12500000 </v>
   <v>       0.12500000       0.87500000       0.12500000 </v>
   <v>       0.62500000       0.87500000       0.12500000 </v>
   <v>       0.12500000       0.37500000       0.62500000 </v>
   <v>       0.62500000       0.37500000       0.62500000 </v>
   <v>       0.12500000       0.87500000       0.62500000 </v>
   <v>       0.62500000       0.87500000       0.62500000 </v>
   <v>       0.00000000       0.00000000       0.25000000 </v>
   <v>       0.50000000       0.00000000       0.25000000 </v>
   <v>       0.00000000       0.50000000       0.25000000 </v>
   <v>       0.50000000       0.50000000       0.25000000 </v>
   <v>       0.00000000       0.00000000       0.75000000 </v>
   <v>       0.50000000       0.00000000       0.75000000 </v>
   <v>       0.00000000       0.50000000       0.75000000 </v>
   <v>       0.50000000       0.50000000       0.75000000 </v>
   <v>       0.12500000       0.12500000       0.37500000 </v>
   <v>       0.62500000       0.12500000       0.37500000 </v>
   <v>       0.12500000       0.62500000       0.37500000 </v>
   <v>       0.62500000       0.62500000       0.37500000 </v>
   <v>       0.12500000       0.12500000       0.87500000 </v>
   <v>       0.62500000       0.12500000       0.87500000 </v>
   <v>       0.12500000       0.62500000       0.87500000 </v>
   <v>       0.62500000       0.62500000       0.87500000 </v>
   <v>       0.00000000       0.25000000       0.00000000 </v>
   <v>       0.50000000       0.25000000       0.00000000 </v>
   <v>       0.00000000       0.75000000       0.00000000 </v>
   <v>       0.50000000       0.75000000       0.00000000 </v>
   <v>       0.00000000       0.25000000       0.50000000 </v>
   <v>       0.50000000       0.25000000       0.50000000 </v>
   <v>       0.00000000       0.75000000       0.50000000 </v>
   <v>       0.50000000       0.75000000       0.50000000 </v>
   <v>       0.37500000       0.37500000       0.37500000 </v>
   <v>       0.87500000       0.37500000       0.37500000 </v>
   <v>       0.37500000       0.87500000       0.37500000 </v>
   <v>       0.87500000       0.87500000       0.37500000 </v>
   <v>       0.37500000       0.37500000       0.87500000 </v>
   <v>       0.87500000       0.37500000       0.87500000 </v>
   <v>       0.37500000       0.87500000       0.87500000 </v>
   <v>       0.87500000       0.87500000       0.87500000 </v>
   <v>       0.25000000       0.00000000       0.00000000 </v>
   <v>       0.75000000       0.00000000       0.00000000 </v>
   <v>       0.25000000       0.50000000       0.00000000 </v>
   <v>       0.75000000       0.50000000       0.00000000 </v>
   <v>       0.25000000       0.00000000       0.50000000 </v>
   <v>       0.75000000       0.00000000       0.50000000 </v>
   <v>       0.25000000       0.50000000       0.50000000 </v>
   <v>       0.75000000       0.50000000       0.50000000 </v>
   <v>       0.37500000       0.12500000       0.12500000 </v>
   <v>       0.87500000       0.12500000       0.12500000 </v>
   <v>       0.37500000       0.62500000       0.12500000 </v>
   <v>       0.87500000       0.62500000       0.12500000 </v>
   <v>       0.37500000       0.12500000       0.62500000 </v>
   <v>       0.87500000       0.12500000       0.62500000 </v>
   <v>       0.37500000       0.62500000       0.62500000 </v>
   <v>       0.87500000       0.62500000       0.62500000 </v>
   <v>       0.25000000       0.25000000       0.25000000 </v>
   <v>       0.75000000       0.25000000       0.25000000 </v>
   <v>       0.25000000       0.75000000       0.25000000 </v>
   <v>       0.75000000       0.75000000       0.25000000 </v>
   <v>       0.25000000       0.25000000       0.75000000 </v>
   <v>       0.75000000       0.25000000       0.75000000 </v>
   <v>       0.25000000       0.75000000       0.75000000 </v>
   <v>       0.75000000       0.75000000       0.75000000 </v>
  </varray>
 </structure>
</modeling>
