 vasp.5.4.4.18Apr17-6-g9f103f2a35 (build Mar 12 2022 03:36:41) complex          
  
 executed on IFC19.0.3.199_CrayMP date 2022.11.30  12:22:47
 running on   16 total cores
 distrk:  each k-point on   16 cores,    1 groups
 distr:  one band on NCORES_PER_BAND=   4 cores,    4 groups


--------------------------------------------------------------------------------------------------------


 INCAR:
 POTCAR:   PAW_PBE C 08Apr2002                    
 POTCAR:   PAW_PBE C 08Apr2002                    
   VRHFIN =C: s2p2                                                              
   LEXCH  = PE                                                                  
   EATOM  =   147.1560 eV,   10.8157 Ry                                         
                                                                                
   TITEL  = PAW_PBE C 08Apr2002                                                 
   LULTRA =        F    use ultrasoft PP ?                                      
   IUNSCR =        0    unscreen: 0-lin 1-nonlin 2-no                           
   RPACOR =     .000    partial core radius                                     
   POMASS =   12.011; ZVAL   =    4.000    mass and valenz                      
   RCORE  =    1.500    outmost cutoff radius                                   
   RWIGS  =    1.630; RWIGS  =     .863    wigner-seitz radius (au A)           
   ENMAX  =  400.000; ENMIN  =  300.000 eV                                      
   ICORE  =        2    local potential                                         
   LCOR   =        T    correct aug charges                                     
   LPAW   =        T    paw PP                                                  
   EAUG   =  644.873                                                            
   DEXC   =     .000                                                            
   RMAX   =    2.266    core radius for proj-oper                               
   RAUG   =    1.300    factor for augmentation sphere                          
   RDEP   =    1.501    radius for radial grids                                 
   RDEPT  =    1.300    core radius for aug-charge                              
   QCUT   =   -5.516; QGAM   =   11.032    optimization parameters              
                                                                                
   Description                                                                  
     l     E      TYP  RCUT    TYP  RCUT                                        
     0   .000     23  1.200                                                     
     0   .000     23  1.200                                                     
     1   .000     23  1.500                                                     
     1  2.500     23  1.500                                                     
     2   .000      7  1.500                                                     
  local pseudopotential read in
  atomic valenz-charges read in
  non local Contribution for L=           0  read in
    real space projection operators read in
  non local Contribution for L=           0  read in
    real space projection operators read in
  non local Contribution for L=           1  read in
    real space projection operators read in
  non local Contribution for L=           1  read in
    real space projection operators read in
    PAW grid and wavefunctions read in
 
   number of l-projection  operators is LMAX  =           4
   number of lm-projection operators is LMMAX =           8
 
 PAW_PBE C 08Apr2002                    :
 energy of atom  1       EATOM= -147.1560
 kinetic energy error for atom=    0.0288 (will be added to EATOM!!)
 
 
 POSCAR: C8                                      
  positions in direct lattice
  No initial velocities read in
 exchange correlation table for  LEXCH =        8
   RHO(1)=    0.500       N(1)  =     2000
   RHO(2)=  100.500       N(2)  =     4000
 


--------------------------------------------------------------------------------------------------------


 ion  position               nearest neighbor table
   1  0.250  0.750  0.250-   2 1.48   4 1.48   6 1.48   8 1.48
   2  0.000  0.000  0.500-   1 1.48   3 1.48   5 1.48   7 1.48
   3  0.250  0.250  0.750-   2 1.48   4 1.48   6 1.48   8 1.48
   4  0.000  0.500  0.000-   1 1.48   3 1.48   5 1.48   7 1.48
   5  0.750  0.750  0.750-   2 1.48   4 1.48   6 1.48   8 1.48
   6  0.500  0.000  0.000-   1 1.48   3 1.48   5 1.48   7 1.48
   7  0.750  0.250  0.250-   2 1.48   4 1.48   6 1.48   8 1.48
   8  0.500  0.500  0.500-   1 1.48   3 1.48   5 1.48   7 1.48
 
  LATTYP: Found a simple cubic cell.
 ALAT       =     3.4277820000
  
  Lattice vectors:
  
 A1 = (   3.4277820000,   0.0000000000,   0.0000000000)
 A2 = (   0.0000000000,   3.4277820000,   0.0000000000)
 A3 = (   0.0000000000,   0.0000000000,   3.4277820000)


Analysis of symmetry for initial positions (statically):
=====================================================================
 Subroutine PRICEL returns following result:
 
  LATTYP: Found a face centered cubic cell.
 ALAT       =     3.4277820000
  
  Lattice vectors:
  
 A1 = (   1.7138910000,   1.7138910000,   0.0000000000)
 A2 = (   1.7138910000,   0.0000000000,  -1.7138910000)
 A3 = (   0.0000000000,   1.7138910000,  -1.7138910000)
 
   4 primitive cells build up your supercell.
 

 Routine SETGRP: Setting up the symmetry group for a 
 simple cubic supercell.


 Subroutine GETGRP returns: Found 48 space group operations
 (whereof 24 operations were pure point group operations)
 out of a pool of 48 trial point group operations.


The static configuration has the point symmetry T_d .
 The point group associated with its full space group is O_h .


Analysis of symmetry for dynamics (positions and initial velocities):
=====================================================================
 Subroutine PRICEL returns following result:
 
  LATTYP: Found a face centered cubic cell.
 ALAT       =     3.4277820000
  
  Lattice vectors:
  
 A1 = (   1.7138910000,   1.7138910000,   0.0000000000)
 A2 = (   1.7138910000,   0.0000000000,  -1.7138910000)
 A3 = (   0.0000000000,   1.7138910000,  -1.7138910000)
 
   4 primitive cells build up your supercell.
 

 Routine SETGRP: Setting up the symmetry group for a 
 simple cubic supercell.


 Subroutine GETGRP returns: Found 48 space group operations
 (whereof 24 operations were pure point group operations)
 out of a pool of 48 trial point group operations.


The dynamic configuration has the point symmetry T_d .
 The point group associated with its full space group is O_h .


 Subroutine INISYM returns: Found 48 space group operations
 (whereof 24 operations are pure point group operations),
 and found     4 'primitive' translations

 
 
 KPOINTS: kpt_density=1000                        

Automatic generation of k-mesh.
Space group operators:
 irot       det(A)        alpha          n_x          n_y          n_z        tau_x        tau_y        tau_z
    1     1.000000     0.000000     1.000000     0.000000     0.000000     0.000000     0.000000     0.000000
    2     1.000000   120.000000    -0.577350    -0.577350    -0.577350     0.000000     0.000000     0.000000
    3     1.000000   120.000000     0.577350     0.577350     0.577350     0.000000     0.000000     0.000000
    4    -1.000000    90.000000     0.000000     0.000000    -1.000000     0.000000     0.000000     0.000000
    5    -1.000000   180.000000     0.000000     0.707107     0.707107     0.000000     0.000000     0.000000
    6    -1.000000    90.000000     0.000000     1.000000     0.000000     0.000000     0.000000     0.000000
    7     1.000000   180.000000     0.000000     0.000000     1.000000     0.000000     0.000000     0.000000
    8     1.000000   120.000000    -0.577350     0.577350     0.577350     0.000000     0.000000     0.000000
    9     1.000000   120.000000    -0.577350     0.577350    -0.577350     0.000000     0.000000     0.000000
   10    -1.000000    90.000000     0.000000     0.000000     1.000000     0.000000     0.000000     0.000000
   11    -1.000000    90.000000    -1.000000     0.000000     0.000000     0.000000     0.000000     0.000000
   12    -1.000000   180.000000     0.707107     0.000000     0.707107     0.000000     0.000000     0.000000
   13     1.000000   120.000000     0.577350    -0.577350     0.577350     0.000000     0.000000     0.000000
   14     1.000000   120.000000    -0.577350    -0.577350     0.577350     0.000000     0.000000     0.000000
   15     1.000000   180.000000     1.000000     0.000000     0.000000     0.000000     0.000000     0.000000
   16    -1.000000    90.000000     0.000000    -1.000000     0.000000     0.000000     0.000000     0.000000
   17    -1.000000   180.000000     0.707107     0.707107     0.000000     0.000000     0.000000     0.000000
   18    -1.000000    90.000000     1.000000     0.000000     0.000000     0.000000     0.000000     0.000000
   19     1.000000   120.000000     0.577350    -0.577350    -0.577350     0.000000     0.000000     0.000000
   20     1.000000   180.000000     0.000000     1.000000     0.000000     0.000000     0.000000     0.000000
   21     1.000000   120.000000     0.577350     0.577350    -0.577350     0.000000     0.000000     0.000000
   22    -1.000000   180.000000     0.000000    -0.707107     0.707107     0.000000     0.000000     0.000000
   23    -1.000000   180.000000     0.707107    -0.707107     0.000000     0.000000     0.000000     0.000000
   24    -1.000000   180.000000     0.707107     0.000000    -0.707107     0.000000     0.000000     0.000000
   25    -1.000000     0.000000     1.000000     0.000000     0.000000     0.750000     0.750000    -0.750000
   26    -1.000000   120.000000    -0.577350    -0.577350    -0.577350     0.750000     0.750000    -0.750000
   27    -1.000000   120.000000     0.577350     0.577350     0.577350     0.750000     0.750000    -0.750000
   28     1.000000    90.000000     0.000000     0.000000    -1.000000     0.750000     0.750000    -0.750000
   29     1.000000   180.000000     0.000000     0.707107     0.707107     0.750000     0.750000    -0.750000
   30     1.000000    90.000000     0.000000     1.000000     0.000000     0.750000     0.750000    -0.750000
   31    -1.000000   180.000000     0.000000     0.000000     1.000000     0.750000     0.750000    -0.750000
   32    -1.000000   120.000000    -0.577350     0.577350     0.577350     0.750000     0.750000    -0.750000
   33    -1.000000   120.000000    -0.577350     0.577350    -0.577350     0.750000     0.750000    -0.750000
   34     1.000000    90.000000     0.000000     0.000000     1.000000     0.750000     0.750000    -0.750000
   35     1.000000    90.000000    -1.000000     0.000000     0.000000     0.750000     0.750000    -0.750000
   36     1.000000   180.000000     0.707107     0.000000     0.707107     0.750000     0.750000    -0.750000
   37    -1.000000   120.000000     0.577350    -0.577350     0.577350     0.750000     0.750000    -0.750000
   38    -1.000000   120.000000    -0.577350    -0.577350     0.577350     0.750000     0.750000    -0.750000
   39    -1.000000   180.000000     1.000000     0.000000     0.000000     0.750000     0.750000    -0.750000
   40     1.000000    90.000000     0.000000    -1.000000     0.000000     0.750000     0.750000    -0.750000
   41     1.000000   180.000000     0.707107     0.707107     0.000000     0.750000     0.750000    -0.750000
   42     1.000000    90.000000     1.000000     0.000000     0.000000     0.750000     0.750000    -0.750000
   43    -1.000000   120.000000     0.577350    -0.577350    -0.577350     0.750000     0.750000    -0.750000
   44    -1.000000   180.000000     0.000000     1.000000     0.000000     0.750000     0.750000    -0.750000
   45    -1.000000   120.000000     0.577350     0.577350    -0.577350     0.750000     0.750000    -0.750000
   46     1.000000   180.000000     0.000000    -0.707107     0.707107     0.750000     0.750000    -0.750000
   47     1.000000   180.000000     0.707107    -0.707107     0.000000     0.750000     0.750000    -0.750000
   48     1.000000   180.000000     0.707107     0.000000    -0.707107     0.750000     0.750000    -0.750000
 
 Subroutine IBZKPT returns following result:
 ===========================================
 
 Found     84 irreducible k-points:
 
 Following reciprocal coordinates:
            Coordinates               Weight
  0.000000  0.000000  0.000000      1.000000
  0.083333  0.000000  0.000000      6.000000
  0.166667  0.000000  0.000000      6.000000
  0.250000  0.000000  0.000000      6.000000
  0.333333  0.000000  0.000000      6.000000
  0.416667  0.000000  0.000000      6.000000
  0.500000  0.000000  0.000000      3.000000
  0.083333  0.083333  0.000000     12.000000
  0.166667  0.083333  0.000000     24.000000
  0.250000  0.083333  0.000000     24.000000
  0.333333  0.083333  0.000000     24.000000
  0.416667  0.083333  0.000000     24.000000
  0.500000  0.083333  0.000000     12.000000
  0.166667  0.166667  0.000000     12.000000
  0.250000  0.166667  0.000000     24.000000
  0.333333  0.166667  0.000000     24.000000
  0.416667  0.166667  0.000000     24.000000
  0.500000  0.166667  0.000000     12.000000
  0.250000  0.250000  0.000000     12.000000
  0.333333  0.250000  0.000000     24.000000
  0.416667  0.250000  0.000000     24.000000
  0.500000  0.250000  0.000000     12.000000
  0.333333  0.333333  0.000000     12.000000
  0.416667  0.333333  0.000000     24.000000
  0.500000  0.333333  0.000000     12.000000
  0.416667  0.416667  0.000000     12.000000
  0.500000  0.416667  0.000000     12.000000
  0.500000  0.500000  0.000000      3.000000
  0.083333  0.083333  0.083333      8.000000
  0.166667  0.083333  0.083333     24.000000
  0.250000  0.083333  0.083333     24.000000
  0.333333  0.083333  0.083333     24.000000
  0.416667  0.083333  0.083333     24.000000
  0.500000  0.083333  0.083333     12.000000
  0.166667  0.166667  0.083333     24.000000
  0.250000  0.166667  0.083333     48.000000
  0.333333  0.166667  0.083333     48.000000
  0.416667  0.166667  0.083333     48.000000
  0.500000  0.166667  0.083333     24.000000
  0.250000  0.250000  0.083333     24.000000
  0.333333  0.250000  0.083333     48.000000
  0.416667  0.250000  0.083333     48.000000
  0.500000  0.250000  0.083333     24.000000
  0.333333  0.333333  0.083333     24.000000
  0.416667  0.333333  0.083333     48.000000
  0.500000  0.333333  0.083333     24.000000
  0.416667  0.416667  0.083333     24.000000
  0.500000  0.416667  0.083333     24.000000
  0.500000  0.500000  0.083333      6.000000
  0.166667  0.166667  0.166667      8.000000
  0.250000  0.166667  0.166667     24.000000
  0.333333  0.166667  0.166667     24.000000
  0.416667  0.166667  0.166667     24.000000
  0.500000  0.166667  0.166667     12.000000
  0.250000  0.250000  0.166667     24.000000
  0.333333  0.250000  0.166667     48.000000
  0.416667  0.250000  0.166667     48.000000
  0.500000  0.250000  0.166667     24.000000
  0.333333  0.333333  0.166667     24.000000
  0.416667  0.333333  0.166667     48.000000
  0.500000  0.333333  0.166667     24.000000
  0.416667  0.416667  0.166667     24.000000
  0.500000  0.416667  0.166667     24.000000
  0.500000  0.500000  0.166667      6.000000
  0.250000  0.250000  0.250000      8.000000
  0.333333  0.250000  0.250000     24.000000
  0.416667  0.250000  0.250000     24.000000
  0.500000  0.250000  0.250000     12.000000
  0.333333  0.333333  0.250000     24.000000
  0.416667  0.333333  0.250000     48.000000
  0.500000  0.333333  0.250000     24.000000
  0.416667  0.416667  0.250000     24.000000
  0.500000  0.416667  0.250000     24.000000
  0.500000  0.500000  0.250000      6.000000
  0.333333  0.333333  0.333333      8.000000
  0.416667  0.333333  0.333333     24.000000
  0.500000  0.333333  0.333333     12.000000
  0.416667  0.416667  0.333333     24.000000
  0.500000  0.416667  0.333333     24.000000
  0.500000  0.500000  0.333333      6.000000
  0.416667  0.416667  0.416667      8.000000
  0.500000  0.416667  0.416667     12.000000
  0.500000  0.500000  0.416667      6.000000
  0.500000  0.500000  0.500000      1.000000
 
 Following cartesian coordinates:
            Coordinates               Weight
  0.000000  0.000000  0.000000      1.000000
  0.024311  0.000000  0.000000      6.000000
  0.048622  0.000000  0.000000      6.000000
  0.072933  0.000000  0.000000      6.000000
  0.097245  0.000000  0.000000      6.000000
  0.121556  0.000000  0.000000      6.000000
  0.145867  0.000000  0.000000      3.000000
  0.024311  0.024311  0.000000     12.000000
  0.048622  0.024311  0.000000     24.000000
  0.072933  0.024311  0.000000     24.000000
  0.097245  0.024311  0.000000     24.000000
  0.121556  0.024311  0.000000     24.000000
  0.145867  0.024311  0.000000     12.000000
  0.048622  0.048622  0.000000     12.000000
  0.072933  0.048622  0.000000     24.000000
  0.097245  0.048622  0.000000     24.000000
  0.121556  0.048622  0.000000     24.000000
  0.145867  0.048622  0.000000     12.000000
  0.072933  0.072933  0.000000     12.000000
  0.097245  0.072933  0.000000     24.000000
  0.121556  0.072933  0.000000     24.000000
  0.145867  0.072933  0.000000     12.000000
  0.097245  0.097245  0.000000     12.000000
  0.121556  0.097245  0.000000     24.000000
  0.145867  0.097245  0.000000     12.000000
  0.121556  0.121556  0.000000     12.000000
  0.145867  0.121556  0.000000     12.000000
  0.145867  0.145867  0.000000      3.000000
  0.024311  0.024311  0.024311      8.000000
  0.048622  0.024311  0.024311     24.000000
  0.072933  0.024311  0.024311     24.000000
  0.097245  0.024311  0.024311     24.000000
  0.121556  0.024311  0.024311     24.000000
  0.145867  0.024311  0.024311     12.000000
  0.048622  0.048622  0.024311     24.000000
  0.072933  0.048622  0.024311     48.000000
  0.097245  0.048622  0.024311     48.000000
  0.121556  0.048622  0.024311     48.000000
  0.145867  0.048622  0.024311     24.000000
  0.072933  0.072933  0.024311     24.000000
  0.097245  0.072933  0.024311     48.000000
  0.121556  0.072933  0.024311     48.000000
  0.145867  0.072933  0.024311     24.000000
  0.097245  0.097245  0.024311     24.000000
  0.121556  0.097245  0.024311     48.000000
  0.145867  0.097245  0.024311     24.000000
  0.121556  0.121556  0.024311     24.000000
  0.145867  0.121556  0.024311     24.000000
  0.145867  0.145867  0.024311      6.000000
  0.048622  0.048622  0.048622      8.000000
  0.072933  0.048622  0.048622     24.000000
  0.097245  0.048622  0.048622     24.000000
  0.121556  0.048622  0.048622     24.000000
  0.145867  0.048622  0.048622     12.000000
  0.072933  0.072933  0.048622     24.000000
  0.097245  0.072933  0.048622     48.000000
  0.121556  0.072933  0.048622     48.000000
  0.145867  0.072933  0.048622     24.000000
  0.097245  0.097245  0.048622     24.000000
  0.121556  0.097245  0.048622     48.000000
  0.145867  0.097245  0.048622     24.000000
  0.121556  0.121556  0.048622     24.000000
  0.145867  0.121556  0.048622     24.000000
  0.145867  0.145867  0.048622      6.000000
  0.072933  0.072933  0.072933      8.000000
  0.097245  0.072933  0.072933     24.000000
  0.121556  0.072933  0.072933     24.000000
  0.145867  0.072933  0.072933     12.000000
  0.097245  0.097245  0.072933     24.000000
  0.121556  0.097245  0.072933     48.000000
  0.145867  0.097245  0.072933     24.000000
  0.121556  0.121556  0.072933     24.000000
  0.145867  0.121556  0.072933     24.000000
  0.145867  0.145867  0.072933      6.000000
  0.097245  0.097245  0.097245      8.000000
  0.121556  0.097245  0.097245     24.000000
  0.145867  0.097245  0.097245     12.000000
  0.121556  0.121556  0.097245     24.000000
  0.145867  0.121556  0.097245     24.000000
  0.145867  0.145867  0.097245      6.000000
  0.121556  0.121556  0.121556      8.000000
  0.145867  0.121556  0.121556     12.000000
  0.145867  0.145867  0.121556      6.000000
  0.145867  0.145867  0.145867      1.000000
 
 TETIRR: Found    854 inequivalent tetrahedra from    10368


--------------------------------------------------------------------------------------------------------




 Dimension of arrays:
   k-points           NKPTS =     84   k-points in BZ     NKDIM =     84   number of bands    NBANDS=     24
   number of dos      NEDOS =    301   number of ions     NIONS =      8
   non local maximal  LDIM  =      4   non local SUM 2l+1 LMDIM =      8
   total plane-waves  NPLWV =  13824
   max r-space proj   IRMAX =      1   max aug-charges    IRDMAX=   4250
   dimension x,y,z NGX =    24 NGY =   24 NGZ =   24
   dimension x,y,z NGXF=    48 NGYF=   48 NGZF=   48
   support grid    NGXF=    48 NGYF=   48 NGZF=   48
   ions per type =               8
   NGX,Y,Z   is equivalent  to a cutoff of  11.64, 11.64, 11.64 a.u.
   NGXF,Y,Z  is equivalent  to a cutoff of  23.28, 23.28, 23.28 a.u.

 SYSTEM =  unknown system                          
 POSCAR =  C8                                      

 Startparameter for this run:
   NWRITE =      2    write-flag & timer
   PREC   = accura    normal or accurate (medium, high low for compatibility)
   ISTART =      0    job   : 0-new  1-cont  2-samecut
   ICHARG =      2    charge: 1-file 2-atom 10-const
   ISPIN  =      1    spin polarized calculation?
   LNONCOLLINEAR =      F non collinear calculations
   LSORBIT =      F    spin-orbit coupling
   INIWAV =      1    electr: 0-lowe 1-rand  2-diag
   LASPH  =      F    aspherical Exc in radial PAW
   METAGGA=      F    non-selfconsistent MetaGGA calc.

 Electronic Relaxation 1
   ENCUT  =  400.0 eV  29.40 Ry    5.42 a.u.   5.59  5.59  5.59*2*pi/ulx,y,z
   ENINI  =  400.0     initial cutoff
   ENAUG  =  644.9 eV  augmentation charge cutoff
   NELM   =     60;   NELMIN=  2; NELMDL= -5     # of ELM steps 
   EDIFF  = 0.1E-05   stopping-criterion for ELM
   LREAL  =      F    real-space projection
   NLSPLINE    = F    spline interpolate recip. space projectors
   LCOMPAT=      F    compatible to vasp.4.4
   GGA_COMPAT  = T    GGA compatible to vasp.4.4-vasp.4.6
   LMAXPAW     = -100 max onsite density
   LMAXMIX     =    2 max onsite mixed and CHGCAR
   VOSKOWN=      0    Vosko Wilk Nusair interpolation
   ROPT   =    0.00000
 Ionic relaxation
   EDIFFG = 0.1E-04   stopping-criterion for IOM
   NSW    =      0    number of steps for IOM
   NBLOCK =      1;   KBLOCK =      1    inner block; outer block 
   IBRION =     -1    ionic relax: 0-MD 1-quasi-New 2-CG
   NFREE  =      0    steps in history (QN), initial steepest desc. (CG)
   ISIF   =      2    stress and relaxation
   IWAVPR =     10    prediction:  0-non 1-charg 2-wave 3-comb
   ISYM   =      2    0-nonsym 1-usesym 2-fastsym
   LCORR  =      T    Harris-Foulkes like correction to forces

   POTIM  = 0.0200    time-step for ionic-motion
   TEIN   =    0.0    initial temperature
   TEBEG  =    0.0;   TEEND  =   0.0 temperature during run
   SMASS  =  -3.00    Nose mass-parameter (am)
   estimated Nose-frequenzy (Omega)   =  0.10E-29 period in steps =****** mass=  -0.269E-27a.u.
   SCALEE = 1.0000    scale energy and forces
   NPACO  =    256;   APACO  = 16.0  distance and # of slots for P.C.
   PSTRESS=    0.0 pullay stress

  Mass of Ions in am
   POMASS =  12.01
  Ionic Valenz
   ZVAL   =   4.00
  Atomic Wigner-Seitz radii
   RWIGS  =  -1.00
  virtual crystal weights 
   VCA    =   1.00
   NELECT =      32.0000    total number of electrons
   NUPDOWN=      -1.0000    fix difference up-down

 DOS related values:
   EMIN   =  10.00;   EMAX   =-10.00  energy-range for DOS
   EFERMI =   0.00
   ISMEAR =    -5;   SIGMA  =   0.06  broadening in eV -4-tet -1-fermi 0-gaus

 Electronic relaxation 2 (details)
   IALGO  =     38    algorithm
   LDIAG  =      T    sub-space diagonalisation (order eigenvalues)
   LSUBROT=      F    optimize rotation matrix (better conditioning)
   TURBO    =      0    0=normal 1=particle mesh
   IRESTART =      0    0=no restart 2=restart with 2 vectors
   NREBOOT  =      0    no. of reboots
   NMIN     =      0    reboot dimension
   EREF     =   0.00    reference energy to select bands
   IMIX   =      4    mixing-type and parameters
     AMIX     =   0.40;   BMIX     =  1.00
     AMIX_MAG =   1.60;   BMIX_MAG =  1.00
     AMIN     =   0.10
     WC   =   100.;   INIMIX=   1;  MIXPRE=   1;  MAXMIX= -45

 Intra band minimization:
   WEIMIN = 0.0000     energy-eigenvalue tresh-hold
   EBREAK =  0.10E-07  absolut break condition
   DEPER  =   0.30     relativ break condition  

   TIME   =   0.40     timestep for ELM

  volume/ion in A,a.u.               =       5.03        33.97
  Fermi-wavevector in a.u.,A,eV,Ry     =   1.516276  2.865346 31.281063  2.299093
  Thomas-Fermi vector in A             =   2.625688
 
 Write flags
   LWAVE        =      F    write WAVECAR
   LDOWNSAMPLE  =      F    k-point downsampling of WAVECAR
   LCHARG       =      F    write CHGCAR
   LVTOT        =      F    write LOCPOT, total local potential
   LVHAR        =      F    write LOCPOT, Hartree potential only
   LELF         =      F    write electronic localiz. function (ELF)
   LORBIT       =      0    0 simple, 1 ext, 2 COOP (PROOUT), +10 PAW based schemes


 Dipole corrections
   LMONO  =      F    monopole corrections only (constant potential shift)
   LDIPOL =      F    correct potential (dipole corrections)
   IDIPOL =      0    1-x, 2-y, 3-z, 4-all directions 
   EPSILON=  1.0000000 bulk dielectric constant

 Exchange correlation treatment:
   GGA     =    --    GGA type
   LEXCH   =     8    internal setting for exchange type
   VOSKOWN=      0    Vosko Wilk Nusair interpolation
   LHFCALC =     F    Hartree Fock is set to
   LHFONE  =     F    Hartree Fock one center treatment
   AEXX    =    0.0000 exact exchange contribution

 Linear response parameters
   LEPSILON=     F    determine dielectric tensor
   LRPA    =     F    only Hartree local field effects (RPA)
   LNABLA  =     F    use nabla operator in PAW spheres
   LVEL    =     F    velocity operator in full k-point grid
   LINTERFAST=   F  fast interpolation
   KINTER  =     0    interpolate to denser k-point grid
   CSHIFT  =0.1000    complex shift for real part using Kramers Kronig
   OMEGAMAX=  -1.0    maximum frequency
   DEG_THRESHOLD= 0.2000000E-02 threshold for treating states as degnerate
   RTIME   =   -0.100 relaxation time in fs
  (WPLASMAI=    0.000 imaginary part of plasma frequency in eV, 0.658/RTIME)
   DFIELD  = 0.0000000 0.0000000 0.0000000 field for delta impulse in time
 
 Orbital magnetization related:
   ORBITALMAG=     F  switch on orbital magnetization
   LCHIMAG   =     F  perturbation theory with respect to B field
   DQ        =  0.001000  dq finite difference perturbation B field
   LLRAUG    =     F  two centre corrections for induced B field



--------------------------------------------------------------------------------------------------------


 Static calculation
 charge density and potential will be updated during run
 non-spin polarized calculation
 Variant of blocked Davidson
 Davidson routine will perform the subspace rotation
 perform sub-space diagonalisation
    after iterative eigenvector-optimisation
 modified Broyden-mixing scheme, WC =      100.0
 initial mixing is a Kerker type mixing with AMIX =  0.4000 and BMIX =      1.0000
 Hartree-type preconditioning will be used
 using additional bands            8
 reciprocal scheme for non local part
 calculate Harris-corrections to forces 
   (improved forces if not selfconsistent)
 use gradient corrections 
 use of overlap-Matrix (Vanderbilt PP)
 Fermi weights with tetrahedron method with Bloechl corrections


--------------------------------------------------------------------------------------------------------


  energy-cutoff  :      400.00
  volume of cell :       40.28
      direct lattice vectors                 reciprocal lattice vectors
     3.427782000  0.000000000  0.000000000     0.291733838  0.000000000  0.000000000
     0.000000000  3.427782000  0.000000000     0.000000000  0.291733838  0.000000000
     0.000000000  0.000000000  3.427782000     0.000000000  0.000000000  0.291733838

  length of vectors
     3.427782000  3.427782000  3.427782000     0.291733838  0.291733838  0.291733838


 
 k-points in units of 2pi/SCALE and weight: kpt_density=1000                        
   0.00000000  0.00000000  0.00000000       0.001
   0.02431115  0.00000000  0.00000000       0.003
   0.04862231  0.00000000  0.00000000       0.003
   0.07293346  0.00000000  0.00000000       0.003
   0.09724461  0.00000000  0.00000000       0.003
   0.12155577  0.00000000  0.00000000       0.003
   0.14586692  0.00000000  0.00000000       0.002
   0.02431115  0.02431115  0.00000000       0.007
   0.04862231  0.02431115  0.00000000       0.014
   0.07293346  0.02431115  0.00000000       0.014
   0.09724461  0.02431115  0.00000000       0.014
   0.12155577  0.02431115  0.00000000       0.014
   0.14586692  0.02431115  0.00000000       0.007
   0.04862231  0.04862231  0.00000000       0.007
   0.07293346  0.04862231  0.00000000       0.014
   0.09724461  0.04862231  0.00000000       0.014
   0.12155577  0.04862231  0.00000000       0.014
   0.14586692  0.04862231  0.00000000       0.007
   0.07293346  0.07293346  0.00000000       0.007
   0.09724461  0.07293346  0.00000000       0.014
   0.12155577  0.07293346  0.00000000       0.014
   0.14586692  0.07293346  0.00000000       0.007
   0.09724461  0.09724461  0.00000000       0.007
   0.12155577  0.09724461  0.00000000       0.014
   0.14586692  0.09724461  0.00000000       0.007
   0.12155577  0.12155577  0.00000000       0.007
   0.14586692  0.12155577  0.00000000       0.007
   0.14586692  0.14586692  0.00000000       0.002
   0.02431115  0.02431115  0.02431115       0.005
   0.04862231  0.02431115  0.02431115       0.014
   0.07293346  0.02431115  0.02431115       0.014
   0.09724461  0.02431115  0.02431115       0.014
   0.12155577  0.02431115  0.02431115       0.014
   0.14586692  0.02431115  0.02431115       0.007
   0.04862231  0.04862231  0.02431115       0.014
   0.07293346  0.04862231  0.02431115       0.028
   0.09724461  0.04862231  0.02431115       0.028
   0.12155577  0.04862231  0.02431115       0.028
   0.14586692  0.04862231  0.02431115       0.014
   0.07293346  0.07293346  0.02431115       0.014
   0.09724461  0.07293346  0.02431115       0.028
   0.12155577  0.07293346  0.02431115       0.028
   0.14586692  0.07293346  0.02431115       0.014
   0.09724461  0.09724461  0.02431115       0.014
   0.12155577  0.09724461  0.02431115       0.028
   0.14586692  0.09724461  0.02431115       0.014
   0.12155577  0.12155577  0.02431115       0.014
   0.14586692  0.12155577  0.02431115       0.014
   0.14586692  0.14586692  0.02431115       0.003
   0.04862231  0.04862231  0.04862231       0.005
   0.07293346  0.04862231  0.04862231       0.014
   0.09724461  0.04862231  0.04862231       0.014
   0.12155577  0.04862231  0.04862231       0.014
   0.14586692  0.04862231  0.04862231       0.007
   0.07293346  0.07293346  0.04862231       0.014
   0.09724461  0.07293346  0.04862231       0.028
   0.12155577  0.07293346  0.04862231       0.028
   0.14586692  0.07293346  0.04862231       0.014
   0.09724461  0.09724461  0.04862231       0.014
   0.12155577  0.09724461  0.04862231       0.028
   0.14586692  0.09724461  0.04862231       0.014
   0.12155577  0.12155577  0.04862231       0.014
   0.14586692  0.12155577  0.04862231       0.014
   0.14586692  0.14586692  0.04862231       0.003
   0.07293346  0.07293346  0.07293346       0.005
   0.09724461  0.07293346  0.07293346       0.014
   0.12155577  0.07293346  0.07293346       0.014
   0.14586692  0.07293346  0.07293346       0.007
   0.09724461  0.09724461  0.07293346       0.014
   0.12155577  0.09724461  0.07293346       0.028
   0.14586692  0.09724461  0.07293346       0.014
   0.12155577  0.12155577  0.07293346       0.014
   0.14586692  0.12155577  0.07293346       0.014
   0.14586692  0.14586692  0.07293346       0.003
   0.09724461  0.09724461  0.09724461       0.005
   0.12155577  0.09724461  0.09724461       0.014
   0.14586692  0.09724461  0.09724461       0.007
   0.12155577  0.12155577  0.09724461       0.014
   0.14586692  0.12155577  0.09724461       0.014
   0.14586692  0.14586692  0.09724461       0.003
   0.12155577  0.12155577  0.12155577       0.005
   0.14586692  0.12155577  0.12155577       0.007
   0.14586692  0.14586692  0.12155577       0.003
   0.14586692  0.14586692  0.14586692       0.001
 
 k-points in reciprocal lattice and weights: kpt_density=1000                        
   0.00000000  0.00000000  0.00000000       0.001
   0.08333333  0.00000000  0.00000000       0.003
   0.16666667  0.00000000  0.00000000       0.003
   0.25000000  0.00000000  0.00000000       0.003
   0.33333333  0.00000000  0.00000000       0.003
   0.41666667  0.00000000  0.00000000       0.003
   0.50000000  0.00000000  0.00000000       0.002
   0.08333333  0.08333333  0.00000000       0.007
   0.16666667  0.08333333  0.00000000       0.014
   0.25000000  0.08333333  0.00000000       0.014
   0.33333333  0.08333333  0.00000000       0.014
   0.41666667  0.08333333  0.00000000       0.014
   0.50000000  0.08333333  0.00000000       0.007
   0.16666667  0.16666667  0.00000000       0.007
   0.25000000  0.16666667  0.00000000       0.014
   0.33333333  0.16666667  0.00000000       0.014
   0.41666667  0.16666667  0.00000000       0.014
   0.50000000  0.16666667  0.00000000       0.007
   0.25000000  0.25000000  0.00000000       0.007
   0.33333333  0.25000000  0.00000000       0.014
   0.41666667  0.25000000  0.00000000       0.014
   0.50000000  0.25000000  0.00000000       0.007
   0.33333333  0.33333333  0.00000000       0.007
   0.41666667  0.33333333  0.00000000       0.014
   0.50000000  0.33333333  0.00000000       0.007
   0.41666667  0.41666667  0.00000000       0.007
   0.50000000  0.41666667  0.00000000       0.007
   0.50000000  0.50000000  0.00000000       0.002
   0.08333333  0.08333333  0.08333333       0.005
   0.16666667  0.08333333  0.08333333       0.014
   0.25000000  0.08333333  0.08333333       0.014
   0.33333333  0.08333333  0.08333333       0.014
   0.41666667  0.08333333  0.08333333       0.014
   0.50000000  0.08333333  0.08333333       0.007
   0.16666667  0.16666667  0.08333333       0.014
   0.25000000  0.16666667  0.08333333       0.028
   0.33333333  0.16666667  0.08333333       0.028
   0.41666667  0.16666667  0.08333333       0.028
   0.50000000  0.16666667  0.08333333       0.014
   0.25000000  0.25000000  0.08333333       0.014
   0.33333333  0.25000000  0.08333333       0.028
   0.41666667  0.25000000  0.08333333       0.028
   0.50000000  0.25000000  0.08333333       0.014
   0.33333333  0.33333333  0.08333333       0.014
   0.41666667  0.33333333  0.08333333       0.028
   0.50000000  0.33333333  0.08333333       0.014
   0.41666667  0.41666667  0.08333333       0.014
   0.50000000  0.41666667  0.08333333       0.014
   0.50000000  0.50000000  0.08333333       0.003
   0.16666667  0.16666667  0.16666667       0.005
   0.25000000  0.16666667  0.16666667       0.014
   0.33333333  0.16666667  0.16666667       0.014
   0.41666667  0.16666667  0.16666667       0.014
   0.50000000  0.16666667  0.16666667       0.007
   0.25000000  0.25000000  0.16666667       0.014
   0.33333333  0.25000000  0.16666667       0.028
   0.41666667  0.25000000  0.16666667       0.028
   0.50000000  0.25000000  0.16666667       0.014
   0.33333333  0.33333333  0.16666667       0.014
   0.41666667  0.33333333  0.16666667       0.028
   0.50000000  0.33333333  0.16666667       0.014
   0.41666667  0.41666667  0.16666667       0.014
   0.50000000  0.41666667  0.16666667       0.014
   0.50000000  0.50000000  0.16666667       0.003
   0.25000000  0.25000000  0.25000000       0.005
   0.33333333  0.25000000  0.25000000       0.014
   0.41666667  0.25000000  0.25000000       0.014
   0.50000000  0.25000000  0.25000000       0.007
   0.33333333  0.33333333  0.25000000       0.014
   0.41666667  0.33333333  0.25000000       0.028
   0.50000000  0.33333333  0.25000000       0.014
   0.41666667  0.41666667  0.25000000       0.014
   0.50000000  0.41666667  0.25000000       0.014
   0.50000000  0.50000000  0.25000000       0.003
   0.33333333  0.33333333  0.33333333       0.005
   0.41666667  0.33333333  0.33333333       0.014
   0.50000000  0.33333333  0.33333333       0.007
   0.41666667  0.41666667  0.33333333       0.014
   0.50000000  0.41666667  0.33333333       0.014
   0.50000000  0.50000000  0.33333333       0.003
   0.41666667  0.41666667  0.41666667       0.005
   0.50000000  0.41666667  0.41666667       0.007
   0.50000000  0.50000000  0.41666667       0.003
   0.50000000  0.50000000  0.50000000       0.001
 
 position of ions in fractional coordinates (direct lattice) 
   0.25000000  0.75000000  0.25000000
   0.00000000  0.00000000  0.50000000
   0.25000000  0.25000000  0.75000000
   0.00000000  0.50000000  0.00000000
   0.75000000  0.75000000  0.75000000
   0.50000000  0.00000000  0.00000000
   0.75000000  0.25000000  0.25000000
   0.50000000  0.50000000  0.50000000
 
 position of ions in cartesian coordinates  (Angst):
   0.85694550  2.57083650  0.85694550
   0.00000000  0.00000000  1.71389100
   0.85694550  0.85694550  2.57083650
   0.00000000  1.71389100  0.00000000
   2.57083650  2.57083650  2.57083650
   1.71389100  0.00000000  0.00000000
   2.57083650  0.85694550  0.85694550
   1.71389100  1.71389100  1.71389100
 


--------------------------------------------------------------------------------------------------------


 k-point  1 :   0.0000 0.0000 0.0000  plane waves:     739
 k-point  2 :   0.0833 0.0000 0.0000  plane waves:     739
 k-point  3 :   0.1667 0.0000 0.0000  plane waves:     735
 k-point  4 :   0.2500 0.0000 0.0000  plane waves:     743
 k-point  5 :   0.3333 0.0000 0.0000  plane waves:     731
 k-point  6 :   0.4167 0.0000 0.0000  plane waves:     732
 k-point  7 :   0.5000 0.0000 0.0000  plane waves:     708
 k-point  8 :   0.0833 0.0833 0.0000  plane waves:     740
 k-point  9 :   0.1667 0.0833 0.0000  plane waves:     736
 k-point 10 :   0.2500 0.0833 0.0000  plane waves:     737
 k-point 11 :   0.3333 0.0833 0.0000  plane waves:     729
 k-point 12 :   0.4167 0.0833 0.0000  plane waves:     734
 k-point 13 :   0.5000 0.0833 0.0000  plane waves:     728
 k-point 14 :   0.1667 0.1667 0.0000  plane waves:     732
 k-point 15 :   0.2500 0.1667 0.0000  plane waves:     724
 k-point 16 :   0.3333 0.1667 0.0000  plane waves:     740
 k-point 17 :   0.4167 0.1667 0.0000  plane waves:     740
 k-point 18 :   0.5000 0.1667 0.0000  plane waves:     732
 k-point 19 :   0.2500 0.2500 0.0000  plane waves:     730
 k-point 20 :   0.3333 0.2500 0.0000  plane waves:     735
 k-point 21 :   0.4167 0.2500 0.0000  plane waves:     737
 k-point 22 :   0.5000 0.2500 0.0000  plane waves:     724
 k-point 23 :   0.3333 0.3333 0.0000  plane waves:     748
 k-point 24 :   0.4167 0.3333 0.0000  plane waves:     729
 k-point 25 :   0.5000 0.3333 0.0000  plane waves:     726
 k-point 26 :   0.4167 0.4167 0.0000  plane waves:     734
 k-point 27 :   0.5000 0.4167 0.0000  plane waves:     726
 k-point 28 :   0.5000 0.5000 0.0000  plane waves:     720
 k-point 29 :   0.0833 0.0833 0.0833  plane waves:     736
 k-point 30 :   0.1667 0.0833 0.0833  plane waves:     737
 k-point 31 :   0.2500 0.0833 0.0833  plane waves:     738
 k-point 32 :   0.3333 0.0833 0.0833  plane waves:     730
 k-point 33 :   0.4167 0.0833 0.0833  plane waves:     736
 k-point 34 :   0.5000 0.0833 0.0833  plane waves:     732
 k-point 35 :   0.1667 0.1667 0.0833  plane waves:     733
 k-point 36 :   0.2500 0.1667 0.0833  plane waves:     731
 k-point 37 :   0.3333 0.1667 0.0833  plane waves:     734
 k-point 38 :   0.4167 0.1667 0.0833  plane waves:     739
 k-point 39 :   0.5000 0.1667 0.0833  plane waves:     738
 k-point 40 :   0.2500 0.2500 0.0833  plane waves:     730
 k-point 41 :   0.3333 0.2500 0.0833  plane waves:     734
 k-point 42 :   0.4167 0.2500 0.0833  plane waves:     739
 k-point 43 :   0.5000 0.2500 0.0833  plane waves:     732
 k-point 44 :   0.3333 0.3333 0.0833  plane waves:     732
 k-point 45 :   0.4167 0.3333 0.0833  plane waves:     728
 k-point 46 :   0.5000 0.3333 0.0833  plane waves:     728
 k-point 47 :   0.4167 0.4167 0.0833  plane waves:     732
 k-point 48 :   0.5000 0.4167 0.0833  plane waves:     726
 k-point 49 :   0.5000 0.5000 0.0833  plane waves:     736
 k-point 50 :   0.1667 0.1667 0.1667  plane waves:     724
 k-point 51 :   0.2500 0.1667 0.1667  plane waves:     728
 k-point 52 :   0.3333 0.1667 0.1667  plane waves:     733
 k-point 53 :   0.4167 0.1667 0.1667  plane waves:     737
 k-point 54 :   0.5000 0.1667 0.1667  plane waves:     736
 k-point 55 :   0.2500 0.2500 0.1667  plane waves:     732
 k-point 56 :   0.3333 0.2500 0.1667  plane waves:     734
 k-point 57 :   0.4167 0.2500 0.1667  plane waves:     734
 k-point 58 :   0.5000 0.2500 0.1667  plane waves:     742
 k-point 59 :   0.3333 0.3333 0.1667  plane waves:     726
 k-point 60 :   0.4167 0.3333 0.1667  plane waves:     732
 k-point 61 :   0.5000 0.3333 0.1667  plane waves:     730
 k-point 62 :   0.4167 0.4167 0.1667  plane waves:     729
 k-point 63 :   0.5000 0.4167 0.1667  plane waves:     722
 k-point 64 :   0.5000 0.5000 0.1667  plane waves:     736
 k-point 65 :   0.2500 0.2500 0.2500  plane waves:     738
 k-point 66 :   0.3333 0.2500 0.2500  plane waves:     735
 k-point 67 :   0.4167 0.2500 0.2500  plane waves:     732
 k-point 68 :   0.5000 0.2500 0.2500  plane waves:     734
 k-point 69 :   0.3333 0.3333 0.2500  plane waves:     730
 k-point 70 :   0.4167 0.3333 0.2500  plane waves:     726
 k-point 71 :   0.5000 0.3333 0.2500  plane waves:     724
 k-point 72 :   0.4167 0.4167 0.2500  plane waves:     728
 k-point 73 :   0.5000 0.4167 0.2500  plane waves:     728
 k-point 74 :   0.5000 0.5000 0.2500  plane waves:     732
 k-point 75 :   0.3333 0.3333 0.3333  plane waves:     717
 k-point 76 :   0.4167 0.3333 0.3333  plane waves:     727
 k-point 77 :   0.5000 0.3333 0.3333  plane waves:     732
 k-point 78 :   0.4167 0.4167 0.3333  plane waves:     716
 k-point 79 :   0.5000 0.4167 0.3333  plane waves:     720
 k-point 80 :   0.5000 0.5000 0.3333  plane waves:     712
 k-point 81 :   0.4167 0.4167 0.4167  plane waves:     705
 k-point 82 :   0.5000 0.4167 0.4167  plane waves:     706
 k-point 83 :   0.5000 0.5000 0.4167  plane waves:     708
 k-point 84 :   0.5000 0.5000 0.5000  plane waves:     720

 maximum and minimum number of plane-waves per node :       195      170

 maximum number of plane-waves:       748
 maximum index in each direction: 
   IXMAX=    5   IYMAX=    5   IZMAX=    5
   IXMIN=   -6   IYMIN=   -6   IZMIN=   -6


 parallel 3D FFT for wavefunctions:
    minimum data exchange during FFTs selected (reduces bandwidth)
 parallel 3D FFT for charge:
    minimum data exchange during FFTs selected (reduces bandwidth)


 total amount of memory used by VASP MPI-rank0    33511. kBytes
=======================================================================

   base      :      30000. kBytes
   nonl-proj :       1034. kBytes
   fftplans  :        345. kBytes
   grid      :        481. kBytes
   one-center:          6. kBytes
   wavefun   :       1645. kBytes
 
     INWAV:  cpu time    0.0004: real time    0.0007
 Broyden mixing: mesh for mixing (old mesh)
   NGX = 11   NGY = 11   NGZ = 11
  (NGX  = 48   NGY  = 48   NGZ  = 48)
  gives a total of   1331 points

 initial charge density was supplied:
 charge density of overlapping atoms calculated
 number of electron      32.0000000 magnetization 
 keeping initial charge density in first step


--------------------------------------------------------------------------------------------------------


 Maximum index for augmentation-charges          293 (set IRDMAX)


--------------------------------------------------------------------------------------------------------


 First call to EWALD:  gamma=   0.517
 Maximum number of real-space cells 3x 3x 3
 Maximum number of reciprocal cells 3x 3x 3

    FEWALD:  cpu time    0.0053: real time    0.0053


--------------------------------------- Iteration      1(   1)  ---------------------------------------


    POTLOK:  cpu time    0.0266: real time    0.0324
    SETDIJ:  cpu time    0.0066: real time    0.0066
     EDDAV:  cpu time    4.1899: real time    4.2120
 BZINTS: Fermi energy: 20.455551; 32.000000 electrons
         Band energy: 152.634527;  BLOECHL correction: -0.093246
       DOS:  cpu time    0.1638: real time    0.1638
    --------------------------------------------
      LOOP:  cpu time    4.3870: real time    4.4149

 eigenvalue-minimisations  :  4032
 total energy-change (2. order) : 0.5877291E+02  (-0.1462635E+04)
 number of electron      32.0000000 magnetization 
 augmentation part       32.0000000 magnetization 

 Free energy of the ion-electron system (eV)
  ---------------------------------------------------
  alpha Z        PSCENC =       129.47689822
  Ewald energy   TEWEN  =     -1448.28344968
  -Hartree energ DENC   =       -60.41030705
  -exchange      EXHF   =         0.00000000
  -V(xc)+E(xc)   XCENC  =       117.54128325
  PAW double counting   =       302.65154477     -311.85538214
  entropy T*S    EENTRO =         0.00000000
  eigenvalues    EBANDS =       152.63452667
  atomic energy  EATOM  =      1177.01779097
  Solvation  Ediel_sol  =         0.00000000
  ---------------------------------------------------
  free energy    TOTEN  =        58.77290501 eV

  energy without entropy =       58.77290501  energy(sigma->0) =       58.77290501


--------------------------------------------------------------------------------------------------------




--------------------------------------- Iteration      1(   2)  ---------------------------------------


     EDDAV:  cpu time    5.0495: real time    5.0502
 BZINTS: Fermi energy: 10.700733; 32.000000 electrons
         Band energy:  22.461369;  BLOECHL correction:  0.000000
       DOS:  cpu time    0.0418: real time    0.1852
    --------------------------------------------
      LOOP:  cpu time    5.0913: real time    5.2354

 eigenvalue-minimisations  :  5552
 total energy-change (2. order) :-0.1301732E+03  (-0.1239799E+03)
 number of electron      32.0000000 magnetization 
 augmentation part       32.0000000 magnetization 

 Free energy of the ion-electron system (eV)
  ---------------------------------------------------
  alpha Z        PSCENC =       129.47689822
  Ewald energy   TEWEN  =     -1448.28344968
  -Hartree energ DENC   =       -60.41030705
  -exchange      EXHF   =         0.00000000
  -V(xc)+E(xc)   XCENC  =       117.54128325
  PAW double counting   =       302.65154477     -311.85538214
  entropy T*S    EENTRO =         0.00000000
  eigenvalues    EBANDS =        22.46136947
  atomic energy  EATOM  =      1177.01779097
  Solvation  Ediel_sol  =         0.00000000
  ---------------------------------------------------
  free energy    TOTEN  =       -71.40025218 eV

  energy without entropy =      -71.40025218  energy(sigma->0) =      -71.40025218


--------------------------------------------------------------------------------------------------------




--------------------------------------- Iteration      1(   3)  ---------------------------------------


     EDDAV:  cpu time    4.9417: real time    4.9449
 BZINTS: Fermi energy:  9.920766; 32.000000 electrons
         Band energy:  18.600694;  BLOECHL correction:  0.000000
       DOS:  cpu time    0.0370: real time    0.0436
    --------------------------------------------
      LOOP:  cpu time    4.9787: real time    4.9885

 eigenvalue-minimisations  :  5192
 total energy-change (2. order) :-0.3860676E+01  (-0.3843486E+01)
 number of electron      32.0000000 magnetization 
 augmentation part       32.0000000 magnetization 

 Free energy of the ion-electron system (eV)
  ---------------------------------------------------
  alpha Z        PSCENC =       129.47689822
  Ewald energy   TEWEN  =     -1448.28344968
  -Hartree energ DENC   =       -60.41030705
  -exchange      EXHF   =         0.00000000
  -V(xc)+E(xc)   XCENC  =       117.54128325
  PAW double counting   =       302.65154477     -311.85538214
  entropy T*S    EENTRO =         0.00000000
  eigenvalues    EBANDS =        18.60069354
  atomic energy  EATOM  =      1177.01779097
  Solvation  Ediel_sol  =         0.00000000
  ---------------------------------------------------
  free energy    TOTEN  =       -75.26092812 eV

  energy without entropy =      -75.26092812  energy(sigma->0) =      -75.26092812


--------------------------------------------------------------------------------------------------------




--------------------------------------- Iteration      1(   4)  ---------------------------------------


     EDDAV:  cpu time    4.7537: real time    4.7544
 BZINTS: Fermi energy:  9.899742; 32.000000 electrons
         Band energy:  18.569736;  BLOECHL correction:  0.000000
       DOS:  cpu time    0.0367: real time    0.0367
    --------------------------------------------
      LOOP:  cpu time    4.7904: real time    4.7911

 eigenvalue-minimisations  :  4976
 total energy-change (2. order) :-0.3095754E-01  (-0.3092452E-01)
 number of electron      32.0000000 magnetization 
 augmentation part       32.0000000 magnetization 

 Free energy of the ion-electron system (eV)
  ---------------------------------------------------
  alpha Z        PSCENC =       129.47689822
  Ewald energy   TEWEN  =     -1448.28344968
  -Hartree energ DENC   =       -60.41030705
  -exchange      EXHF   =         0.00000000
  -V(xc)+E(xc)   XCENC  =       117.54128325
  PAW double counting   =       302.65154477     -311.85538214
  entropy T*S    EENTRO =         0.00000000
  eigenvalues    EBANDS =        18.56973599
  atomic energy  EATOM  =      1177.01779097
  Solvation  Ediel_sol  =         0.00000000
  ---------------------------------------------------
  free energy    TOTEN  =       -75.29188566 eV

  energy without entropy =      -75.29188566  energy(sigma->0) =      -75.29188566


--------------------------------------------------------------------------------------------------------




--------------------------------------- Iteration      1(   5)  ---------------------------------------


     EDDAV:  cpu time    5.0268: real time    5.0279
 BZINTS: Fermi energy:  9.983019; 32.000000 electrons
         Band energy:  18.569229;  BLOECHL correction:  0.000000
       DOS:  cpu time    0.0370: real time    0.0370
    CHARGE:  cpu time    0.1269: real time    0.1269
    MIXING:  cpu time    0.0019: real time    0.0019
    --------------------------------------------
      LOOP:  cpu time    5.1926: real time    5.1937

 eigenvalue-minimisations  :  5160
 total energy-change (2. order) :-0.5070479E-03  (-0.5069363E-03)
 number of electron      31.9999968 magnetization 
 augmentation part        0.8891097 magnetization 

 Broyden mixing:
  rms(total) = 0.10966E+01    rms(broyden)= 0.10964E+01
  rms(prec ) = 0.26574E+01
  weight for this iteration     100.00

 Free energy of the ion-electron system (eV)
  ---------------------------------------------------
  alpha Z        PSCENC =       129.47689822
  Ewald energy   TEWEN  =     -1448.28344968
  -Hartree energ DENC   =       -60.41030705
  -exchange      EXHF   =         0.00000000
  -V(xc)+E(xc)   XCENC  =       117.54128325
  PAW double counting   =       302.65154477     -311.85538214
  entropy T*S    EENTRO =         0.00000000
  eigenvalues    EBANDS =        18.56922894
  atomic energy  EATOM  =      1177.01779097
  Solvation  Ediel_sol  =         0.00000000
  ---------------------------------------------------
  free energy    TOTEN  =       -75.29239271 eV

  energy without entropy =      -75.29239271  energy(sigma->0) =      -75.29239271


--------------------------------------------------------------------------------------------------------




--------------------------------------- Iteration      1(   6)  ---------------------------------------


    POTLOK:  cpu time    0.0206: real time    0.0210
    SETDIJ:  cpu time    0.0059: real time    0.0059
     EDDAV:  cpu time    4.4329: real time    4.4332
 BZINTS: Fermi energy: 10.776935; 32.000000 electrons
         Band energy:  37.059254;  BLOECHL correction:  0.000000
       DOS:  cpu time    0.0368: real time    0.0368
    CHARGE:  cpu time    0.1295: real time    0.1295
    MIXING:  cpu time    0.0018: real time    0.0018
    --------------------------------------------
      LOOP:  cpu time    4.6275: real time    4.6281

 eigenvalue-minimisations  :  4416
 total energy-change (2. order) : 0.2672385E+01  (-0.1726528E+00)
 number of electron      31.9999968 magnetization 
 augmentation part        0.8669139 magnetization 

 Broyden mixing:
  rms(total) = 0.59054E+00    rms(broyden)= 0.59053E+00
  rms(prec ) = 0.14177E+01
  weight for this iteration     100.00

 eigenvalues of (default mixing * dielectric matrix)
  average eigenvalue GAMMA=   2.1293
  2.1293

 Free energy of the ion-electron system (eV)
  ---------------------------------------------------
  alpha Z        PSCENC =       129.47689822
  Ewald energy   TEWEN  =     -1448.28344968
  -Hartree energ DENC   =       -77.09113846
  -exchange      EXHF   =         0.00000000
  -V(xc)+E(xc)   XCENC  =       119.12177393
  PAW double counting   =       418.50561833     -428.42675512
  entropy T*S    EENTRO =         0.00000000
  eigenvalues    EBANDS =        37.05925447
  atomic energy  EATOM  =      1177.01779097
  Solvation  Ediel_sol  =         0.00000000
  ---------------------------------------------------
  free energy    TOTEN  =       -72.62000734 eV

  energy without entropy =      -72.62000734  energy(sigma->0) =      -72.62000734


--------------------------------------------------------------------------------------------------------




--------------------------------------- Iteration      1(   7)  ---------------------------------------


    POTLOK:  cpu time    0.0289: real time    0.0292
    SETDIJ:  cpu time    0.0058: real time    0.0058
     EDDAV:  cpu time    4.4686: real time    4.4688
 BZINTS: Fermi energy: 11.630297; 32.000000 electrons
         Band energy:  57.942686;  BLOECHL correction:  0.000000
       DOS:  cpu time    0.0370: real time    0.0370
    CHARGE:  cpu time    0.1218: real time    0.1218
    MIXING:  cpu time    0.0020: real time    0.0020
    --------------------------------------------
      LOOP:  cpu time    4.6642: real time    4.6647

 eigenvalue-minimisations  :  4584
 total energy-change (2. order) : 0.8981864E+00  (-0.1890217E+00)
 number of electron      31.9999969 magnetization 
 augmentation part        0.8428647 magnetization 

 Broyden mixing:
  rms(total) = 0.72565E-01    rms(broyden)= 0.72239E-01
  rms(prec ) = 0.12687E+00
  weight for this iteration     100.00

 eigenvalues of (default mixing * dielectric matrix)
  average eigenvalue GAMMA=   2.2687
  2.0015  2.5359

 Free energy of the ion-electron system (eV)
  ---------------------------------------------------
  alpha Z        PSCENC =       129.47689822
  Ewald energy   TEWEN  =     -1448.28344968
  -Hartree energ DENC   =       -98.42249281
  -exchange      EXHF   =         0.00000000
  -V(xc)+E(xc)   XCENC  =       121.15528085
  PAW double counting   =       579.86352516     -590.47206005
  entropy T*S    EENTRO =         0.00000000
  eigenvalues    EBANDS =        57.94268639
  atomic energy  EATOM  =      1177.01779097
  Solvation  Ediel_sol  =         0.00000000
  ---------------------------------------------------
  free energy    TOTEN  =       -71.72182095 eV

  energy without entropy =      -71.72182095  energy(sigma->0) =      -71.72182095


--------------------------------------------------------------------------------------------------------




--------------------------------------- Iteration      1(   8)  ---------------------------------------


    POTLOK:  cpu time    0.0212: real time    0.0216
    SETDIJ:  cpu time    0.0058: real time    0.0058
     EDDAV:  cpu time    4.6615: real time    4.6620
 BZINTS: Fermi energy: 11.636463; 32.000000 electrons
         Band energy:  58.362335;  BLOECHL correction:  0.000000
       DOS:  cpu time    0.0366: real time    0.0366
    CHARGE:  cpu time    0.1250: real time    0.1250
    MIXING:  cpu time    0.0017: real time    0.0017
    --------------------------------------------
      LOOP:  cpu time    4.8517: real time    4.8527

 eigenvalue-minimisations  :  5000
 total energy-change (2. order) :-0.8837849E-02  (-0.3451293E-02)
 number of electron      31.9999969 magnetization 
 augmentation part        0.8427420 magnetization 

 Broyden mixing:
  rms(total) = 0.89194E-02    rms(broyden)= 0.88086E-02
  rms(prec ) = 0.15691E-01
  weight for this iteration     100.00

 eigenvalues of (default mixing * dielectric matrix)
  average eigenvalue GAMMA=   2.0957
  1.4338  2.6976  2.1558

 Free energy of the ion-electron system (eV)
  ---------------------------------------------------
  alpha Z        PSCENC =       129.47689822
  Ewald energy   TEWEN  =     -1448.28344968
  -Hartree energ DENC   =       -99.05008582
  -exchange      EXHF   =         0.00000000
  -V(xc)+E(xc)   XCENC  =       121.22076583
  PAW double counting   =       596.44121572     -606.91612950
  entropy T*S    EENTRO =         0.00000000
  eigenvalues    EBANDS =        58.36233546
  atomic energy  EATOM  =      1177.01779097
  Solvation  Ediel_sol  =         0.00000000
  ---------------------------------------------------
  free energy    TOTEN  =       -71.73065880 eV

  energy without entropy =      -71.73065880  energy(sigma->0) =      -71.73065880


--------------------------------------------------------------------------------------------------------




--------------------------------------- Iteration      1(   9)  ---------------------------------------


    POTLOK:  cpu time    0.0225: real time    0.0229
    SETDIJ:  cpu time    0.0058: real time    0.0058
     EDDAV:  cpu time    4.5718: real time    4.5721
 BZINTS: Fermi energy: 11.627377; 32.000000 electrons
         Band energy:  58.244949;  BLOECHL correction:  0.000000
       DOS:  cpu time    0.0372: real time    0.0372
    CHARGE:  cpu time    0.1252: real time    0.1252
    MIXING:  cpu time    0.0018: real time    0.0018
    --------------------------------------------
      LOOP:  cpu time    4.7643: real time    4.7650

 eigenvalue-minimisations  :  4784
 total energy-change (2. order) :-0.1902034E-03  (-0.4276103E-04)
 number of electron      31.9999969 magnetization 
 augmentation part        0.8427510 magnetization 

 Broyden mixing:
  rms(total) = 0.29655E-02    rms(broyden)= 0.29567E-02
  rms(prec ) = 0.51244E-02
  weight for this iteration     100.00

 eigenvalues of (default mixing * dielectric matrix)
  average eigenvalue GAMMA=   2.0292
  0.9713  2.7327  2.4183  1.9946

 Free energy of the ion-electron system (eV)
  ---------------------------------------------------
  alpha Z        PSCENC =       129.47689822
  Ewald energy   TEWEN  =     -1448.28344968
  -Hartree energ DENC   =       -98.94074458
  -exchange      EXHF   =         0.00000000
  -V(xc)+E(xc)   XCENC  =       121.21043925
  PAW double counting   =       595.92565550     -606.38238818
  entropy T*S    EENTRO =         0.00000000
  eigenvalues    EBANDS =        58.24494949
  atomic energy  EATOM  =      1177.01779097
  Solvation  Ediel_sol  =         0.00000000
  ---------------------------------------------------
  free energy    TOTEN  =       -71.73084901 eV

  energy without entropy =      -71.73084901  energy(sigma->0) =      -71.73084901


--------------------------------------------------------------------------------------------------------




--------------------------------------- Iteration      1(  10)  ---------------------------------------


    POTLOK:  cpu time    0.0208: real time    0.0212
    SETDIJ:  cpu time    0.0058: real time    0.0058
     EDDAV:  cpu time    4.6871: real time    4.6877
 BZINTS: Fermi energy: 11.624140; 32.000000 electrons
         Band energy:  58.273833;  BLOECHL correction:  0.000000
       DOS:  cpu time    0.0366: real time    0.0366
    CHARGE:  cpu time    0.1229: real time    0.1229
    MIXING:  cpu time    0.0024: real time    0.0024
    --------------------------------------------
      LOOP:  cpu time    4.8756: real time    4.8765

 eigenvalue-minimisations  :  4984
 total energy-change (2. order) :-0.4558667E-04  (-0.3442220E-05)
 number of electron      31.9999969 magnetization 
 augmentation part        0.8427322 magnetization 

 Broyden mixing:
  rms(total) = 0.28853E-03    rms(broyden)= 0.28386E-03
  rms(prec ) = 0.68998E-03
  weight for this iteration     100.00

 eigenvalues of (default mixing * dielectric matrix)
  average eigenvalue GAMMA=   1.9424
  2.8961  2.5549  2.0577  0.9952  1.2082

 Free energy of the ion-electron system (eV)
  ---------------------------------------------------
  alpha Z        PSCENC =       129.47689822
  Ewald energy   TEWEN  =     -1448.28344968
  -Hartree energ DENC   =       -98.97109602
  -exchange      EXHF   =         0.00000000
  -V(xc)+E(xc)   XCENC  =       121.21287657
  PAW double counting   =       595.11615260     -605.57390020
  entropy T*S    EENTRO =         0.00000000
  eigenvalues    EBANDS =        58.27383295
  atomic energy  EATOM  =      1177.01779097
  Solvation  Ediel_sol  =         0.00000000
  ---------------------------------------------------
  free energy    TOTEN  =       -71.73089459 eV

  energy without entropy =      -71.73089459  energy(sigma->0) =      -71.73089459


--------------------------------------------------------------------------------------------------------




--------------------------------------- Iteration      1(  11)  ---------------------------------------


    POTLOK:  cpu time    0.0207: real time    0.0616
    SETDIJ:  cpu time    0.0058: real time    0.0058
     EDDAV:  cpu time    3.9650: real time    3.9653
 BZINTS: Fermi energy: 11.621375; 32.000000 electrons
         Band energy:  58.286169;  BLOECHL correction:  0.000000
       DOS:  cpu time    0.0366: real time    0.0366
    --------------------------------------------
      LOOP:  cpu time    4.0281: real time    4.0692

 eigenvalue-minimisations  :  3704
 total energy-change (2. order) :-0.7831763E-06  (-0.9596577E-07)
 number of electron      31.9999969 magnetization 
 augmentation part        0.8427322 magnetization 

 Free energy of the ion-electron system (eV)
  ---------------------------------------------------
  alpha Z        PSCENC =       129.47689822
  Ewald energy   TEWEN  =     -1448.28344968
  -Hartree energ DENC   =       -98.98403011
  -exchange      EXHF   =         0.00000000
  -V(xc)+E(xc)   XCENC  =       121.21406253
  PAW double counting   =       595.11887552     -605.57721150
  entropy T*S    EENTRO =         0.00000000
  eigenvalues    EBANDS =        58.28616866
  atomic energy  EATOM  =      1177.01779097
  Solvation  Ediel_sol  =         0.00000000
  ---------------------------------------------------
  free energy    TOTEN  =       -71.73089538 eV

  energy without entropy =      -71.73089538  energy(sigma->0) =      -71.73089538


--------------------------------------------------------------------------------------------------------




 average (electrostatic) potential at core
  the test charge radii are     0.6991
  (the norm of the test charge is              1.0000)
       1 -43.6065       2 -43.6065       3 -43.6065       4 -43.6065       5 -43.6065
       6 -43.6065       7 -43.6065       8 -43.6065
 
 
 
 E-fermi :  11.6214     XC(G=0): -13.8281     alpha+bet :-19.9407


 k-point     1 :       0.0000    0.0000    0.0000
  band No.  band energies     occupation 
      1     -11.5847      2.00000
      2      -2.0923      2.00000
      3      -2.0923      2.00000
      4      -2.0923      2.00000
      5      -2.0923      2.00000
      6      -2.0923      2.00000
      7      -2.0923      2.00000
      8       4.5082      2.00000
      9       4.5082      2.00000
     10       4.5082      2.00000
     11       4.5082      2.00000
     12       4.5082      2.00000
     13       4.5082      2.00000
     14      11.5712      2.00000
     15      11.5712      2.00000
     16      11.5712      2.00000
     17      16.5687      0.00000
     18      16.5687      0.00000
     19      16.5687      0.00000
     20      16.5687      0.00000
     21      16.5687      0.00000
     22      16.5687      0.00000
     23      17.5082      0.00000
     24      17.5082      0.00000

 k-point     2 :       0.0833    0.0000    0.0000
  band No.  band energies     occupation 
      1     -11.5153      2.00000
      2      -3.5164      2.00000
      3      -2.0434      2.00000
      4      -2.0434      2.00000
      5      -2.0434      2.00000
      6      -2.0434      2.00000
      7      -0.6007      2.00000
      8       4.3492      2.00000
      9       4.3492      2.00000
     10       4.3492      2.00000
     11       4.3492      2.00000
     12       4.5774      2.00000
     13       4.5774      2.00000
     14      11.2667      2.00000
     15      11.2667      2.00000
     16      11.4146      2.00000
     17      16.2353      0.00000
     18      16.8573      0.00000
     19      16.8573      0.00000
     20      16.8573      0.00000
     21      16.8573      0.00000
     22      17.0611      0.00000
     23      17.4563      0.00000
     24      17.8769      0.00000

 k-point     3 :       0.1667    0.0000    0.0000
  band No.  band energies     occupation 
      1     -11.3071      2.00000
      2      -4.8542      2.00000
      3      -1.9010      2.00000
      4      -1.9010      2.00000
      5      -1.9010      2.00000
      6      -1.9010      2.00000
      7       0.9351      2.00000
      8       3.9255      2.00000
      9       3.9255      2.00000
     10       3.9255      2.00000
     11       3.9255      2.00000
     12       4.7842      2.00000
     13       4.7842      2.00000
     14      10.5229      2.00000
     15      10.5229      2.00000
     16      10.9589      2.00000
     17      16.0424      0.00000
     18      17.2998      0.00000
     19      17.6699      0.00000
     20      17.6699      0.00000
     21      17.6699      0.00000
     22      17.6699      0.00000
     23      17.7325      0.00000
     24      18.8057      0.00000

 k-point     4 :       0.2500    0.0000    0.0000
  band No.  band energies     occupation 
      1     -10.9608      2.00000
      2      -6.0920      2.00000
      3      -1.6814      2.00000
      4      -1.6814      2.00000
      5      -1.6814      2.00000
      6      -1.6814      2.00000
      7       2.4863      2.00000
      8       3.3552      2.00000
      9       3.3552      2.00000
     10       3.3552      2.00000
     11       3.3552      2.00000
     12       5.1268      2.00000
     13       5.1268      2.00000
     14       9.6009      2.00000
     15       9.6009      2.00000
     16      10.2400      2.00000
     17      15.9667      0.00000
     18      17.0818      0.00000
     19      18.6036      0.00000
     20      18.8797      0.00000
     21      18.8797      0.00000
     22      18.8797      0.00000
     23      18.8797      0.00000
     24      20.0412      0.00000

 k-point     5 :       0.3333    0.0000    0.0000
  band No.  band energies     occupation 
      1     -10.4774      2.00000
      2      -7.2183      2.00000
      3      -1.4200      2.00000
      4      -1.4200      2.00000
      5      -1.4200      2.00000
      6      -1.4200      2.00000
      7       2.7783      2.00000
      8       2.7783      2.00000
      9       2.7783      2.00000
     10       2.7783      2.00000
     11       4.0203      2.00000
     12       5.6031      2.00000
     13       5.6031      2.00000
     14       8.6507      2.00000
     15       8.6507      2.00000
     16       9.2999      2.00000
     17      16.0019      0.00000
     18      16.8245      0.00000
     19      19.6932      0.00000
     20      20.3414      0.00000
     21      20.3414      0.00000
     22      20.3414      0.00000
     23      20.3414      0.00000
     24      21.4222      0.00000

 k-point     6 :       0.4167    0.0000    0.0000
  band No.  band energies     occupation 
      1      -9.8586      2.00000
      2      -8.2252      2.00000
      3      -1.1869      2.00000
      4      -1.1869      2.00000
      5      -1.1869      2.00000
      6      -1.1869      2.00000
      7       2.3307      2.00000
      8       2.3307      2.00000
      9       2.3307      2.00000
     10       2.3307      2.00000
     11       5.5030      2.00000
     12       6.2048      2.00000
     13       6.2048      2.00000
     14       7.7450      2.00000
     15       7.7450      2.00000
     16       8.1728      2.00000
     17      16.1246      0.00000
     18      16.5614      0.00000
     19      21.0103      0.00000
     20      21.8552      0.00000
     21      21.8552      0.00000
     22      21.8552      0.00000
     23      21.8553      0.00000
     24      22.8634      0.00000

 k-point     7 :       0.5000    0.0000    0.0000
  band No.  band energies     occupation 
      1      -9.1068      2.00000
      2      -9.1068      2.00000
      3      -1.0877      2.00000
      4      -1.0877      2.00000
      5      -1.0877      2.00000
      6      -1.0877      2.00000
      7       2.1584      2.00000
      8       2.1584      2.00000
      9       2.1584      2.00000
     10       2.1584      2.00000
     11       6.8973      2.00000
     12       6.8973      2.00000
     13       6.9227      2.00000
     14       6.9227      2.00000
     15       6.9227      2.00000
     16       6.9227      2.00000
     17      16.3185      0.00000
     18      16.3185      0.00000
     19      22.5374      0.00000
     20      22.5374      0.00000
     21      22.7551      0.00000
     22      22.7551      0.00000
     23      22.7551      0.00000
     24      22.7551      0.00000

 k-point     8 :       0.0833    0.0833    0.0000
  band No.  band energies     occupation 
      1     -11.4458      2.00000
      2      -3.4600      2.00000
      3      -3.4600      2.00000
      4      -2.0225      2.00000
      5      -1.9698      2.00000
      6      -0.5645      2.00000
      7      -0.5645      2.00000
      8       3.8027      2.00000
      9       4.4067      2.00000
     10       4.4067      2.00000
     11       4.4355      2.00000
     12       4.4355      2.00000
     13       4.6276      2.00000
     14      10.7959      2.00000
     15      10.9750      2.00000
     16      11.4851      2.00000
     17      16.5303      0.00000
     18      16.5303      0.00000
     19      16.6790      0.00000
     20      17.3413      0.00000
     21      17.3413      0.00000
     22      17.5663      0.00000
     23      17.6535      0.00000
     24      17.9814      0.00000

 k-point     9 :       0.1667    0.0833    0.0000
  band No.  band energies     occupation 
      1     -11.2378      2.00000
      2      -4.7936      2.00000
      3      -3.2935      2.00000
      4      -1.9215      2.00000
      5      -1.7991      2.00000
      6      -0.4648      2.00000
      7       0.9477      2.00000
      8       3.1069      2.00000
      9       3.9500      2.00000
     10       4.0630      2.00000
     11       4.5890      2.00000
     12       4.6050      2.00000
     13       4.6706      2.00000
     14       9.9917      2.00000
     15      10.2567      2.00000
     16      11.2013      2.00000
     17      16.3392      0.00000
     18      17.0735      0.00000
     19      17.3592      0.00000
     20      17.5870      0.00000
     21      18.0022      0.00000
     22      18.1315      0.00000
     23      18.6928      0.00000
     24      18.8146      0.00000

 k-point    10 :       0.2500    0.0833    0.0000
  band No.  band energies     occupation 
      1     -10.8916      2.00000
      2      -6.0283      2.00000
      3      -3.0256      2.00000
      4      -1.7748      2.00000
      5      -1.5374      2.00000
      6      -0.3335      2.00000
      7       2.4015      2.00000
      8       2.4519      2.00000
      9       3.3258      2.00000
     10       3.5855      2.00000
     11       4.2878      2.00000
     12       4.9399      2.00000
     13       5.0644      2.00000
     14       9.0607      2.00000
     15       9.3552      2.00000
     16      10.5798      2.00000
     17      16.2699      0.00000
     18      17.3780      0.00000
     19      17.9755      0.00000
     20      18.5888      0.00000
     21      18.8601      0.00000
     22      19.3051      0.00000
     23      20.0295      0.00000
     24      20.0814      0.00000

 k-point    11 :       0.3333    0.0833    0.0000
  band No.  band energies     occupation 
      1     -10.4086      2.00000
      2      -7.1527      2.00000
      3      -2.6740      2.00000
      4      -1.6544      2.00000
      5      -1.2025      2.00000
      6      -0.2367      2.00000
      7       1.8294      2.00000
      8       2.6621      2.00000
      9       3.1641      2.00000
     10       3.8430      2.00000
     11       3.8839      2.00000
     12       5.4087      2.00000
     13       5.6457      2.00000
     14       8.0984      2.00000
     15       8.4205      2.00000
     16       9.7072      2.00000
     17      16.3066      0.00000
     18      17.1260      0.00000
     19      19.2453      0.00000
     20      19.9336      0.00000
     21      20.0904      0.00000
     22      20.6936      0.00000
     23      21.3606      0.00000
     24      21.4072      0.00000

 k-point    12 :       0.4167    0.0833    0.0000
  band No.  band energies     occupation 
      1      -9.7903      2.00000
      2      -8.1584      2.00000
      3      -2.2764      2.00000
      4      -1.6748      2.00000
      5      -0.8305      2.00000
      6      -0.2704      2.00000
      7       1.5491      2.00000
      8       2.0657      2.00000
      9       2.9583      2.00000
     10       3.3879      2.00000
     11       5.1455      2.00000
     12       6.0032      2.00000
     13       6.4669      2.00000
     14       7.1460      2.00000
     15       7.5264      2.00000
     16       8.6570      2.00000
     17      16.4310      0.00000
     18      16.8640      0.00000
     19      20.6982      0.00000
     20      21.2301      0.00000
     21      21.7180      0.00000
     22      21.9534      0.00000
     23      22.7134      0.00000
     24      22.8544      0.00000

 k-point    13 :       0.5000    0.0833    0.0000
  band No.  band energies     occupation 
      1      -9.0391      2.00000
      2      -9.0391      2.00000
      3      -1.9053      2.00000
      4      -1.9053      2.00000
      5      -0.4876      2.00000
      6      -0.4876      2.00000
      7       1.6513      2.00000
      8       1.6513      2.00000
      9       3.0517      2.00000
     10       3.0517      2.00000
     11       6.1945      2.00000
     12       6.1945      2.00000
     13       6.7134      2.00000
     14       6.7134      2.00000
     15       7.5261      2.00000
     16       7.5261      2.00000
     17      16.6244      0.00000
     18      16.6244      0.00000
     19      21.9769      0.00000
     20      21.9769      0.00000
     21      22.7296      0.00000
     22      22.7296      0.00000
     23      23.1923      0.00000
     24      23.1924      0.00000

 k-point    14 :       0.1667    0.1667    0.0000
  band No.  band energies     occupation 
      1     -11.0300      2.00000
      2      -4.6126      2.00000
      3      -4.6126      2.00000
      4      -1.8933      2.00000
      5      -1.6031      2.00000
      6       0.9678      2.00000
      7       0.9678      2.00000
      8       2.2740      2.00000
      9       4.1242      2.00000
     10       4.1242      2.00000
     11       4.3860      2.00000
     12       4.3860      2.00000
     13       4.9821      2.00000
     14       9.1330      2.00000
     15       9.5851      2.00000
     16      11.2146      2.00000
     17      17.0078      0.00000
     18      17.1787      0.00000
     19      17.1787      0.00000
     20      18.0809      0.00000
     21      18.7619      0.00000
     22      18.7619      0.00000
     23      19.0668      0.00000
     24      19.4551      0.00000

 k-point    15 :       0.2500    0.1667    0.0000
  band No.  band energies     occupation 
      1     -10.6845      2.00000
      2      -5.8381      2.00000
      3      -4.3164      2.00000
      4      -1.8886      2.00000
      5      -1.3120      2.00000
      6       0.9375      2.00000
      7       1.5739      2.00000
      8       2.3211      2.00000
      9       3.4664      2.00000
     10       4.0711      2.00000
     11       4.4407      2.00000
     12       4.9370      2.00000
     13       5.0574      2.00000
     14       8.1926      2.00000
     15       8.7257      2.00000
     16      10.8357      2.00000
     17      17.1169      0.00000
     18      17.5012      0.00000
     19      18.1109      0.00000
     20      18.4236      0.00000
     21      19.5814      0.00000
     22      19.8846      0.00000
     23      20.0468      0.00000
     24      20.2299      0.00000

 k-point    16 :       0.3333    0.1667    0.0000
  band No.  band energies     occupation 
      1     -10.2024      2.00000
      2      -6.9567      2.00000
      3      -3.9152      2.00000
      4      -2.0275      2.00000
      5      -0.9342      2.00000
      6       0.7739      2.00000
      7       1.1719      2.00000
      8       2.7512      2.00000
      9       3.5028      2.00000
     10       3.8936      2.00000
     11       4.8724      2.00000
     12       4.8901      2.00000
     13       5.7671      2.00000
     14       7.2395      2.00000
     15       7.8224      2.00000
     16      10.1184      2.00000
     17      17.1522      0.00000
     18      17.9173      0.00000
     19      18.4735      0.00000
     20      19.9393      0.00000
     21      20.6034      0.00000
     22      21.1421      0.00000
     23      21.2107      0.00000
     24      21.3769      0.00000

 k-point    17 :       0.4167    0.1667    0.0000
  band No.  band energies     occupation 
      1      -9.5855      2.00000
      2      -7.9583      2.00000
      3      -3.4280      2.00000
      4      -2.3869      2.00000
      5      -0.4879      2.00000
      6       0.4397      2.00000
      7       1.1744      2.00000
      8       2.0748      2.00000
      9       3.9481      2.00000
     10       4.4994      2.00000
     11       4.5443      2.00000
     12       5.4672      2.00000
     13       6.3091      2.00000
     14       6.8458      2.00000
     15       6.9533      2.00000
     16       9.1489      2.00000
     17      17.2742      0.00000
     18      17.6847      0.00000
     19      19.7692      0.00000
     20      21.6120      0.00000
     21      21.8263      0.00000
     22      21.8927      0.00000
     23      22.3028      0.00000
     24      22.8260      0.00000

 k-point    18 :       0.5000    0.1667    0.0000
  band No.  band energies     occupation 
      1      -8.8362      2.00000
      2      -8.8362      2.00000
      3      -2.8935      2.00000
      4      -2.8935      2.00000
      5      -0.0092      2.00000
      6      -0.0092      2.00000
      7       1.5173      2.00000
      8       1.5173      2.00000
      9       4.1984      2.00000
     10       4.1984      2.00000
     11       5.4064      2.00000
[...]

 k-point    72 :       0.4167    0.4167    0.2500
  band No.  band energies     occupation 
      1      -7.5703      2.00000
      2      -6.0263      2.00000
      3      -6.0263      2.00000
      4      -4.7106      2.00000
      5      -2.2017      2.00000
      6      -0.9336      2.00000
      7      -0.9336      2.00000
      8       0.5414      2.00000
      9       5.5716      2.00000
     10       6.4050      2.00000
     11       6.4050      2.00000
     12       7.5493      2.00000
     13       7.5725      2.00000
     14       7.7598      2.00000
     15       7.7598      2.00000
     16       8.9703      2.00000
     17      19.5799      0.00000
     18      20.0946      0.00000
     19      20.0946      0.00000
     20      20.5531      0.00000
     21      20.8172      0.00000
     22      21.5865      0.00000
     23      21.5866      0.00000
     24      22.2715      0.00000

 k-point    73 :       0.5000    0.4167    0.2500
  band No.  band energies     occupation 
      1      -6.8524      2.00000
      2      -6.8524      2.00000
      3      -5.3764      2.00000
      4      -5.3764      2.00000
      5      -1.6761      2.00000
      6      -1.6761      2.00000
      7      -0.2609      2.00000
      8      -0.2609      2.00000
      9       6.0062      2.00000
     10       6.0062      2.00000
     11       7.0140      2.00000
     12       7.0140      2.00000
     13       7.7944      2.00000
     14       7.7944      2.00000
     15       8.5100      2.00000
     16       8.5100      2.00000
     17      20.1111      0.00000
     18      20.1111      0.00000
     19      20.3944      0.00000
     20      20.3944      0.00000
     21      21.1395      0.00000
     22      21.1395      0.00000
     23      21.7462      0.00000
     24      21.7462      0.00000

 k-point    74 :       0.5000    0.5000    0.2500
  band No.  band energies     occupation 
      1      -6.1566      2.00000
      2      -6.1566      2.00000
      3      -6.1566      2.00000
      4      -6.1566      2.00000
      5      -1.0445      2.00000
      6      -1.0445      2.00000
      7      -1.0445      2.00000
      8      -1.0445      2.00000
      9       6.5261      2.00000
     10       6.5261      2.00000
     11       6.5261      2.00000
     12       6.5261      2.00000
     13       8.3161      2.00000
     14       8.3161      2.00000
     15       8.3161      2.00000
     16       8.3161      2.00000
     17      20.3459      0.00000
     18      20.3459      0.00000
     19      20.3459      0.00000
     20      20.3459      0.00000
     21      21.4025      0.00000
     22      21.4025      0.00000
     23      21.4025      0.00000
     24      21.4025      0.00000

 k-point    75 :       0.3333    0.3333    0.3333
  band No.  band energies     occupation 
      1      -8.3017      2.00000
      2      -5.2439      2.00000
      3      -5.2439      2.00000
      4      -5.2439      2.00000
      5      -1.5735      2.00000
      6      -1.5735      2.00000
      7      -1.5735      2.00000
      8       1.3526      2.00000
      9       6.1226      2.00000
     10       6.1226      2.00000
     11       6.1226      2.00000
     12       7.1205      2.00000
     13       7.1205      2.00000
     14       7.1205      2.00000
     15       8.9758      2.00000
     16       8.9758      2.00000
     17      19.1026      0.00000
     18      19.1026      0.00000
     19      19.1026      0.00000
     20      20.4273      0.00000
     21      20.4273      0.00000
     22      21.5598      0.00000
     23      23.1669      0.00000
     24      23.1669      0.00000

 k-point    76 :       0.4167    0.3333    0.3333
  band No.  band energies     occupation 
      1      -7.7031      2.00000
      2      -6.1537      2.00000
      3      -4.8273      2.00000
      4      -4.8273      2.00000
      5      -2.3390      2.00000
      6      -2.3390      2.00000
      7      -1.0565      2.00000
      8       0.4298      2.00000
      9       6.3484      2.00000
     10       6.3484      2.00000
     11       7.3269      2.00000
     12       7.3663      2.00000
     13       7.3663      2.00000
     14       7.5346      2.00000
     15       8.4956      2.00000
     16       8.8541      2.00000
     17      19.4846      0.00000
     18      19.6578      0.00000
     19      19.6578      0.00000
     20      20.1803      0.00000
     21      20.9120      0.00000
     22      21.8807      0.00000
     23      22.2100      0.00000
     24      22.2417      0.00000

 k-point    77 :       0.5000    0.3333    0.3333
  band No.  band energies     occupation 
      1      -6.9829      2.00000
      2      -6.9829      2.00000
      3      -4.6077      2.00000
      4      -4.6077      2.00000
      5      -2.6757      2.00000
      6      -2.6757      2.00000
      7      -0.3797      2.00000
      8      -0.3797      2.00000
      9       6.4268      2.00000
     10       6.4268      2.00000
     11       7.4443      2.00000
     12       7.4443      2.00000
     13       8.0019      2.00000
     14       8.0019      2.00000
     15       8.2737      2.00000
     16       8.2737      2.00000
     17      19.8574      0.00000
     18      19.8574      0.00000
     19      20.1677      0.00000
     20      20.1677      0.00000
     21      21.5159      0.00000
     22      21.5159      0.00000
     23      21.5407      0.00000
     24      21.5407      0.00000

 k-point    78 :       0.4167    0.4167    0.3333
  band No.  band energies     occupation 
      1      -7.1149      2.00000
      2      -5.6262      2.00000
      3      -5.6262      2.00000
      4      -4.7280      2.00000
      5      -2.8062      2.00000
      6      -1.9289      2.00000
      7      -1.9289      2.00000
      8      -0.4915      2.00000
      9       6.7852      2.00000
     10       7.2868      2.00000
     11       7.2868      2.00000
     12       7.7827      2.00000
     13       7.8708      2.00000
     14       7.8708      2.00000
     15       8.2806      2.00000
     16       8.8022      2.00000
     17      19.8575      0.00000
     18      19.9874      0.00000
     19      19.9874      0.00000
     20      20.4711      0.00000
     21      20.7045      0.00000
     22      21.5680      0.00000
     23      21.5683      0.00000
     24      21.9080      0.00000

 k-point    79 :       0.5000    0.4167    0.3333
  band No.  band energies     occupation 
      1      -6.4140      2.00000
      2      -6.4140      2.00000
      3      -5.0755      2.00000
      4      -5.0755      2.00000
      5      -2.5889      2.00000
      6      -2.5889      2.00000
      7      -1.2882      2.00000
      8      -1.2882      2.00000
      9       7.0861      2.00000
     10       7.0861      2.00000
     11       7.8579      2.00000
     12       7.8579      2.00000
     13       7.9729      2.00000
     14       7.9729      2.00000
     15       8.4649      2.00000
     16       8.4649      2.00000
     17      20.2594      0.00000
     18      20.2594      0.00000
     19      20.2938      0.00000
     20      20.2938      0.00000
     21      21.0463      0.00000
     22      21.0463      0.00000
     23      21.2847      0.00000
     24      21.2847      0.00000

 k-point    80 :       0.5000    0.5000    0.3333
  band No.  band energies     occupation 
      1      -5.7541      2.00000
      2      -5.7541      2.00000
      3      -5.7541      2.00000
      4      -5.7541      2.00000
      5      -2.0500      2.00000
      6      -2.0500      2.00000
      7      -2.0500      2.00000
      8      -2.0500      2.00000
      9       7.5259      2.00000
     10       7.5259      2.00000
     11       7.5259      2.00000
     12       7.5259      2.00000
     13       8.3805      2.00000
     14       8.3805      2.00000
     15       8.3805      2.00000
     16       8.3805      2.00000
     17      20.4772      0.00000
     18      20.4772      0.00000
     19      20.4772      0.00000
     20      20.4772      0.00000
     21      20.9604      0.00000
     22      20.9604      0.00000
     23      20.9604      0.00000
     24      20.9604      0.00000

 k-point    81 :       0.4167    0.4167    0.4167
  band No.  band energies     occupation 
      1      -6.5439      2.00000
      2      -5.1979      2.00000
      3      -5.1979      2.00000
      4      -5.1979      2.00000
      5      -2.7195      2.00000
      6      -2.7195      2.00000
      7      -2.7195      2.00000
      8      -1.4082      2.00000
      9       7.7700      2.00000
     10       7.7700      2.00000
     11       7.7700      2.00000
     12       8.0478      2.00000
     13       8.0478      2.00000
     14       8.0478      2.00000
     15       8.5823      2.00000
     16       8.5823      2.00000
     17      20.1492      0.00000
     18      20.1492      0.00000
     19      20.1492      0.00000
     20      20.5505      0.00000
     21      20.5505      0.00000
     22      21.2876      0.00000
     23      21.2876      0.00000
     24      21.2876      0.00000

 k-point    82 :       0.5000    0.4167    0.4167
  band No.  band energies     occupation 
      1      -5.8807      2.00000
      2      -5.8807      2.00000
      3      -4.9690      2.00000
      4      -4.9690      2.00000
      5      -3.0700      2.00000
      6      -3.0700      2.00000
      7      -2.1761      2.00000
      8      -2.1761      2.00000
      9       7.8578      2.00000
     10       7.8578      2.00000
     11       8.1912      2.00000
     12       8.1912      2.00000
     13       8.3223      2.00000
     14       8.3223      2.00000
     15       8.4006      2.00000
     16       8.4006      2.00000
     17      20.3773      0.00000
     18      20.3773      0.00000
     19      20.3957      0.00000
     20      20.3957      0.00000
     21      20.8242      0.00000
     22      20.8242      0.00000
     23      20.9426      0.00000
     24      20.9426      0.00000

 k-point    83 :       0.5000    0.5000    0.4167
  band No.  band energies     occupation 
      1      -5.3219      2.00000
      2      -5.3219      2.00000
      3      -5.3219      2.00000
      4      -5.3219      2.00000
      5      -2.8484      2.00000
      6      -2.8484      2.00000
      7      -2.8484      2.00000
      8      -2.8484      2.00000
      9       8.2038      2.00000
     10       8.2038      2.00000
     11       8.2038      2.00000
     12       8.2038      2.00000
     13       8.4284      2.00000
     14       8.4284      2.00000
     15       8.4284      2.00000
     16       8.4284      2.00000
     17      20.5415      0.00000
     18      20.5415      0.00000
     19      20.5415      0.00000
     20      20.5415      0.00000
     21      20.6565      0.00000
     22      20.6565      0.00000
     23      20.6565      0.00000
     24      20.6565      0.00000

 k-point    84 :       0.5000    0.5000    0.5000
  band No.  band energies     occupation 
      1      -5.0899      2.00000
      2      -5.0899      2.00000
      3      -5.0899      2.00000
      4      -5.0899      2.00000
      5      -3.2034      2.00000
      6      -3.2034      2.00000
      7      -3.2034      2.00000
      8      -3.2034      2.00000
      9       8.4441      2.00000
     10       8.4441      2.00000
     11       8.4441      2.00000
     12       8.4441      2.00000
     13       8.4441      2.00000
     14       8.4441      2.00000
     15       8.4441      2.00000
     16       8.4441      2.00000
     17      20.5489      0.00000
     18      20.5489      0.00000
     19      20.5489      0.00000
     20      20.5489      0.00000
     21      20.5489      0.00000
     22      20.5489      0.00000
     23      20.5489      0.00000
     24      20.5489      0.00000


--------------------------------------------------------------------------------------------------------


 soft charge-density along one line, spin component           1
         0         1         2         3         4         5         6         7         8         9
 total charge-density along one line
 
 pseudopotential strength for first ion, spin component:           1
  9.343  -0.008   0.000   0.000   0.000  -0.000  -0.000  -0.000
 -0.008  -0.002  -0.000  -0.000  -0.000  -0.000  -0.000  -0.000
  0.000  -0.000  -3.559  -0.000  -0.000  -0.014  -0.000  -0.000
  0.000  -0.000  -0.000  -3.559   0.000  -0.000  -0.014   0.000
  0.000  -0.000  -0.000   0.000  -3.559  -0.000   0.000  -0.014
 -0.000  -0.000  -0.014  -0.000  -0.000  -0.755  -0.000  -0.000
 -0.000  -0.000  -0.000  -0.014   0.000  -0.000  -0.755   0.000
 -0.000  -0.000  -0.000   0.000  -0.014  -0.000   0.000  -0.755
 total augmentation occupancy for first ion, spin component:           1
  1.444  -1.203   0.000   0.000  -0.000  -0.000   0.000  -0.000
 -1.203   1.319  -0.000   0.000   0.000  -0.000  -0.000   0.000
  0.000   0.000   1.174   0.000   0.000   0.207  -0.000  -0.000
  0.000   0.000   0.000   1.174   0.000   0.000   0.207   0.000
 -0.000   0.000   0.000  -0.000   1.174  -0.000  -0.000   0.207
  0.000   0.000   0.207  -0.000   0.000   0.044   0.000  -0.000
 -0.000  -0.000   0.000   0.207   0.000   0.000   0.044   0.000
 -0.000  -0.000  -0.000  -0.000   0.207   0.000  -0.000   0.044


------------------------ aborting loop because EDIFF is reached ----------------------------------------


    CHARGE:  cpu time    0.1285: real time    0.1285
    FORLOC:  cpu time    0.0021: real time    0.0021
    FORNL :  cpu time    0.1838: real time    0.1838
    STRESS:  cpu time    0.4395: real time    0.4397
    FORHAR:  cpu time    0.0054: real time    0.0054
    MIXING:  cpu time    0.0018: real time    0.0018
    OFIELD:  cpu time    0.0001: real time    0.0001

  FORCE on cell =-STRESS in cart. coord.  units (eV):
  Direction    XX          YY          ZZ          XY          YZ          ZX
  --------------------------------------------------------------------------------------
  Alpha Z   129.47690   129.47690   129.47690
  Ewald    -482.76197  -482.76197  -482.76197    -0.00000     0.00000     0.00000
  Hartree    32.99413    32.99413    32.99413    -0.00000    -0.00000    -0.00000
  E(xc)    -123.10078  -123.10078  -123.10078     0.00000     0.00000     0.00000
  Local     -38.41855   -38.41855   -38.41855    -0.00000     0.00000     0.00000
  n-local   -32.94221   -33.67218   -33.66745     0.59243     0.69563     0.32049
  augment    -3.35840    -3.35840    -3.35840     0.00000     0.00000    -0.00000
  Kinetic   522.09492   539.25775   542.75475    -4.78055    -6.55324    -3.28798
  Fock        0.00000     0.00000     0.00000     0.00000     0.00000     0.00000
  -------------------------------------------------------------------------------------
  Total      16.10651    16.10651    16.10651    -0.00000    -0.00000     0.00000
  in kB     640.72611   640.72611   640.72611    -0.00000    -0.00000     0.00000
  external pressure =      640.73 kB  Pullay stress =        0.00 kB


 VOLUME and BASIS-vectors are now :
 -----------------------------------------------------------------------------
  energy-cutoff  :      400.00
  volume of cell :       40.28
      direct lattice vectors                 reciprocal lattice vectors
     3.427782000  0.000000000  0.000000000     0.291733838  0.000000000  0.000000000
     0.000000000  3.427782000  0.000000000     0.000000000  0.291733838  0.000000000
     0.000000000  0.000000000  3.427782000     0.000000000  0.000000000  0.291733838

  length of vectors
     3.427782000  3.427782000  3.427782000     0.291733838  0.291733838  0.291733838


 FORCES acting on ions
    electron-ion (+dipol)            ewald-force                    non-local-force                 convergence-correction
 -----------------------------------------------------------------------------------------------
   0.166E-13 -.149E-12 -.286E-13   0.355E-13 0.142E-13 -.711E-14   0.202E-16 0.356E-16 0.145E-16   -.381E-14 -.140E-14 0.370E-14
   -.166E-13 -.155E-14 -.883E-14   0.572E-14 0.132E-13 0.713E-14   -.103E-16 -.180E-16 0.526E-18   -.144E-14 0.521E-14 0.237E-14
   0.166E-13 -.174E-12 -.428E-14   0.355E-13 0.142E-13 0.711E-14   -.170E-17 0.307E-16 0.199E-16   -.350E-14 -.111E-14 0.249E-14
   -.166E-13 0.224E-13 -.341E-13   0.514E-14 0.142E-13 0.204E-13   0.414E-17 -.176E-16 -.848E-18   -.127E-14 0.453E-14 0.320E-14
   0.497E-13 0.202E-12 0.352E-12   0.000E+00 -.142E-13 -.213E-13   0.191E-16 0.306E-16 0.131E-18   -.479E-14 -.132E-14 0.205E-14
   0.166E-13 -.115E-14 -.441E-12   -.286E-13 -.169E-13 -.799E-14   -.785E-17 -.312E-16 -.112E-16   0.280E-14 0.639E-14 0.349E-14
   0.332E-13 -.185E-12 -.343E-13   0.000E+00 -.142E-13 -.711E-14   -.300E-17 0.215E-16 0.134E-17   -.564E-14 -.160E-14 0.288E-14
   0.166E-13 0.378E-12 -.169E-13   -.283E-13 -.142E-13 0.718E-14   -.182E-17 -.460E-16 -.162E-16   0.224E-14 0.463E-14 0.213E-14
 -----------------------------------------------------------------------------------------------
   0.116E-12 0.915E-13 -.216E-12   0.250E-13 -.368E-14 -.168E-14   0.188E-16 0.557E-17 0.821E-17   -.154E-13 0.153E-13 0.223E-13
 
 
 POSITION                                       TOTAL-FORCE (eV/Angst)
 -----------------------------------------------------------------------------------
      0.85695      2.57084      0.85695        -0.000000      0.000000     -0.000000
      0.00000      0.00000      1.71389        -0.000000     -0.000000     -0.000000
      0.85695      0.85695      2.57084         0.000000     -0.000000     -0.000000
      0.00000      1.71389      0.00000         0.000000     -0.000000      0.000000
      2.57084      2.57084      2.57084         0.000000      0.000000      0.000000
      1.71389      0.00000      0.00000         0.000000     -0.000000      0.000000
      2.57084      0.85695      0.85695        -0.000000      0.000000     -0.000000
      1.71389      1.71389      1.71389        -0.000000      0.000000      0.000000
 -----------------------------------------------------------------------------------
    total drift:                                0.000000      0.000000     -0.000000


--------------------------------------------------------------------------------------------------------



  FREE ENERGIE OF THE ION-ELECTRON SYSTEM (eV)
  ---------------------------------------------------
  free  energy   TOTEN  =       -71.73089538 eV

  energy  without entropy=      -71.73089538  energy(sigma->0) =      -71.73089538
 


--------------------------------------------------------------------------------------------------------


    POTLOK:  cpu time    0.0306: real time    0.0306


--------------------------------------------------------------------------------------------------------


     LOOP+:  cpu time   53.0982: real time   53.3328
    4ORBIT:  cpu time    0.0000: real time    0.0000
 BZINTS: Fermi energy: 11.621375; 32.000000 electrons
         Band energy:  58.286169;  BLOECHL correction:  0.000000

 total amount of memory used by VASP MPI-rank0    33511. kBytes
=======================================================================

   base      :      30000. kBytes
   nonl-proj :       1034. kBytes
   fftplans  :        345. kBytes
   grid      :        481. kBytes
   one-center:          6. kBytes
   wavefun   :       1645. kBytes
 
  
  
 General timing and accounting informations for this job:
 ========================================================
  
                  Total CPU time used (sec):       55.495
                            User time (sec):       53.543
                          System time (sec):        1.952
                         Elapsed time (sec):       55.767
  
                   Maximum memory used (kb):      189604.
                   Average memory used (kb):           0.
  
                          Minor page faults:        36889
                          Major page faults:           36
                 Voluntary context switches:          791
