   8   8   0   0
  0.5769264E+01  0.3589999E-09  0.3590000E-09  0.3590000E-09  0.2000000E-16
  1.000000000000000E-004
  CAR 
 unknown system                          
     23.67362339    -13.44362480  301      9.58453460      1.00000000
    -13.444  0.0000E+00  0.0000E+00
    -13.320  0.0000E+00  0.0000E+00
    -13.196  0.0000E+00  0.0000E+00
    -13.072  0.0000E+00  0.0000E+00
    -12.949  0.0000E+00  0.0000E+00
    -12.825  0.0000E+00  0.0000E+00
    -12.701  0.0000E+00  0.0000E+00
    -12.578  0.0000E+00  0.0000E+00
    -12.454  0.0000E+00  0.0000E+00
    -12.330  0.0000E+00  0.0000E+00
    -12.206  0.0000E+00  0.0000E+00
    -12.083  0.0000E+00  0.0000E+00
    -11.959  0.0000E+00  0.0000E+00
    -11.835  0.0000E+00  0.0000E+00
    -11.711  0.3771E-01  0.5656E-03
    -11.588  0.1582E+00  0.1566E-01
    -11.464  0.2458E+00  0.4091E-01
    -11.340  0.2800E+00  0.7302E-01
    -11.217  0.3299E+00  0.1107E+00
    -11.093  0.3672E+00  0.1543E+00
    -10.969  0.3981E+00  0.2017E+00
    -10.845  0.4326E+00  0.2530E+00
    -10.722  0.4712E+00  0.3089E+00
    -10.598  0.4930E+00  0.3685E+00
    -10.474  0.5177E+00  0.4310E+00
    -10.351  0.5455E+00  0.4968E+00
    -10.227  0.5750E+00  0.5661E+00
    -10.103  0.5999E+00  0.6390E+00
     -9.979  0.6229E+00  0.7146E+00
     -9.856  0.6489E+00  0.7932E+00
     -9.732  0.6796E+00  0.8753E+00
     -9.608  0.7137E+00  0.9615E+00
     -9.484  0.7465E+00  0.1052E+01
     -9.361  0.7393E+00  0.1143E+01
     -9.237  0.7452E+00  0.1235E+01
     -9.113  0.7636E+00  0.1328E+01
     -8.990  0.7832E+00  0.1424E+01
     -8.866  0.8087E+00  0.1522E+01
     -8.742  0.8329E+00  0.1624E+01
     -8.618  0.8512E+00  0.1728E+01
     -8.495  0.8759E+00  0.1835E+01
     -8.371  0.8999E+00  0.1945E+01
     -8.247  0.9226E+00  0.2057E+01
     -8.123  0.9351E+00  0.2173E+01
     -8.000  0.9479E+00  0.2289E+01
     -7.876  0.9841E+00  0.2408E+01
     -7.752  0.1093E+01  0.2536E+01
     -7.629  0.1118E+01  0.2674E+01
     -7.505  0.1112E+01  0.2812E+01
     -7.381  0.1072E+01  0.2946E+01
     -7.257  0.1074E+01  0.3079E+01
     -7.134  0.1075E+01  0.3212E+01
     -7.010  0.1134E+01  0.3348E+01
     -6.886  0.1212E+01  0.3493E+01
     -6.763  0.1196E+01  0.3643E+01
     -6.639  0.1242E+01  0.3792E+01
     -6.515  0.1308E+01  0.3952E+01
     -6.391  0.1394E+01  0.4117E+01
     -6.268  0.1417E+01  0.4295E+01
     -6.144  0.1537E+01  0.4474E+01
     -6.020  0.1533E+01  0.4666E+01
     -5.896  0.1399E+01  0.4845E+01
     -5.773  0.1383E+01  0.5015E+01
     -5.649  0.1426E+01  0.5188E+01
     -5.525  0.1399E+01  0.5365E+01
     -5.402  0.1402E+01  0.5538E+01
     -5.278  0.1323E+01  0.5706E+01
     -5.154  0.1312E+01  0.5869E+01
     -5.030  0.1284E+01  0.6031E+01
     -4.907  0.1267E+01  0.6189E+01
     -4.783  0.1203E+01  0.6344E+01
     -4.659  0.1147E+01  0.6489E+01
     -4.535  0.1090E+01  0.6627E+01
     -4.412  0.1224E+01  0.6769E+01
     -4.288  0.1086E+01  0.6909E+01
     -4.164  0.1077E+01  0.7042E+01
     -4.041  0.1036E+01  0.7172E+01
     -3.917  0.1007E+01  0.7299E+01
     -3.793  0.9328E+00  0.7418E+01
     -3.669  0.8716E+00  0.7529E+01
     -3.546  0.9036E+00  0.7637E+01
     -3.422  0.9738E+00  0.7759E+01
     -3.298  0.1068E+01  0.7890E+01
     -3.175  0.9702E+00  0.8018E+01
     -3.051  0.7869E+00  0.8126E+01
     -2.927  0.9026E+00  0.8227E+01
     -2.803  0.8284E+00  0.8324E+01
     -2.680  0.8420E+00  0.8424E+01
     -2.556  0.9629E+00  0.8535E+01
     -2.432  0.1131E+01  0.8664E+01
     -2.308  0.1443E+01  0.8819E+01
     -2.185  0.1834E+01  0.9025E+01
     -2.061  0.1956E+01  0.9265E+01
     -1.937  0.2081E+01  0.9513E+01
     -1.814  0.2594E+01  0.9796E+01
     -1.690  0.2420E+01  0.1012E+02
     -1.566  0.2384E+01  0.1041E+02
     -1.442  0.2095E+01  0.1070E+02
     -1.319  0.1868E+01  0.1094E+02
     -1.195  0.1713E+01  0.1117E+02
     -1.071  0.1554E+01  0.1137E+02
     -0.947  0.1479E+01  0.1155E+02
     -0.824  0.1418E+01  0.1173E+02
     -0.700  0.1349E+01  0.1190E+02
     -0.576  0.1295E+01  0.1206E+02
     -0.453  0.1220E+01  0.1222E+02
     -0.329  0.1195E+01  0.1237E+02
     -0.205  0.1208E+01  0.1252E+02
     -0.081  0.1122E+01  0.1267E+02
      0.042  0.1051E+01  0.1280E+02
      0.166  0.9822E+00  0.1293E+02
      0.290  0.1072E+01  0.1305E+02
      0.413  0.1195E+01  0.1319E+02
      0.537  0.1520E+01  0.1336E+02
      0.661  0.1684E+01  0.1356E+02
      0.785  0.2136E+01  0.1379E+02
      0.908  0.2227E+01  0.1407E+02
      1.032  0.2216E+01  0.1434E+02
      1.156  0.2210E+01  0.1462E+02
      1.280  0.2287E+01  0.1489E+02
      1.403  0.2174E+01  0.1517E+02
      1.527  0.1893E+01  0.1542E+02
      1.651  0.1469E+01  0.1563E+02
      1.774  0.1544E+01  0.1581E+02
      1.898  0.1663E+01  0.1601E+02
      2.022  0.2279E+01  0.1625E+02
      2.146  0.2510E+01  0.1656E+02
      2.269  0.2352E+01  0.1686E+02
      2.393  0.2268E+01  0.1714E+02
      2.517  0.2337E+01  0.1742E+02
      2.641  0.2344E+01  0.1772E+02
      2.764  0.2577E+01  0.1802E+02
      2.888  0.3048E+01  0.1838E+02
      3.012  0.2840E+01  0.1874E+02
      3.135  0.2626E+01  0.1908E+02
      3.259  0.2697E+01  0.1941E+02
      3.383  0.2692E+01  0.1974E+02
      3.507  0.2801E+01  0.2007E+02
      3.630  0.3055E+01  0.2043E+02
      3.754  0.3415E+01  0.2083E+02
      3.878  0.3299E+01  0.2126E+02
      4.001  0.3122E+01  0.2165E+02
      4.125  0.3092E+01  0.2204E+02
      4.249  0.2920E+01  0.2241E+02
      4.373  0.2897E+01  0.2277E+02
      4.496  0.2794E+01  0.2313E+02
      4.620  0.2956E+01  0.2348E+02
      4.744  0.3091E+01  0.2387E+02
      4.868  0.2886E+01  0.2423E+02
      4.991  0.2884E+01  0.2458E+02
      5.115  0.2982E+01  0.2495E+02
      5.239  0.3017E+01  0.2532E+02
      5.362  0.2812E+01  0.2568E+02
      5.486  0.2685E+01  0.2602E+02
      5.610  0.2469E+01  0.2634E+02
      5.734  0.2684E+01  0.2666E+02
      5.857  0.2725E+01  0.2699E+02
      5.981  0.2766E+01  0.2733E+02
      6.105  0.2703E+01  0.2767E+02
      6.229  0.2775E+01  0.2802E+02
      6.352  0.2505E+01  0.2836E+02
      6.476  0.2375E+01  0.2866E+02
      6.600  0.2293E+01  0.2894E+02
      6.723  0.2264E+01  0.2921E+02
      6.847  0.2211E+01  0.2948E+02
      6.971  0.2292E+01  0.2976E+02
      7.095  0.1929E+01  0.3003E+02
      7.218  0.1661E+01  0.3025E+02
      7.342  0.1477E+01  0.3044E+02
      7.466  0.1356E+01  0.3062E+02
      7.589  0.1261E+01  0.3078E+02
      7.713  0.1150E+01  0.3093E+02
      7.837  0.1047E+01  0.3106E+02
      7.961  0.9549E+00  0.3119E+02
      8.084  0.8852E+00  0.3130E+02
      8.208  0.8430E+00  0.3141E+02
      8.332  0.7699E+00  0.3151E+02
      8.456  0.6706E+00  0.3160E+02
      8.579  0.6000E+00  0.3168E+02
      8.703  0.5610E+00  0.3175E+02
      8.827  0.5092E+00  0.3181E+02
      8.950  0.3879E+00  0.3187E+02
      9.074  0.3659E+00  0.3191E+02
      9.198  0.3155E+00  0.3196E+02
      9.322  0.1377E+00  0.3198E+02
      9.445  0.7156E-01  0.3200E+02
      9.569  0.0000E+00  0.3200E+02
      9.693  0.0000E+00  0.3200E+02
      9.817  0.0000E+00  0.3200E+02
      9.940  0.0000E+00  0.3200E+02
     10.064  0.0000E+00  0.3200E+02
     10.188  0.0000E+00  0.3200E+02
     10.311  0.0000E+00  0.3200E+02
     10.435  0.0000E+00  0.3200E+02
     10.559  0.0000E+00  0.3200E+02
     10.683  0.0000E+00  0.3200E+02
     10.806  0.0000E+00  0.3200E+02
     10.930  0.0000E+00  0.3200E+02
     11.054  0.0000E+00  0.3200E+02
     11.177  0.0000E+00  0.3200E+02
     11.301  0.0000E+00  0.3200E+02
     11.425  0.0000E+00  0.3200E+02
     11.549  0.0000E+00  0.3200E+02
     11.672  0.0000E+00  0.3200E+02
     11.796  0.0000E+00  0.3200E+02
     11.920  0.0000E+00  0.3200E+02
     12.044  0.0000E+00  0.3200E+02
     12.167  0.0000E+00  0.3200E+02
     12.291  0.0000E+00  0.3200E+02
     12.415  0.0000E+00  0.3200E+02
     12.538  0.0000E+00  0.3200E+02
     12.662  0.0000E+00  0.3200E+02
     12.786  0.0000E+00  0.3200E+02
     12.910  0.0000E+00  0.3200E+02
     13.033  0.0000E+00  0.3200E+02
     13.157  0.0000E+00  0.3200E+02
     13.281  0.0000E+00  0.3200E+02
     13.405  0.0000E+00  0.3200E+02
     13.528  0.2168E+00  0.3201E+02
     13.652  0.5720E+00  0.3205E+02
     13.776  0.5436E+00  0.3213E+02
     13.899  0.6142E+00  0.3220E+02
     14.023  0.7329E+00  0.3228E+02
     14.147  0.7514E+00  0.3237E+02
     14.271  0.8834E+00  0.3247E+02
     14.394  0.9989E+00  0.3259E+02
     14.518  0.1175E+01  0.3272E+02
     14.642  0.1335E+01  0.3288E+02
     14.765  0.1343E+01  0.3304E+02
     14.889  0.1379E+01  0.3321E+02
     15.013  0.1419E+01  0.3339E+02
     15.137  0.1510E+01  0.3357E+02
     15.260  0.1653E+01  0.3376E+02
     15.384  0.1784E+01  0.3398E+02
     15.508  0.1835E+01  0.3420E+02
     15.632  0.1901E+01  0.3443E+02
     15.755  0.2076E+01  0.3468E+02
     15.879  0.2180E+01  0.3495E+02
     16.003  0.2207E+01  0.3522E+02
     16.126  0.2267E+01  0.3550E+02
     16.250  0.2367E+01  0.3578E+02
     16.374  0.2485E+01  0.3608E+02
     16.498  0.2619E+01  0.3640E+02
     16.621  0.2778E+01  0.3673E+02
     16.745  0.3164E+01  0.3710E+02
     16.869  0.3498E+01  0.3751E+02
     16.993  0.3488E+01  0.3794E+02
     17.116  0.3484E+01  0.3838E+02
     17.240  0.3968E+01  0.3884E+02
     17.364  0.4418E+01  0.3933E+02
     17.487  0.4024E+01  0.3988E+02
     17.611  0.3733E+01  0.4035E+02
     17.735  0.3628E+01  0.4084E+02
     17.859  0.3745E+01  0.4130E+02
     17.982  0.3233E+01  0.4174E+02
     18.106  0.3177E+01  0.4213E+02
     18.230  0.3031E+01  0.4252E+02
     18.353  0.2890E+01  0.4289E+02
     18.477  0.2696E+01  0.4323E+02
     18.601  0.2749E+01  0.4357E+02
     18.725  0.3010E+01  0.4392E+02
     18.848  0.3261E+01  0.4432E+02
     18.972  0.3124E+01  0.4472E+02
     19.096  0.2857E+01  0.4509E+02
     19.220  0.2648E+01  0.4542E+02
     19.343  0.2821E+01  0.4576E+02
     19.467  0.2939E+01  0.4612E+02
     19.591  0.2943E+01  0.4648E+02
     19.714  0.2779E+01  0.4684E+02
     19.838  0.2514E+01  0.4717E+02
     19.962  0.1828E+01  0.4744E+02
     20.086  0.1370E+01  0.4764E+02
     20.209  0.8987E+00  0.4778E+02
     20.333  0.4587E+00  0.4786E+02
     20.457  0.2618E+00  0.4790E+02
     20.581  0.1808E+00  0.4793E+02
     20.704  0.1352E+00  0.4795E+02
     20.828  0.1082E+00  0.4797E+02
     20.952  0.9139E-01  0.4798E+02
     21.075  0.5953E-01  0.4799E+02
     21.199  0.3223E-01  0.4799E+02
     21.323  0.1954E-01  0.4800E+02
     21.447  0.1230E-01  0.4800E+02
     21.570  0.7073E-02  0.4800E+02
     21.694  0.3291E-02  0.4800E+02
     21.818  0.9542E-03  0.4800E+02
     21.941  0.5220E-04  0.4800E+02
     22.065  0.0000E+00  0.4800E+02
     22.189  0.0000E+00  0.4800E+02
     22.313  0.0000E+00  0.4800E+02
     22.436  0.0000E+00  0.4800E+02
     22.560  0.0000E+00  0.4800E+02
     22.684  0.0000E+00  0.4800E+02
     22.808  0.0000E+00  0.4800E+02
     22.931  0.0000E+00  0.4800E+02
     23.055  0.0000E+00  0.4800E+02
     23.179  0.0000E+00  0.4800E+02
     23.302  0.0000E+00  0.4800E+02
     23.426  0.0000E+00  0.4800E+02
     23.550  0.0000E+00  0.4800E+02
     23.674  0.0000E+00  0.4800E+02
