 vasp.5.4.4.18Apr17-6-g9f103f2a35 (build Mar 12 2022 03:36:41) complex          
  
 executed on IFC19.0.3.199_CrayMP date 2022.12.01  10:47:47
 running on   16 total cores
 distrk:  each k-point on   16 cores,    1 groups
 distr:  one band on NCORES_PER_BAND=   4 cores,    4 groups


--------------------------------------------------------------------------------------------------------


 INCAR:
 POTCAR:   PAW_PBE C 08Apr2002                    
 POTCAR:   PAW_PBE C 08Apr2002                    
   VRHFIN =C: s2p2                                                              
   LEXCH  = PE                                                                  
   EATOM  =   147.1560 eV,   10.8157 Ry                                         
                                                                                
   TITEL  = PAW_PBE C 08Apr2002                                                 
   LULTRA =        F    use ultrasoft PP ?                                      
   IUNSCR =        0    unscreen: 0-lin 1-nonlin 2-no                           
   RPACOR =     .000    partial core radius                                     
   POMASS =   12.011; ZVAL   =    4.000    mass and valenz                      
   RCORE  =    1.500    outmost cutoff radius                                   
   RWIGS  =    1.630; RWIGS  =     .863    wigner-seitz radius (au A)           
   ENMAX  =  400.000; ENMIN  =  300.000 eV                                      
   ICORE  =        2    local potential                                         
   LCOR   =        T    correct aug charges                                     
   LPAW   =        T    paw PP                                                  
   EAUG   =  644.873                                                            
   DEXC   =     .000                                                            
   RMAX   =    2.266    core radius for proj-oper                               
   RAUG   =    1.300    factor for augmentation sphere                          
   RDEP   =    1.501    radius for radial grids                                 
   RDEPT  =    1.300    core radius for aug-charge                              
   QCUT   =   -5.516; QGAM   =   11.032    optimization parameters              
                                                                                
   Description                                                                  
     l     E      TYP  RCUT    TYP  RCUT                                        
     0   .000     23  1.200                                                     
     0   .000     23  1.200                                                     
     1   .000     23  1.500                                                     
     1  2.500     23  1.500                                                     
     2   .000      7  1.500                                                     
  local pseudopotential read in
  atomic valenz-charges read in
  non local Contribution for L=           0  read in
    real space projection operators read in
  non local Contribution for L=           0  read in
    real space projection operators read in
  non local Contribution for L=           1  read in
    real space projection operators read in
  non local Contribution for L=           1  read in
    real space projection operators read in
    PAW grid and wavefunctions read in
 
   number of l-projection  operators is LMAX  =           4
   number of lm-projection operators is LMMAX =           8
 
 PAW_PBE C 08Apr2002                    :
 energy of atom  1       EATOM= -147.1560
 kinetic energy error for atom=    0.0288 (will be added to EATOM!!)
 
 
 POSCAR: C8                                      
  positions in direct lattice
  No initial velocities read in
 exchange correlation table for  LEXCH =        8
   RHO(1)=    0.500       N(1)  =     2000
   RHO(2)=  100.500       N(2)  =     4000
 


--------------------------------------------------------------------------------------------------------


 ion  position               nearest neighbor table
   1  0.250  0.750  0.250-   4 1.49   2 1.58   6 1.58   8 1.58
   2  0.000  0.000  0.500-   3 1.49   1 1.58   5 1.58   7 1.58
   3  0.250  0.250  0.750-   2 1.49   4 1.58   6 1.58   8 1.58
   4  0.000  0.500  0.000-   1 1.49   3 1.58   5 1.58   7 1.58
   5  0.750  0.750  0.750-   8 1.49   6 1.58   2 1.58   4 1.58
   6  0.500  0.000  0.000-   7 1.49   5 1.58   1 1.58   3 1.58
   7  0.750  0.250  0.250-   6 1.49   8 1.58   2 1.58   4 1.58
   8  0.500  0.500  0.500-   5 1.49   7 1.58   1 1.58   3 1.58
 
  LATTYP: Found a trigonal (rhomboedric) cell.
 ALAT       =     3.5899994558
 COS(alpha) =    -0.0399998870
  
  Lattice vectors:
  
 A1 = (   3.5899993590,   0.0000000000,   0.0000000000)
 A2 = (  -0.1435995725,   3.5871263228,   0.0000000000)
 A3 = (  -0.1435995725,  -0.1494631782,   3.5840111881)


Analysis of symmetry for initial positions (statically):
=====================================================================
 Subroutine PRICEL returns following result:
 
  LATTYP: Found a trigonal (rhomboedric) cell.
 ALAT       =     2.4872247305
 COS(alpha) =     0.4583334656
  
  Lattice vectors:
  
 A1 = (  -0.1435995725,   1.7188315723,   1.7920055940)
 A2 = (   1.7231998932,  -0.0747315891,   1.7920055940)
 A3 = (   1.7231998932,   1.7935631614,   0.0000000000)
 
   4 primitive cells build up your supercell.
 

 Routine SETGRP: Setting up the symmetry group for a 
 trigonal (rhombohedral) supercell.


 Subroutine GETGRP returns: Found 12 space group operations
 (whereof  6 operations were pure point group operations)
 out of a pool of 12 trial point group operations.


The static configuration has the point symmetry C_3v.
 The point group associated with its full space group is D_3d.


Analysis of symmetry for dynamics (positions and initial velocities):
=====================================================================
 Subroutine PRICEL returns following result:
 
  LATTYP: Found a trigonal (rhomboedric) cell.
 ALAT       =     2.4872247305
 COS(alpha) =     0.4583334656
  
  Lattice vectors:
  
 A1 = (  -0.1435995725,   1.7188315723,   1.7920055940)
 A2 = (   1.7231998932,  -0.0747315891,   1.7920055940)
 A3 = (   1.7231998932,   1.7935631614,   0.0000000000)
 
   4 primitive cells build up your supercell.
 

 Routine SETGRP: Setting up the symmetry group for a 
 trigonal (rhombohedral) supercell.


 Subroutine GETGRP returns: Found 12 space group operations
 (whereof  6 operations were pure point group operations)
 out of a pool of 12 trial point group operations.


The dynamic configuration has the point symmetry C_3v.
 The point group associated with its full space group is D_3d.


 Subroutine INISYM returns: Found 12 space group operations
 (whereof  6 operations are pure point group operations),
 and found     4 'primitive' translations

 
 
 KPOINTS: kpt_density=1000                        

Automatic generation of k-mesh.
Space group operators:
 irot       det(A)        alpha          n_x          n_y          n_z        tau_x        tau_y        tau_z
    1     1.000000     0.000000     1.000000     0.000000     0.000000     0.000000     0.000000     0.000000
    2    -1.000000   180.000000     0.000000    -0.721688     0.692219     0.000000     0.000000     0.000000
    3     1.000000   120.000000    -0.553775    -0.576387    -0.600925     0.000000     0.000000     0.000000
    4    -1.000000   180.000000    -0.721110     0.692820     0.000000     0.000000     0.000000     0.000000
    5     1.000000   120.000000     0.553775     0.576387     0.600925     0.000000     0.000000     0.000000
    6    -1.000000   179.999999     0.721110     0.028867    -0.692219     0.000000     0.000000     0.000000
    7    -1.000000     0.000000     1.000000     0.000000     0.000000     0.250000     0.250000     0.250000
    8     1.000000   180.000000     0.000000    -0.721688     0.692219     0.250000     0.250000     0.250000
    9    -1.000000   120.000000    -0.553775    -0.576387    -0.600925     0.250000     0.250000     0.250000
   10     1.000000   180.000000    -0.721110     0.692820     0.000000     0.250000     0.250000     0.250000
   11    -1.000000   120.000000     0.553775     0.576387     0.600925     0.250000     0.250000     0.250000
   12     1.000000   179.999999     0.721110     0.028867    -0.692219     0.250000     0.250000     0.250000
 
 Subroutine IBZKPT returns following result:
 ===========================================
 
 Found    189 irreducible k-points:
 
 Following reciprocal coordinates:
            Coordinates               Weight
  0.000000  0.000000  0.000000      1.000000
  0.083333 -0.000000  0.000000      6.000000
  0.166667 -0.000000  0.000000      6.000000
  0.250000 -0.000000  0.000000      6.000000
  0.333333 -0.000000 -0.000000      6.000000
  0.416667 -0.000000 -0.000000      6.000000
  0.500000 -0.000000  0.000000      3.000000
  0.083333  0.083333 -0.000000      6.000000
  0.166667  0.083333  0.000000     12.000000
  0.250000  0.083333  0.000000     12.000000
  0.333333  0.083333  0.000000     12.000000
  0.416667  0.083333  0.000000     12.000000
  0.500000  0.083333 -0.000000     12.000000
 -0.416667  0.083333 -0.000000     12.000000
 -0.333333  0.083333 -0.000000     12.000000
 -0.250000  0.083333 -0.000000     12.000000
 -0.166667  0.083333 -0.000000     12.000000
 -0.083333  0.083333 -0.000000      6.000000
  0.166667  0.166667  0.000000      6.000000
  0.250000  0.166667  0.000000     12.000000
  0.333333  0.166667  0.000000     12.000000
  0.416667  0.166667  0.000000     12.000000
  0.500000  0.166667  0.000000     12.000000
 -0.416667  0.166667 -0.000000     12.000000
 -0.333333  0.166667 -0.000000     12.000000
 -0.250000  0.166667 -0.000000     12.000000
 -0.166667  0.166667 -0.000000      6.000000
  0.250000  0.250000 -0.000000      6.000000
  0.333333  0.250000  0.000000     12.000000
  0.416667  0.250000 -0.000000     12.000000
  0.500000  0.250000  0.000000     12.000000
 -0.416667  0.250000 -0.000000     12.000000
 -0.333333  0.250000  0.000000     12.000000
 -0.250000  0.250000 -0.000000      6.000000
  0.333333  0.333333  0.000000      6.000000
  0.416667  0.333333  0.000000     12.000000
  0.500000  0.333333  0.000000     12.000000
 -0.416667  0.333333  0.000000     12.000000
 -0.333333  0.333333  0.000000      6.000000
  0.416667  0.416667 -0.000000      6.000000
  0.500000  0.416667  0.000000     12.000000
 -0.416667  0.416667 -0.000000      6.000000
  0.500000  0.500000 -0.000000      3.000000
  0.083333  0.083333  0.083333      2.000000
  0.166667  0.083333  0.083333      6.000000
  0.250000  0.083333  0.083333      6.000000
  0.333333  0.083333  0.083333      6.000000
  0.416667  0.083333  0.083333      6.000000
  0.500000  0.083333  0.083333      6.000000
 -0.416667  0.083333  0.083333      6.000000
 -0.333333  0.083333  0.083333      6.000000
 -0.250000  0.083333  0.083333      6.000000
 -0.166667  0.083333  0.083333      6.000000
 -0.083333  0.083333  0.083333      6.000000
  0.166667  0.166667  0.083333      6.000000
  0.250000  0.166667  0.083333     12.000000
  0.333333  0.166667  0.083333     12.000000
  0.416667  0.166667  0.083333     12.000000
  0.500000  0.166667  0.083333     12.000000
 -0.416667  0.166667  0.083333     12.000000
 -0.333333  0.166667  0.083333     12.000000
 -0.250000  0.166667  0.083333     12.000000
 -0.166667  0.166667  0.083333     12.000000
 -0.083333  0.166667  0.083333     12.000000
  0.250000  0.250000  0.083333      6.000000
  0.333333  0.250000  0.083333     12.000000
  0.416667  0.250000  0.083333     12.000000
  0.500000  0.250000  0.083333     12.000000
 -0.416667  0.250000  0.083333     12.000000
 -0.333333  0.250000  0.083333     12.000000
 -0.250000  0.250000  0.083333     12.000000
 -0.166667  0.250000  0.083333     12.000000
 -0.083333  0.250000  0.083333     12.000000
  0.333333  0.333333  0.083333      6.000000
  0.416667  0.333333  0.083333     12.000000
  0.500000  0.333333  0.083333     12.000000
 -0.416667  0.333333  0.083333     12.000000
 -0.333333  0.333333  0.083333     12.000000
 -0.250000  0.333333  0.083333     12.000000
 -0.166667  0.333333  0.083333     12.000000
 -0.083333  0.333333  0.083333     12.000000
  0.416667  0.416667  0.083333      6.000000
  0.500000  0.416667  0.083333     12.000000
 -0.416667  0.416667  0.083333     12.000000
 -0.333333  0.416667  0.083333     12.000000
 -0.250000  0.416667  0.083333     12.000000
 -0.166667  0.416667  0.083333     12.000000
 -0.083333  0.416667  0.083333     12.000000
  0.500000  0.500000  0.083333      6.000000
 -0.416667  0.500000  0.083333     12.000000
 -0.333333  0.500000  0.083333     12.000000
 -0.250000  0.500000  0.083333     12.000000
 -0.166667  0.500000  0.083333     12.000000
 -0.083333  0.500000  0.083333      6.000000
 -0.416667 -0.416667  0.083333      6.000000
 -0.333333 -0.416667  0.083333     12.000000
 -0.250000 -0.416667  0.083333     12.000000
 -0.166667 -0.416667  0.083333     12.000000
 -0.333333 -0.333333  0.083333      6.000000
 -0.250000 -0.333333  0.083333     12.000000
 -0.166667 -0.333333  0.083333     12.000000
 -0.250000 -0.250000  0.083333      6.000000
 -0.166667 -0.250000  0.083333     12.000000
 -0.166667 -0.166667  0.083333      6.000000
  0.166667  0.166667  0.166667      2.000000
  0.250000  0.166667  0.166667      6.000000
  0.333333  0.166667  0.166667      6.000000
  0.416667  0.166667  0.166667      6.000000
  0.500000  0.166667  0.166667      6.000000
 -0.416667  0.166667  0.166667      6.000000
 -0.333333  0.166667  0.166667      6.000000
 -0.250000  0.166667  0.166667      6.000000
 -0.166667  0.166667  0.166667      6.000000
  0.250000  0.250000  0.166667      6.000000
  0.333333  0.250000  0.166667     12.000000
  0.416667  0.250000  0.166667     12.000000
  0.500000  0.250000  0.166667     12.000000
 -0.416667  0.250000  0.166667     12.000000
 -0.333333  0.250000  0.166667     12.000000
 -0.250000  0.250000  0.166667     12.000000
 -0.166667  0.250000  0.166667     12.000000
  0.333333  0.333333  0.166667      6.000000
  0.416667  0.333333  0.166667     12.000000
  0.500000  0.333333  0.166667     12.000000
 -0.416667  0.333333  0.166667     12.000000
 -0.333333  0.333333  0.166667     12.000000
 -0.250000  0.333333  0.166667     12.000000
 -0.166667  0.333333  0.166667     12.000000
  0.416667  0.416667  0.166667      6.000000
  0.500000  0.416667  0.166667     12.000000
 -0.416667  0.416667  0.166667     12.000000
 -0.333333  0.416667  0.166667     12.000000
 -0.250000  0.416667  0.166667     12.000000
 -0.166667  0.416667  0.166667     12.000000
  0.500000  0.500000  0.166667      6.000000
 -0.416667  0.500000  0.166667     12.000000
 -0.333333  0.500000  0.166667     12.000000
 -0.250000  0.500000  0.166667     12.000000
 -0.166667  0.500000  0.166667      6.000000
 -0.416667 -0.416667  0.166667      6.000000
 -0.333333 -0.416667  0.166667     12.000000
 -0.250000 -0.416667  0.166667     12.000000
 -0.333333 -0.333333  0.166667      6.000000
 -0.250000 -0.333333  0.166667     12.000000
 -0.250000 -0.250000  0.166667      6.000000
  0.250000  0.250000  0.250000      2.000000
  0.333333  0.250000  0.250000      6.000000
  0.416667  0.250000  0.250000      6.000000
  0.500000  0.250000  0.250000      6.000000
 -0.416667  0.250000  0.250000      6.000000
 -0.333333  0.250000  0.250000      6.000000
 -0.250000  0.250000  0.250000      6.000000
  0.333333  0.333333  0.250000      6.000000
  0.416667  0.333333  0.250000     12.000000
  0.500000  0.333333  0.250000     12.000000
 -0.416667  0.333333  0.250000     12.000000
 -0.333333  0.333333  0.250000     12.000000
 -0.250000  0.333333  0.250000     12.000000
  0.416667  0.416667  0.250000      6.000000
  0.500000  0.416667  0.250000     12.000000
 -0.416667  0.416667  0.250000     12.000000
 -0.333333  0.416667  0.250000     12.000000
 -0.250000  0.416667  0.250000     12.000000
  0.500000  0.500000  0.250000      6.000000
 -0.416667  0.500000  0.250000     12.000000
 -0.333333  0.500000  0.250000     12.000000
 -0.250000  0.500000  0.250000      6.000000
 -0.416667 -0.416667  0.250000      6.000000
 -0.333333 -0.416667  0.250000     12.000000
 -0.333333 -0.333333  0.250000      6.000000
  0.333333  0.333333  0.333333      2.000000
  0.416667  0.333333  0.333333      6.000000
  0.500000  0.333333  0.333333      6.000000
 -0.416667  0.333333  0.333333      6.000000
 -0.333333  0.333333  0.333333      6.000000
  0.416667  0.416667  0.333333      6.000000
  0.500000  0.416667  0.333333     12.000000
 -0.416667  0.416667  0.333333     12.000000
 -0.333333  0.416667  0.333333     12.000000
  0.500000  0.500000  0.333333      6.000000
 -0.416667  0.500000  0.333333     12.000000
 -0.333333  0.500000  0.333333      6.000000
 -0.416667 -0.416667  0.333333      6.000000
  0.416667  0.416667  0.416667      2.000000
  0.500000  0.416667  0.416667      6.000000
 -0.416667  0.416667  0.416667      6.000000
  0.500000  0.500000  0.416667      6.000000
 -0.416667  0.500000  0.416667      6.000000
  0.500000  0.500000  0.500000      1.000000
 
 Following cartesian coordinates:
            Coordinates               Weight
  0.000000  0.000000  0.000000      1.000000
  0.023318  0.000933  0.000973      6.000000
  0.046637  0.001867  0.001946      6.000000
  0.069955  0.002800  0.002920      6.000000
  0.093274  0.003734  0.003893      6.000000
  0.116592  0.004667  0.004866      6.000000
  0.139911  0.005601  0.005839      3.000000
  0.023318  0.024271  0.001946      6.000000
  0.046637  0.025204  0.002920     12.000000
  0.069955  0.026138  0.003893     12.000000
  0.093274  0.027071  0.004866     12.000000
  0.116592  0.028005  0.005839     12.000000
  0.139911  0.028938  0.006813     12.000000
 -0.116592  0.018670 -0.003893     12.000000
 -0.093274  0.019603 -0.002920     12.000000
 -0.069955  0.020537 -0.001946     12.000000
 -0.046637  0.021470 -0.000973     12.000000
 -0.023318  0.022404  0.000000      6.000000
  0.046637  0.048541  0.003893      6.000000
  0.069955  0.049475  0.004866     12.000000
  0.093274  0.050408  0.005839     12.000000
  0.116592  0.051342  0.006813     12.000000
  0.139911  0.052275  0.007786     12.000000
 -0.116592  0.042007 -0.002920     12.000000
 -0.093274  0.042940 -0.001946     12.000000
 -0.069955  0.043874 -0.000973     12.000000
 -0.046637  0.044807  0.000000      6.000000
  0.069955  0.072812  0.005839      6.000000
  0.093274  0.073745  0.006813     12.000000
  0.116592  0.074679  0.007786     12.000000
  0.139911  0.075612  0.008759     12.000000
 -0.116592  0.065344 -0.001946     12.000000
 -0.093274  0.066277 -0.000973     12.000000
 -0.069955  0.067211  0.000000      6.000000
  0.093274  0.097082  0.007786      6.000000
  0.116592  0.098016  0.008759     12.000000
  0.139911  0.098949  0.009732     12.000000
 -0.116592  0.088681 -0.000973     12.000000
 -0.093274  0.089615  0.000000      6.000000
  0.116592  0.121353  0.009732      6.000000
  0.139911  0.122286  0.010705     12.000000
 -0.116592  0.112018  0.000000      6.000000
  0.139911  0.145624  0.011679      3.000000
  0.023318  0.024271  0.025304      2.000000
  0.046637  0.025204  0.026277      6.000000
  0.069955  0.026138  0.027250      6.000000
  0.093274  0.027071  0.028224      6.000000
  0.116592  0.028005  0.029197      6.000000
  0.139911  0.028938  0.030170      6.000000
 -0.116592  0.018670  0.019465      6.000000
 -0.093274  0.019603  0.020438      6.000000
 -0.069955  0.020537  0.021411      6.000000
 -0.046637  0.021470  0.022384      6.000000
 -0.023318  0.022404  0.023357      6.000000
  0.046637  0.048541  0.027250      6.000000
  0.069955  0.049475  0.028224     12.000000
  0.093274  0.050408  0.029197     12.000000
  0.116592  0.051342  0.030170     12.000000
  0.139911  0.052275  0.031143     12.000000
 -0.116592  0.042007  0.020438     12.000000
 -0.093274  0.042940  0.021411     12.000000
 -0.069955  0.043874  0.022384     12.000000
 -0.046637  0.044807  0.023357     12.000000
 -0.023318  0.045741  0.024331     12.000000
  0.069955  0.072812  0.029197      6.000000
  0.093274  0.073745  0.030170     12.000000
  0.116592  0.074679  0.031143     12.000000
  0.139911  0.075612  0.032116     12.000000
 -0.116592  0.065344  0.021411     12.000000
 -0.093274  0.066277  0.022384     12.000000
 -0.069955  0.067211  0.023357     12.000000
 -0.046637  0.068144  0.024331     12.000000
 -0.023318  0.069078  0.025304     12.000000
  0.093274  0.097082  0.031143      6.000000
  0.116592  0.098016  0.032116     12.000000
  0.139911  0.098949  0.033090     12.000000
 -0.116592  0.088681  0.022384     12.000000
 -0.093274  0.089615  0.023357     12.000000
 -0.069955  0.090548  0.024331     12.000000
 -0.046637  0.091481  0.025304     12.000000
 -0.023318  0.092415  0.026277     12.000000
  0.116592  0.121353  0.033090      6.000000
  0.139911  0.122286  0.034063     12.000000
 -0.116592  0.112018  0.023357     12.000000
 -0.093274  0.112952  0.024331     12.000000
 -0.069955  0.113885  0.025304     12.000000
 -0.046637  0.114819  0.026277     12.000000
 -0.023318  0.115752  0.027250     12.000000
  0.139911  0.145624  0.035036      6.000000
 -0.116592  0.135355  0.024331     12.000000
 -0.093274  0.136289  0.025304     12.000000
 -0.069955  0.137222  0.026277     12.000000
 -0.046637  0.138156  0.027250     12.000000
 -0.023318  0.139089  0.028224      6.000000
 -0.116592 -0.121353  0.013625      6.000000
 -0.093274 -0.120419  0.014598     12.000000
 -0.069955 -0.119486  0.015572     12.000000
 -0.046637 -0.118553  0.016545     12.000000
 -0.093274 -0.097082  0.015572      6.000000
 -0.069955 -0.096149  0.016545     12.000000
 -0.046637 -0.095215  0.017518     12.000000
 -0.069955 -0.072812  0.017518      6.000000
 -0.046637 -0.071878  0.018491     12.000000
 -0.046637 -0.048541  0.019465      6.000000
  0.046637  0.048541  0.050608      2.000000
  0.069955  0.049475  0.051581      6.000000
  0.093274  0.050408  0.052554      6.000000
  0.116592  0.051342  0.053527      6.000000
  0.139911  0.052275  0.054501      6.000000
 -0.116592  0.042007  0.043795      6.000000
 -0.093274  0.042940  0.044768      6.000000
 -0.069955  0.043874  0.045742      6.000000
 -0.046637  0.044807  0.046715      6.000000
  0.069955  0.072812  0.052554      6.000000
  0.093274  0.073745  0.053527     12.000000
  0.116592  0.074679  0.054501     12.000000
  0.139911  0.075612  0.055474     12.000000
 -0.116592  0.065344  0.044768     12.000000
 -0.093274  0.066277  0.045742     12.000000
 -0.069955  0.067211  0.046715     12.000000
 -0.046637  0.068144  0.047688     12.000000
  0.093274  0.097082  0.054501      6.000000
  0.116592  0.098016  0.055474     12.000000
  0.139911  0.098949  0.056447     12.000000
 -0.116592  0.088681  0.045742     12.000000
 -0.093274  0.089615  0.046715     12.000000
 -0.069955  0.090548  0.047688     12.000000
 -0.046637  0.091481  0.048661     12.000000
  0.116592  0.121353  0.056447      6.000000
  0.139911  0.122286  0.057420     12.000000
 -0.116592  0.112018  0.046715     12.000000
 -0.093274  0.112952  0.047688     12.000000
 -0.069955  0.113885  0.048661     12.000000
 -0.046637  0.114819  0.049634     12.000000
  0.139911  0.145624  0.058393      6.000000
 -0.116592  0.135355  0.047688     12.000000
 -0.093274  0.136289  0.048661     12.000000
 -0.069955  0.137222  0.049634     12.000000
 -0.046637  0.138156  0.050608      6.000000
 -0.116592 -0.121353  0.036983      6.000000
 -0.093274 -0.120419  0.037956     12.000000
 -0.069955 -0.119486  0.038929     12.000000
 -0.093274 -0.097082  0.038929      6.000000
 -0.069955 -0.096149  0.039902     12.000000
 -0.069955 -0.072812  0.040875      6.000000
  0.069955  0.072812  0.075912      2.000000
  0.093274  0.073745  0.076885      6.000000
  0.116592  0.074679  0.077858      6.000000
  0.139911  0.075612  0.078831      6.000000
 -0.116592  0.065344  0.068126      6.000000
 -0.093274  0.066277  0.069099      6.000000
 -0.069955  0.067211  0.070072      6.000000
  0.093274  0.097082  0.077858      6.000000
  0.116592  0.098016  0.078831     12.000000
  0.139911  0.098949  0.079804     12.000000
 -0.116592  0.088681  0.069099     12.000000
 -0.093274  0.089615  0.070072     12.000000
 -0.069955  0.090548  0.071045     12.000000
  0.116592  0.121353  0.079804      6.000000
  0.139911  0.122286  0.080778     12.000000
 -0.116592  0.112018  0.070072     12.000000
 -0.093274  0.112952  0.071045     12.000000
 -0.069955  0.113885  0.072019     12.000000
  0.139911  0.145624  0.081751      6.000000
 -0.116592  0.135355  0.071045     12.000000
 -0.093274  0.136289  0.072019     12.000000
 -0.069955  0.137222  0.072992      6.000000
 -0.116592 -0.121353  0.060340      6.000000
 -0.093274 -0.120419  0.061313     12.000000
 -0.093274 -0.097082  0.062286      6.000000
  0.093274  0.097082  0.101215      2.000000
  0.116592  0.098016  0.102189      6.000000
  0.139911  0.098949  0.103162      6.000000
 -0.116592  0.088681  0.092456      6.000000
 -0.093274  0.089615  0.093430      6.000000
  0.116592  0.121353  0.103162      6.000000
  0.139911  0.122286  0.104135     12.000000
 -0.116592  0.112018  0.093430     12.000000
 -0.093274  0.112952  0.094403     12.000000
  0.139911  0.145624  0.105108      6.000000
 -0.116592  0.135355  0.094403     12.000000
 -0.093274  0.136289  0.095376      6.000000
 -0.116592 -0.121353  0.083697      6.000000
  0.116592  0.121353  0.126519      2.000000
  0.139911  0.122286  0.127492      6.000000
 -0.116592  0.112018  0.116787      6.000000
  0.139911  0.145624  0.128466      6.000000
 -0.116592  0.135355  0.117760      6.000000
  0.139911  0.145624  0.151823      1.000000
 
 TETIRR: Found   2550 inequivalent tetrahedra from    10368


--------------------------------------------------------------------------------------------------------




 Dimension of arrays:
   k-points           NKPTS =    189   k-points in BZ     NKDIM =    189   number of bands    NBANDS=     24
   number of dos      NEDOS =    301   number of ions     NIONS =      8
   non local maximal  LDIM  =      4   non local SUM 2l+1 LMDIM =      8
   total plane-waves  NPLWV =  13824
   max r-space proj   IRMAX =      1   max aug-charges    IRDMAX=   3734
   dimension x,y,z NGX =    24 NGY =   24 NGZ =   24
   dimension x,y,z NGXF=    48 NGYF=   48 NGZF=   48
   support grid    NGXF=    48 NGYF=   48 NGZF=   48
   ions per type =               8
   NGX,Y,Z   is equivalent  to a cutoff of  11.11, 11.11, 11.11 a.u.
   NGXF,Y,Z  is equivalent  to a cutoff of  22.23, 22.23, 22.23 a.u.

 SYSTEM =  unknown system                          
 POSCAR =  C8                                      

 Startparameter for this run:
   NWRITE =      2    write-flag & timer
   PREC   = accura    normal or accurate (medium, high low for compatibility)
   ISTART =      0    job   : 0-new  1-cont  2-samecut
   ICHARG =      2    charge: 1-file 2-atom 10-const
   ISPIN  =      1    spin polarized calculation?
   LNONCOLLINEAR =      F non collinear calculations
   LSORBIT =      F    spin-orbit coupling
   INIWAV =      1    electr: 0-lowe 1-rand  2-diag
   LASPH  =      F    aspherical Exc in radial PAW
   METAGGA=      F    non-selfconsistent MetaGGA calc.

 Electronic Relaxation 1
   ENCUT  =  400.0 eV  29.40 Ry    5.42 a.u.   5.85  5.85  5.85*2*pi/ulx,y,z
   ENINI  =  400.0     initial cutoff
   ENAUG  =  644.9 eV  augmentation charge cutoff
   NELM   =     60;   NELMIN=  2; NELMDL= -5     # of ELM steps 
   EDIFF  = 0.1E-05   stopping-criterion for ELM
   LREAL  =      F    real-space projection
   NLSPLINE    = F    spline interpolate recip. space projectors
   LCOMPAT=      F    compatible to vasp.4.4
   GGA_COMPAT  = T    GGA compatible to vasp.4.4-vasp.4.6
   LMAXPAW     = -100 max onsite density
   LMAXMIX     =    2 max onsite mixed and CHGCAR
   VOSKOWN=      0    Vosko Wilk Nusair interpolation
   ROPT   =    0.00000
 Ionic relaxation
   EDIFFG = 0.1E-04   stopping-criterion for IOM
   NSW    =      0    number of steps for IOM
   NBLOCK =      1;   KBLOCK =      1    inner block; outer block 
   IBRION =     -1    ionic relax: 0-MD 1-quasi-New 2-CG
   NFREE  =      0    steps in history (QN), initial steepest desc. (CG)
   ISIF   =      2    stress and relaxation
   IWAVPR =     10    prediction:  0-non 1-charg 2-wave 3-comb
   ISYM   =      2    0-nonsym 1-usesym 2-fastsym
   LCORR  =      T    Harris-Foulkes like correction to forces

   POTIM  = 0.0200    time-step for ionic-motion
   TEIN   =    0.0    initial temperature
   TEBEG  =    0.0;   TEEND  =   0.0 temperature during run
   SMASS  =  -3.00    Nose mass-parameter (am)
   estimated Nose-frequenzy (Omega)   =  0.10E-29 period in steps =****** mass=  -0.295E-27a.u.
   SCALEE = 1.0000    scale energy and forces
   NPACO  =    256;   APACO  = 16.0  distance and # of slots for P.C.
   PSTRESS=    0.0 pullay stress

  Mass of Ions in am
   POMASS =  12.01
  Ionic Valenz
   ZVAL   =   4.00
  Atomic Wigner-Seitz radii
   RWIGS  =  -1.00
  virtual crystal weights 
   VCA    =   1.00
   NELECT =      32.0000    total number of electrons
   NUPDOWN=      -1.0000    fix difference up-down

 DOS related values:
   EMIN   =  10.00;   EMAX   =-10.00  energy-range for DOS
   EFERMI =   0.00
   ISMEAR =    -5;   SIGMA  =   0.06  broadening in eV -4-tet -1-fermi 0-gaus

 Electronic relaxation 2 (details)
   IALGO  =     38    algorithm
   LDIAG  =      T    sub-space diagonalisation (order eigenvalues)
   LSUBROT=      F    optimize rotation matrix (better conditioning)
   TURBO    =      0    0=normal 1=particle mesh
   IRESTART =      0    0=no restart 2=restart with 2 vectors
   NREBOOT  =      0    no. of reboots
   NMIN     =      0    reboot dimension
   EREF     =   0.00    reference energy to select bands
   IMIX   =      4    mixing-type and parameters
     AMIX     =   0.40;   BMIX     =  1.00
     AMIX_MAG =   1.60;   BMIX_MAG =  1.00
     AMIN     =   0.10
     WC   =   100.;   INIMIX=   1;  MIXPRE=   1;  MAXMIX= -45

 Intra band minimization:
   WEIMIN = 0.0000     energy-eigenvalue tresh-hold
   EBREAK =  0.10E-07  absolut break condition
   DEPER  =   0.30     relativ break condition  

   TIME   =   0.40     timestep for ELM

  volume/ion in A,a.u.               =       5.77        38.93
  Fermi-wavevector in a.u.,A,eV,Ry     =   1.448954  2.738127 28.565004  2.099469
  Thomas-Fermi vector in A             =   2.566736
 
 Write flags
   LWAVE        =      F    write WAVECAR
   LDOWNSAMPLE  =      F    k-point downsampling of WAVECAR
   LCHARG       =      F    write CHGCAR
   LVTOT        =      F    write LOCPOT, total local potential
   LVHAR        =      F    write LOCPOT, Hartree potential only
   LELF         =      F    write electronic localiz. function (ELF)
   LORBIT       =      0    0 simple, 1 ext, 2 COOP (PROOUT), +10 PAW based schemes


 Dipole corrections
   LMONO  =      F    monopole corrections only (constant potential shift)
   LDIPOL =      F    correct potential (dipole corrections)
   IDIPOL =      0    1-x, 2-y, 3-z, 4-all directions 
   EPSILON=  1.0000000 bulk dielectric constant

 Exchange correlation treatment:
   GGA     =    --    GGA type
   LEXCH   =     8    internal setting for exchange type
   VOSKOWN=      0    Vosko Wilk Nusair interpolation
   LHFCALC =     F    Hartree Fock is set to
   LHFONE  =     F    Hartree Fock one center treatment
   AEXX    =    0.0000 exact exchange contribution

 Linear response parameters
   LEPSILON=     F    determine dielectric tensor
   LRPA    =     F    only Hartree local field effects (RPA)
   LNABLA  =     F    use nabla operator in PAW spheres
   LVEL    =     F    velocity operator in full k-point grid
   LINTERFAST=   F  fast interpolation
   KINTER  =     0    interpolate to denser k-point grid
   CSHIFT  =0.1000    complex shift for real part using Kramers Kronig
   OMEGAMAX=  -1.0    maximum frequency
   DEG_THRESHOLD= 0.2000000E-02 threshold for treating states as degnerate
   RTIME   =   -0.100 relaxation time in fs
  (WPLASMAI=    0.000 imaginary part of plasma frequency in eV, 0.658/RTIME)
   DFIELD  = 0.0000000 0.0000000 0.0000000 field for delta impulse in time
 
 Orbital magnetization related:
   ORBITALMAG=     F  switch on orbital magnetization
   LCHIMAG   =     F  perturbation theory with respect to B field
   DQ        =  0.001000  dq finite difference perturbation B field
   LLRAUG    =     F  two centre corrections for induced B field



--------------------------------------------------------------------------------------------------------


 Static calculation
 charge density and potential will be updated during run
 non-spin polarized calculation
 Variant of blocked Davidson
 Davidson routine will perform the subspace rotation
 perform sub-space diagonalisation
    after iterative eigenvector-optimisation
 modified Broyden-mixing scheme, WC =      100.0
 initial mixing is a Kerker type mixing with AMIX =  0.4000 and BMIX =      1.0000
 Hartree-type preconditioning will be used
 using additional bands            8
 reciprocal scheme for non local part
 calculate Harris-corrections to forces 
   (improved forces if not selfconsistent)
 use gradient corrections 
 use of overlap-Matrix (Vanderbilt PP)
 Fermi weights with tetrahedron method with Bloechl corrections


--------------------------------------------------------------------------------------------------------


  energy-cutoff  :      400.00
  volume of cell :       46.15
      direct lattice vectors                 reciprocal lattice vectors
     3.589999359  0.000000000  0.000000000     0.278551582  0.011150956  0.011625674
    -0.143599573  3.587126323  0.000000000     0.000000000  0.278774682  0.011625675
    -0.143599573 -0.149463178  3.584011188     0.000000000  0.000000000  0.279016986

  length of vectors
     3.589999359  3.589999456  3.589999481     0.279016996  0.279016988  0.279016986


 
 k-points in units of 2pi/SCALE and weight: kpt_density=1000                        
   0.00000000  0.00000000  0.00000000       0.001
   0.02331844  0.00093348  0.00097322       0.003
   0.04663688  0.00186696  0.00194644       0.003
   0.06995531  0.00280045  0.00291967       0.003
   0.09327375  0.00373393  0.00389289       0.003
   0.11659219  0.00466741  0.00486611       0.003
   0.13991063  0.00560089  0.00583933       0.002
   0.02331844  0.02427060  0.00194644       0.003
   0.04663688  0.02520408  0.00291967       0.007
   0.06995531  0.02613756  0.00389289       0.007
   0.09327375  0.02707104  0.00486611       0.007
   0.11659219  0.02800452  0.00583933       0.007
   0.13991063  0.02893801  0.00681255       0.007
  -0.11659219  0.01866970 -0.00389289       0.007
  -0.09327375  0.01960319 -0.00291967       0.007
  -0.06995531  0.02053667 -0.00194644       0.007
  -0.04663688  0.02147015 -0.00097322       0.007
  -0.02331844  0.02240363  0.00000000       0.003
   0.04663688  0.04854119  0.00389289       0.003
   0.06995531  0.04947467  0.00486611       0.007
   0.09327375  0.05040816  0.00583933       0.007
   0.11659219  0.05134164  0.00681255       0.007
   0.13991063  0.05227512  0.00778578       0.007
  -0.11659219  0.04200682 -0.00291967       0.007
  -0.09327375  0.04294030 -0.00194644       0.007
  -0.06995531  0.04387378 -0.00097322       0.007
  -0.04663688  0.04480726  0.00000000       0.003
   0.06995531  0.07281179  0.00583933       0.003
   0.09327375  0.07374527  0.00681255       0.007
   0.11659219  0.07467875  0.00778578       0.007
   0.13991063  0.07561223  0.00875900       0.007
  -0.11659219  0.06534393 -0.00194644       0.007
  -0.09327375  0.06627741 -0.00097322       0.007
  -0.06995531  0.06721090  0.00000000       0.003
   0.09327375  0.09708238  0.00778578       0.003
   0.11659219  0.09801587  0.00875900       0.007
   0.13991063  0.09894935  0.00973222       0.007
  -0.11659219  0.08868105 -0.00097322       0.007
  -0.09327375  0.08961453  0.00000000       0.003
   0.11659219  0.12135298  0.00973222       0.003
   0.13991063  0.12228646  0.01070544       0.007
  -0.11659219  0.11201816  0.00000000       0.003
   0.13991063  0.14562358  0.01167867       0.002
   0.02331844  0.02427060  0.02530384       0.001
   0.04663688  0.02520408  0.02627706       0.003
   0.06995531  0.02613756  0.02725029       0.003
   0.09327375  0.02707104  0.02822351       0.003
   0.11659219  0.02800452  0.02919673       0.003
   0.13991063  0.02893801  0.03016995       0.003
  -0.11659219  0.01866970  0.01946451       0.003
  -0.09327375  0.01960319  0.02043773       0.003
  -0.06995531  0.02053667  0.02141095       0.003
  -0.04663688  0.02147015  0.02238418       0.003
  -0.02331844  0.02240363  0.02335740       0.003
   0.04663688  0.04854119  0.02725029       0.003
   0.06995531  0.04947467  0.02822351       0.007
   0.09327375  0.05040816  0.02919673       0.007
   0.11659219  0.05134164  0.03016995       0.007
   0.13991063  0.05227512  0.03114317       0.007
  -0.11659219  0.04200682  0.02043773       0.007
  -0.09327375  0.04294030  0.02141095       0.007
  -0.06995531  0.04387378  0.02238418       0.007
  -0.04663688  0.04480726  0.02335740       0.007
  -0.02331844  0.04574075  0.02433062       0.007
   0.06995531  0.07281179  0.02919673       0.003
   0.09327375  0.07374527  0.03016995       0.007
   0.11659219  0.07467875  0.03114317       0.007
   0.13991063  0.07561223  0.03211640       0.007
  -0.11659219  0.06534393  0.02141095       0.007
  -0.09327375  0.06627741  0.02238418       0.007
  -0.06995531  0.06721090  0.02335740       0.007
  -0.04663688  0.06814438  0.02433062       0.007
  -0.02331844  0.06907786  0.02530384       0.007
   0.09327375  0.09708238  0.03114318       0.003
   0.11659219  0.09801587  0.03211640       0.007
   0.13991063  0.09894935  0.03308962       0.007
  -0.11659219  0.08868105  0.02238418       0.007
  -0.09327375  0.08961453  0.02335740       0.007
  -0.06995531  0.09054801  0.02433062       0.007
  -0.04663688  0.09148149  0.02530384       0.007
  -0.02331844  0.09241497  0.02627706       0.007
   0.11659219  0.12135298  0.03308962       0.003
   0.13991063  0.12228646  0.03406284       0.007
  -0.11659219  0.11201816  0.02335740       0.007
  -0.09327375  0.11295164  0.02433062       0.007
  -0.06995531  0.11388512  0.02530384       0.007
  -0.04663688  0.11481861  0.02627706       0.007
  -0.02331844  0.11575209  0.02725029       0.007
   0.13991063  0.14562358  0.03503606       0.003
  -0.11659219  0.13535527  0.02433062       0.007
  -0.09327375  0.13628876  0.02530384       0.007
  -0.06995531  0.13722224  0.02627706       0.007
  -0.04663688  0.13815572  0.02725029       0.007
  -0.02331844  0.13908920  0.02822351       0.003
  -0.11659219 -0.12135298  0.01362518       0.003
  -0.09327375 -0.12041950  0.01459840       0.007
  -0.06995531 -0.11948602  0.01557162       0.007
  -0.04663688 -0.11855253  0.01654484       0.007
  -0.09327375 -0.09708238  0.01557162       0.003
  -0.06995531 -0.09614890  0.01654484       0.007
  -0.04663688 -0.09521542  0.01751807       0.007
  -0.06995531 -0.07281179  0.01751807       0.003
  -0.04663688 -0.07187831  0.01849129       0.007
  -0.04663688 -0.04854119  0.01946451       0.003
   0.04663688  0.04854119  0.05060768       0.001
   0.06995531  0.04947467  0.05158091       0.003
   0.09327375  0.05040816  0.05255413       0.003
   0.11659219  0.05134164  0.05352735       0.003
   0.13991063  0.05227512  0.05450057       0.003
  -0.11659219  0.04200682  0.04379513       0.003
  -0.09327375  0.04294030  0.04476835       0.003
  -0.06995531  0.04387378  0.04574157       0.003
  -0.04663688  0.04480726  0.04671480       0.003
   0.06995531  0.07281179  0.05255413       0.003
   0.09327375  0.07374527  0.05352735       0.007
   0.11659219  0.07467875  0.05450057       0.007
   0.13991063  0.07561223  0.05547380       0.007
  -0.11659219  0.06534393  0.04476835       0.007
  -0.09327375  0.06627741  0.04574157       0.007
  -0.06995531  0.06721090  0.04671480       0.007
  -0.04663688  0.06814438  0.04768802       0.007
   0.09327375  0.09708238  0.05450057       0.003
   0.11659219  0.09801587  0.05547380       0.007
   0.13991063  0.09894935  0.05644702       0.007
  -0.11659219  0.08868105  0.04574157       0.007
  -0.09327375  0.08961453  0.04671480       0.007
  -0.06995531  0.09054801  0.04768802       0.007
  -0.04663688  0.09148149  0.04866124       0.007
   0.11659219  0.12135298  0.05644702       0.003
   0.13991063  0.12228646  0.05742024       0.007
  -0.11659219  0.11201816  0.04671480       0.007
  -0.09327375  0.11295164  0.04768802       0.007
  -0.06995531  0.11388512  0.04866124       0.007
  -0.04663688  0.11481861  0.04963446       0.007
   0.13991063  0.14562358  0.05839346       0.003
  -0.11659219  0.13535527  0.04768802       0.007
  -0.09327375  0.13628876  0.04866124       0.007
  -0.06995531  0.13722224  0.04963446       0.007
  -0.04663688  0.13815572  0.05060768       0.003
  -0.11659219 -0.12135298  0.03698257       0.003
  -0.09327375 -0.12041950  0.03795580       0.007
  -0.06995531 -0.11948602  0.03892902       0.007
  -0.09327375 -0.09708238  0.03892902       0.003
  -0.06995531 -0.09614890  0.03990224       0.007
  -0.06995531 -0.07281179  0.04087546       0.003
   0.06995531  0.07281179  0.07591153       0.001
   0.09327375  0.07374527  0.07688475       0.003
   0.11659219  0.07467875  0.07785797       0.003
   0.13991063  0.07561223  0.07883119       0.003
  -0.11659219  0.06534393  0.06812575       0.003
  -0.09327375  0.06627741  0.06909897       0.003
  -0.06995531  0.06721090  0.07007219       0.003
   0.09327375  0.09708238  0.07785797       0.003
   0.11659219  0.09801587  0.07883119       0.007
   0.13991063  0.09894935  0.07980442       0.007
  -0.11659219  0.08868105  0.06909897       0.007
  -0.09327375  0.08961453  0.07007219       0.007
  -0.06995531  0.09054801  0.07104542       0.007
   0.11659219  0.12135298  0.07980442       0.003
   0.13991063  0.12228646  0.08077764       0.007
  -0.11659219  0.11201816  0.07007219       0.007
  -0.09327375  0.11295164  0.07104542       0.007
  -0.06995531  0.11388512  0.07201864       0.007
   0.13991063  0.14562358  0.08175086       0.003
  -0.11659219  0.13535527  0.07104542       0.007
  -0.09327375  0.13628876  0.07201864       0.007
  -0.06995531  0.13722224  0.07299186       0.003
  -0.11659219 -0.12135298  0.06033997       0.003
  -0.09327375 -0.12041950  0.06131319       0.007
  -0.09327375 -0.09708238  0.06228642       0.003
   0.09327375  0.09708238  0.10121537       0.001
   0.11659219  0.09801587  0.10218859       0.003
   0.13991063  0.09894935  0.10316181       0.003
  -0.11659219  0.08868105  0.09245637       0.003
  -0.09327375  0.08961453  0.09342959       0.003
   0.11659219  0.12135298  0.10316181       0.003
   0.13991063  0.12228646  0.10413504       0.007
  -0.11659219  0.11201816  0.09342959       0.007
  -0.09327375  0.11295164  0.09440281       0.007
   0.13991063  0.14562358  0.10510826       0.003
  -0.11659219  0.13535527  0.09440281       0.007
  -0.09327375  0.13628876  0.09537604       0.003
  -0.11659219 -0.12135298  0.08369737       0.003
   0.11659219  0.12135298  0.12651921       0.001
   0.13991063  0.12228646  0.12749243       0.003
  -0.11659219  0.11201816  0.11678699       0.003
   0.13991063  0.14562358  0.12846566       0.003
  -0.11659219  0.13535527  0.11776021       0.003
   0.13991063  0.14562358  0.15182305       0.001
 
 k-points in reciprocal lattice and weights: kpt_density=1000                        
   0.00000000  0.00000000  0.00000000       0.001
   0.08333333 -0.00000000  0.00000000       0.003
   0.16666667 -0.00000000  0.00000000       0.003
   0.25000000 -0.00000000  0.00000000       0.003
   0.33333333 -0.00000000 -0.00000000       0.003
   0.41666667 -0.00000000 -0.00000000       0.003
   0.50000000 -0.00000000  0.00000000       0.002
   0.08333333  0.08333333 -0.00000000       0.003
   0.16666667  0.08333333  0.00000000       0.007
   0.25000000  0.08333333  0.00000000       0.007
   0.33333333  0.08333333  0.00000000       0.007
   0.41666667  0.08333333  0.00000000       0.007
   0.50000000  0.08333333 -0.00000000       0.007
  -0.41666667  0.08333333 -0.00000000       0.007
  -0.33333333  0.08333333 -0.00000000       0.007
  -0.25000000  0.08333333 -0.00000000       0.007
  -0.16666667  0.08333333 -0.00000000       0.007
  -0.08333333  0.08333333 -0.00000000       0.003
   0.16666667  0.16666667  0.00000000       0.003
   0.25000000  0.16666667  0.00000000       0.007
   0.33333333  0.16666667  0.00000000       0.007
   0.41666667  0.16666667  0.00000000       0.007
   0.50000000  0.16666667  0.00000000       0.007
  -0.41666667  0.16666667 -0.00000000       0.007
  -0.33333333  0.16666667 -0.00000000       0.007
  -0.25000000  0.16666667 -0.00000000       0.007
  -0.16666667  0.16666667 -0.00000000       0.003
   0.25000000  0.25000000 -0.00000000       0.003
   0.33333333  0.25000000  0.00000000       0.007
   0.41666667  0.25000000 -0.00000000       0.007
   0.50000000  0.25000000  0.00000000       0.007
  -0.41666667  0.25000000 -0.00000000       0.007
  -0.33333333  0.25000000  0.00000000       0.007
  -0.25000000  0.25000000 -0.00000000       0.003
   0.33333333  0.33333333  0.00000000       0.003
   0.41666667  0.33333333  0.00000000       0.007
   0.50000000  0.33333333  0.00000000       0.007
  -0.41666667  0.33333333  0.00000000       0.007
  -0.33333333  0.33333333  0.00000000       0.003
   0.41666667  0.41666667 -0.00000000       0.003
   0.50000000  0.41666667  0.00000000       0.007
  -0.41666667  0.41666667 -0.00000000       0.003
   0.50000000  0.50000000 -0.00000000       0.002
   0.08333333  0.08333333  0.08333333       0.001
   0.16666667  0.08333333  0.08333333       0.003
   0.25000000  0.08333333  0.08333333       0.003
   0.33333333  0.08333333  0.08333333       0.003
   0.41666667  0.08333333  0.08333333       0.003
   0.50000000  0.08333333  0.08333333       0.003
  -0.41666667  0.08333333  0.08333333       0.003
  -0.33333333  0.08333333  0.08333333       0.003
  -0.25000000  0.08333333  0.08333333       0.003
  -0.16666667  0.08333333  0.08333333       0.003
  -0.08333333  0.08333333  0.08333333       0.003
   0.16666667  0.16666667  0.08333333       0.003
   0.25000000  0.16666667  0.08333333       0.007
   0.33333333  0.16666667  0.08333333       0.007
   0.41666667  0.16666667  0.08333333       0.007
   0.50000000  0.16666667  0.08333333       0.007
  -0.41666667  0.16666667  0.08333333       0.007
  -0.33333333  0.16666667  0.08333333       0.007
  -0.25000000  0.16666667  0.08333333       0.007
  -0.16666667  0.16666667  0.08333333       0.007
  -0.08333333  0.16666667  0.08333333       0.007
   0.25000000  0.25000000  0.08333333       0.003
   0.33333333  0.25000000  0.08333333       0.007
   0.41666667  0.25000000  0.08333333       0.007
   0.50000000  0.25000000  0.08333333       0.007
  -0.41666667  0.25000000  0.08333333       0.007
  -0.33333333  0.25000000  0.08333333       0.007
  -0.25000000  0.25000000  0.08333333       0.007
  -0.16666667  0.25000000  0.08333333       0.007
  -0.08333333  0.25000000  0.08333333       0.007
   0.33333333  0.33333333  0.08333333       0.003
   0.41666667  0.33333333  0.08333333       0.007
   0.50000000  0.33333333  0.08333333       0.007
  -0.41666667  0.33333333  0.08333333       0.007
  -0.33333333  0.33333333  0.08333333       0.007
  -0.25000000  0.33333333  0.08333333       0.007
  -0.16666667  0.33333333  0.08333333       0.007
  -0.08333333  0.33333333  0.08333333       0.007
   0.41666667  0.41666667  0.08333333       0.003
   0.50000000  0.41666667  0.08333333       0.007
  -0.41666667  0.41666667  0.08333333       0.007
  -0.33333333  0.41666667  0.08333333       0.007
  -0.25000000  0.41666667  0.08333333       0.007
  -0.16666667  0.41666667  0.08333333       0.007
  -0.08333333  0.41666667  0.08333333       0.007
   0.50000000  0.50000000  0.08333333       0.003
  -0.41666667  0.50000000  0.08333333       0.007
  -0.33333333  0.50000000  0.08333333       0.007
  -0.25000000  0.50000000  0.08333333       0.007
  -0.16666667  0.50000000  0.08333333       0.007
  -0.08333333  0.50000000  0.08333333       0.003
  -0.41666667 -0.41666667  0.08333333       0.003
  -0.33333333 -0.41666667  0.08333333       0.007
  -0.25000000 -0.41666667  0.08333333       0.007
  -0.16666667 -0.41666667  0.08333333       0.007
  -0.33333333 -0.33333333  0.08333333       0.003
  -0.25000000 -0.33333333  0.08333333       0.007
  -0.16666667 -0.33333333  0.08333333       0.007
  -0.25000000 -0.25000000  0.08333333       0.003
  -0.16666667 -0.25000000  0.08333333       0.007
  -0.16666667 -0.16666667  0.08333333       0.003
   0.16666667  0.16666667  0.16666667       0.001
   0.25000000  0.16666667  0.16666667       0.003
   0.33333333  0.16666667  0.16666667       0.003
   0.41666667  0.16666667  0.16666667       0.003
   0.50000000  0.16666667  0.16666667       0.003
  -0.41666667  0.16666667  0.16666667       0.003
  -0.33333333  0.16666667  0.16666667       0.003
  -0.25000000  0.16666667  0.16666667       0.003
  -0.16666667  0.16666667  0.16666667       0.003
   0.25000000  0.25000000  0.16666667       0.003
   0.33333333  0.25000000  0.16666667       0.007
   0.41666667  0.25000000  0.16666667       0.007
   0.50000000  0.25000000  0.16666667       0.007
  -0.41666667  0.25000000  0.16666667       0.007
  -0.33333333  0.25000000  0.16666667       0.007
  -0.25000000  0.25000000  0.16666667       0.007
  -0.16666667  0.25000000  0.16666667       0.007
   0.33333333  0.33333333  0.16666667       0.003
   0.41666667  0.33333333  0.16666667       0.007
   0.50000000  0.33333333  0.16666667       0.007
  -0.41666667  0.33333333  0.16666667       0.007
  -0.33333333  0.33333333  0.16666667       0.007
  -0.25000000  0.33333333  0.16666667       0.007
  -0.16666667  0.33333333  0.16666667       0.007
   0.41666667  0.41666667  0.16666667       0.003
   0.50000000  0.41666667  0.16666667       0.007
  -0.41666667  0.41666667  0.16666667       0.007
  -0.33333333  0.41666667  0.16666667       0.007
  -0.25000000  0.41666667  0.16666667       0.007
  -0.16666667  0.41666667  0.16666667       0.007
   0.50000000  0.50000000  0.16666667       0.003
  -0.41666667  0.50000000  0.16666667       0.007
  -0.33333333  0.50000000  0.16666667       0.007
  -0.25000000  0.50000000  0.16666667       0.007
  -0.16666667  0.50000000  0.16666667       0.003
  -0.41666667 -0.41666667  0.16666667       0.003
  -0.33333333 -0.41666667  0.16666667       0.007
  -0.25000000 -0.41666667  0.16666667       0.007
  -0.33333333 -0.33333333  0.16666667       0.003
  -0.25000000 -0.33333333  0.16666667       0.007
  -0.25000000 -0.25000000  0.16666667       0.003
   0.25000000  0.25000000  0.25000000       0.001
   0.33333333  0.25000000  0.25000000       0.003
   0.41666667  0.25000000  0.25000000       0.003
   0.50000000  0.25000000  0.25000000       0.003
  -0.41666667  0.25000000  0.25000000       0.003
  -0.33333333  0.25000000  0.25000000       0.003
  -0.25000000  0.25000000  0.25000000       0.003
   0.33333333  0.33333333  0.25000000       0.003
   0.41666667  0.33333333  0.25000000       0.007
   0.50000000  0.33333333  0.25000000       0.007
  -0.41666667  0.33333333  0.25000000       0.007
  -0.33333333  0.33333333  0.25000000       0.007
  -0.25000000  0.33333333  0.25000000       0.007
   0.41666667  0.41666667  0.25000000       0.003
   0.50000000  0.41666667  0.25000000       0.007
  -0.41666667  0.41666667  0.25000000       0.007
  -0.33333333  0.41666667  0.25000000       0.007
  -0.25000000  0.41666667  0.25000000       0.007
   0.50000000  0.50000000  0.25000000       0.003
  -0.41666667  0.50000000  0.25000000       0.007
  -0.33333333  0.50000000  0.25000000       0.007
  -0.25000000  0.50000000  0.25000000       0.003
  -0.41666667 -0.41666667  0.25000000       0.003
  -0.33333333 -0.41666667  0.25000000       0.007
  -0.33333333 -0.33333333  0.25000000       0.003
   0.33333333  0.33333333  0.33333333       0.001
   0.41666667  0.33333333  0.33333333       0.003
   0.50000000  0.33333333  0.33333333       0.003
  -0.41666667  0.33333333  0.33333333       0.003
  -0.33333333  0.33333333  0.33333333       0.003
   0.41666667  0.41666667  0.33333333       0.003
   0.50000000  0.41666667  0.33333333       0.007
  -0.41666667  0.41666667  0.33333333       0.007
  -0.33333333  0.41666667  0.33333333       0.007
   0.50000000  0.50000000  0.33333333       0.003
  -0.41666667  0.50000000  0.33333333       0.007
  -0.33333333  0.50000000  0.33333333       0.003
  -0.41666667 -0.41666667  0.33333333       0.003
   0.41666667  0.41666667  0.41666667       0.001
   0.50000000  0.41666667  0.41666667       0.003
  -0.41666667  0.41666667  0.41666667       0.003
   0.50000000  0.50000000  0.41666667       0.003
  -0.41666667  0.50000000  0.41666667       0.003
   0.50000000  0.50000000  0.50000000       0.001
 
 position of ions in fractional coordinates (direct lattice) 
   0.25000000  0.75000000  0.25000000
   0.00000000  0.00000000  0.50000000
   0.25000000  0.25000000  0.75000000
   0.00000000  0.50000000  0.00000000
   0.75000000  0.75000000  0.75000000
   0.50000000  0.00000000  0.00000000
   0.75000000  0.25000000  0.25000000
   0.50000000  0.50000000  0.50000000
 
 position of ions in cartesian coordinates  (Angst):
   0.75390027  2.65297895  0.89600280
  -0.07179979 -0.07473159  1.79200559
   0.75390027  0.78468420  2.68800839
  -0.07179979  1.79356316  0.00000000
   2.47710016  2.57824736  2.68800839
   1.79499968  0.00000000  0.00000000
   2.62069973  0.85941579  0.89600280
   1.65140011  1.71883157  1.79200559
 


--------------------------------------------------------------------------------------------------------


 k-point  1 :   0.0000 0.0000 0.0000  plane waves:     841
 k-point  2 :   0.0833-0.0000 0.0000  plane waves:     838
 k-point  3 :   0.1667-0.0000 0.0000  plane waves:     831
 k-point  4 :   0.2500-0.0000 0.0000  plane waves:     838
 k-point  5 :   0.3333-0.0000-0.0000  plane waves:     836
 k-point  6 :   0.4167-0.0000-0.0000  plane waves:     831
 k-point  7 :   0.5000-0.0000 0.0000  plane waves:     836
 k-point  8 :   0.0833 0.0833-0.0000  plane waves:     834
 k-point  9 :   0.1667 0.0833 0.0000  plane waves:     839
 k-point 10 :   0.2500 0.0833 0.0000  plane waves:     835
 k-point 11 :   0.3333 0.0833 0.0000  plane waves:     844
 k-point 12 :   0.4167 0.0833 0.0000  plane waves:     835
 k-point 13 :   0.5000 0.0833-0.0000  plane waves:     834
 k-point 14 :  -0.4167 0.0833-0.0000  plane waves:     833
 k-point 15 :  -0.3333 0.0833-0.0000  plane waves:     833
 k-point 16 :  -0.2500 0.0833-0.0000  plane waves:     828
 k-point 17 :  -0.1667 0.0833-0.0000  plane waves:     827
 k-point 18 :  -0.0833 0.0833-0.0000  plane waves:     829
 k-point 19 :   0.1667 0.1667 0.0000  plane waves:     837
 k-point 20 :   0.2500 0.1667 0.0000  plane waves:     840
 k-point 21 :   0.3333 0.1667 0.0000  plane waves:     840
 k-point 22 :   0.4167 0.1667 0.0000  plane waves:     841
 k-point 23 :   0.5000 0.1667 0.0000  plane waves:     834
 k-point 24 :  -0.4167 0.1667-0.0000  plane waves:     833
 k-point 25 :  -0.3333 0.1667-0.0000  plane waves:     833
 k-point 26 :  -0.2500 0.1667-0.0000  plane waves:     829
 k-point 27 :  -0.1667 0.1667-0.0000  plane waves:     831
 k-point 28 :   0.2500 0.2500-0.0000  plane waves:     844
 k-point 29 :   0.3333 0.2500 0.0000  plane waves:     841
 k-point 30 :   0.4167 0.2500-0.0000  plane waves:     840
 k-point 31 :   0.5000 0.2500 0.0000  plane waves:     840
 k-point 32 :  -0.4167 0.2500-0.0000  plane waves:     838
 k-point 33 :  -0.3333 0.2500 0.0000  plane waves:     835
 k-point 34 :  -0.2500 0.2500-0.0000  plane waves:     834
 k-point 35 :   0.3333 0.3333 0.0000  plane waves:     844
 k-point 36 :   0.4167 0.3333 0.0000  plane waves:     838
 k-point 37 :   0.5000 0.3333 0.0000  plane waves:     842
 k-point 38 :  -0.4167 0.3333 0.0000  plane waves:     844
 k-point 39 :  -0.3333 0.3333 0.0000  plane waves:     842
 k-point 40 :   0.4167 0.4167-0.0000  plane waves:     836
 k-point 41 :   0.5000 0.4167 0.0000  plane waves:     840
 k-point 42 :  -0.4167 0.4167-0.0000  plane waves:     846
 k-point 43 :   0.5000 0.5000-0.0000  plane waves:     850
 k-point 44 :   0.0833 0.0833 0.0833  plane waves:     841
 k-point 45 :   0.1667 0.0833 0.0833  plane waves:     844
 k-point 46 :   0.2500 0.0833 0.0833  plane waves:     841
 k-point 47 :   0.3333 0.0833 0.0833  plane waves:     848
 k-point 48 :   0.4167 0.0833 0.0833  plane waves:     833
 k-point 49 :   0.5000 0.0833 0.0833  plane waves:     833
 k-point 50 :  -0.4167 0.0833 0.0833  plane waves:     839
 k-point 51 :  -0.3333 0.0833 0.0833  plane waves:     833
 k-point 52 :  -0.2500 0.0833 0.0833  plane waves:     827
 k-point 53 :  -0.1667 0.0833 0.0833  plane waves:     830
 k-point 54 :  -0.0833 0.0833 0.0833  plane waves:     839
 k-point 55 :   0.1667 0.1667 0.0833  plane waves:     844
 k-point 56 :   0.2500 0.1667 0.0833  plane waves:     840
 k-point 57 :   0.3333 0.1667 0.0833  plane waves:     844
 k-point 58 :   0.4167 0.1667 0.0833  plane waves:     843
 k-point 59 :   0.5000 0.1667 0.0833  plane waves:     837
 k-point 60 :  -0.4167 0.1667 0.0833  plane waves:     839
 k-point 61 :  -0.3333 0.1667 0.0833  plane waves:     832
 k-point 62 :  -0.2500 0.1667 0.0833  plane waves:     833
 k-point 63 :  -0.1667 0.1667 0.0833  plane waves:     827
 k-point 64 :  -0.0833 0.1667 0.0833  plane waves:     835
 k-point 65 :   0.2500 0.2500 0.0833  plane waves:     840
 k-point 66 :   0.3333 0.2500 0.0833  plane waves:     844
 k-point 67 :   0.4167 0.2500 0.0833  plane waves:     844
 k-point 68 :   0.5000 0.2500 0.0833  plane waves:     843
 k-point 69 :  -0.4167 0.2500 0.0833  plane waves:     841
 k-point 70 :  -0.3333 0.2500 0.0833  plane waves:     839
 k-point 71 :  -0.2500 0.2500 0.0833  plane waves:     835
 k-point 72 :  -0.1667 0.2500 0.0833  plane waves:     829
 k-point 73 :  -0.0833 0.2500 0.0833  plane waves:     834
 k-point 74 :   0.3333 0.3333 0.0833  plane waves:     842
 k-point 75 :   0.4167 0.3333 0.0833  plane waves:     843
 k-point 76 :   0.5000 0.3333 0.0833  plane waves:     841
 k-point 77 :  -0.4167 0.3333 0.0833  plane waves:     841
 k-point 78 :  -0.3333 0.3333 0.0833  plane waves:     841
 k-point 79 :  -0.2500 0.3333 0.0833  plane waves:     835
 k-point 80 :  -0.1667 0.3333 0.0833  plane waves:     832
 k-point 81 :  -0.0833 0.3333 0.0833  plane waves:     835
 k-point 82 :   0.4167 0.4167 0.0833  plane waves:     835
 k-point 83 :   0.5000 0.4167 0.0833  plane waves:     843
 k-point 84 :  -0.4167 0.4167 0.0833  plane waves:     847
 k-point 85 :  -0.3333 0.4167 0.0833  plane waves:     843
 k-point 86 :  -0.2500 0.4167 0.0833  plane waves:     837
 k-point 87 :  -0.1667 0.4167 0.0833  plane waves:     832
 k-point 88 :  -0.0833 0.4167 0.0833  plane waves:     833
 k-point 89 :   0.5000 0.5000 0.0833  plane waves:     842
 k-point 90 :  -0.4167 0.5000 0.0833  plane waves:     836
 k-point 91 :  -0.3333 0.5000 0.0833  plane waves:     841
 k-point 92 :  -0.2500 0.5000 0.0833  plane waves:     837
 k-point 93 :  -0.1667 0.5000 0.0833  plane waves:     834
 k-point 94 :  -0.0833 0.5000 0.0833  plane waves:     836
 k-point 95 :  -0.4167-0.4167 0.0833  plane waves:     836
 k-point 96 :  -0.3333-0.4167 0.0833  plane waves:     838
 k-point 97 :  -0.2500-0.4167 0.0833  plane waves:     838
 k-point 98 :  -0.1667-0.4167 0.0833  plane waves:     838
 k-point 99 :  -0.3333-0.3333 0.0833  plane waves:     838
 k-point ** :  -0.2500-0.3333 0.0833  plane waves:     836
 k-point ** :  -0.1667-0.3333 0.0833  plane waves:     839
 k-point ** :  -0.2500-0.2500 0.0833  plane waves:     842
 k-point ** :  -0.1667-0.2500 0.0833  plane waves:     839
 k-point ** :  -0.1667-0.1667 0.0833  plane waves:     834
 k-point ** :   0.1667 0.1667 0.1667  plane waves:     844
 k-point ** :   0.2500 0.1667 0.1667  plane waves:     841
 k-point ** :   0.3333 0.1667 0.1667  plane waves:     842
 k-point ** :   0.4167 0.1667 0.1667  plane waves:     846
 k-point ** :   0.5000 0.1667 0.1667  plane waves:     847
 k-point ** :  -0.4167 0.1667 0.1667  plane waves:     838
 k-point ** :  -0.3333 0.1667 0.1667  plane waves:     834
 k-point ** :  -0.2500 0.1667 0.1667  plane waves:     834
 k-point ** :  -0.1667 0.1667 0.1667  plane waves:     831
 k-point ** :   0.2500 0.2500 0.1667  plane waves:     846
 k-point ** :   0.3333 0.2500 0.1667  plane waves:     842
 k-point ** :   0.4167 0.2500 0.1667  plane waves:     845
 k-point ** :   0.5000 0.2500 0.1667  plane waves:     843
 k-point ** :  -0.4167 0.2500 0.1667  plane waves:     841
 k-point ** :  -0.3333 0.2500 0.1667  plane waves:     838
 k-point ** :  -0.2500 0.2500 0.1667  plane waves:     835
 k-point ** :  -0.1667 0.2500 0.1667  plane waves:     833
 k-point ** :   0.3333 0.3333 0.1667  plane waves:     843
 k-point ** :   0.4167 0.3333 0.1667  plane waves:     846
 k-point ** :   0.5000 0.3333 0.1667  plane waves:     842
 k-point ** :  -0.4167 0.3333 0.1667  plane waves:     845
 k-point ** :  -0.3333 0.3333 0.1667  plane waves:     843
 k-point ** :  -0.2500 0.3333 0.1667  plane waves:     834
 k-point ** :  -0.1667 0.3333 0.1667  plane waves:     834
 k-point ** :   0.4167 0.4167 0.1667  plane waves:     839
 k-point ** :   0.5000 0.4167 0.1667  plane waves:     840
 k-point ** :  -0.4167 0.4167 0.1667  plane waves:     844
 k-point ** :  -0.3333 0.4167 0.1667  plane waves:     839
 k-point ** :  -0.2500 0.4167 0.1667  plane waves:     837
 k-point ** :  -0.1667 0.4167 0.1667  plane waves:     834
 k-point ** :   0.5000 0.5000 0.1667  plane waves:     841
 k-point ** :  -0.4167 0.5000 0.1667  plane waves:     837
 k-point ** :  -0.3333 0.5000 0.1667  plane waves:     839
 k-point ** :  -0.2500 0.5000 0.1667  plane waves:     838
 k-point ** :  -0.1667 0.5000 0.1667  plane waves:     838
 k-point ** :  -0.4167-0.4167 0.1667  plane waves:     831
 k-point ** :  -0.3333-0.4167 0.1667  plane waves:     836
 k-point ** :  -0.2500-0.4167 0.1667  plane waves:     835
 k-point ** :  -0.3333-0.3333 0.1667  plane waves:     830
 k-point ** :  -0.2500-0.3333 0.1667  plane waves:     833
 k-point ** :  -0.2500-0.2500 0.1667  plane waves:     829
 k-point ** :   0.2500 0.2500 0.2500  plane waves:     852
 k-point ** :   0.3333 0.2500 0.2500  plane waves:     845
 k-point ** :   0.4167 0.2500 0.2500  plane waves:     848
 k-point ** :   0.5000 0.2500 0.2500  plane waves:     842
 k-point ** :  -0.4167 0.2500 0.2500  plane waves:     850
 k-point ** :  -0.3333 0.2500 0.2500  plane waves:     838
 k-point ** :  -0.2500 0.2500 0.2500  plane waves:     829
 k-point ** :   0.3333 0.3333 0.2500  plane waves:     847
 k-point ** :   0.4167 0.3333 0.2500  plane waves:     848
 k-point ** :   0.5000 0.3333 0.2500  plane waves:     843
 k-point ** :  -0.4167 0.3333 0.2500  plane waves:     846
 k-point ** :  -0.3333 0.3333 0.2500  plane waves:     836
 k-point ** :  -0.2500 0.3333 0.2500  plane waves:     833
 k-point ** :   0.4167 0.4167 0.2500  plane waves:     841
 k-point ** :   0.5000 0.4167 0.2500  plane waves:     838
 k-point ** :  -0.4167 0.4167 0.2500  plane waves:     844
 k-point ** :  -0.3333 0.4167 0.2500  plane waves:     839
 k-point ** :  -0.2500 0.4167 0.2500  plane waves:     836
 k-point ** :   0.5000 0.5000 0.2500  plane waves:     844
 k-point ** :  -0.4167 0.5000 0.2500  plane waves:     844
 k-point ** :  -0.3333 0.5000 0.2500  plane waves:     837
 k-point ** :  -0.2500 0.5000 0.2500  plane waves:     838
 k-point ** :  -0.4167-0.4167 0.2500  plane waves:     840
 k-point ** :  -0.3333-0.4167 0.2500  plane waves:     839
 k-point ** :  -0.3333-0.3333 0.2500  plane waves:     830
 k-point ** :   0.3333 0.3333 0.3333  plane waves:     852
 k-point ** :   0.4167 0.3333 0.3333  plane waves:     849
 k-point ** :   0.5000 0.3333 0.3333  plane waves:     842
 k-point ** :  -0.4167 0.3333 0.3333  plane waves:     844
 k-point ** :  -0.3333 0.3333 0.3333  plane waves:     832
 k-point ** :   0.4167 0.4167 0.3333  plane waves:     848
 k-point ** :   0.5000 0.4167 0.3333  plane waves:     843
 k-point ** :  -0.4167 0.4167 0.3333  plane waves:     842
 k-point ** :  -0.3333 0.4167 0.3333  plane waves:     841
 k-point ** :   0.5000 0.5000 0.3333  plane waves:     849
 k-point ** :  -0.4167 0.5000 0.3333  plane waves:     850
 k-point ** :  -0.3333 0.5000 0.3333  plane waves:     846
 k-point ** :  -0.4167-0.4167 0.3333  plane waves:     844
 k-point ** :   0.4167 0.4167 0.4167  plane waves:     852
 k-point ** :   0.5000 0.4167 0.4167  plane waves:     845
 k-point ** :  -0.4167 0.4167 0.4167  plane waves:     846
 k-point ** :   0.5000 0.5000 0.4167  plane waves:     849
 k-point ** :  -0.4167 0.5000 0.4167  plane waves:     846
 k-point ** :   0.5000 0.5000 0.5000  plane waves:     852

 maximum and minimum number of plane-waves per node :       233      191

 maximum number of plane-waves:       852
 maximum index in each direction: 
   IXMAX=    6   IYMAX=    6   IZMAX=    5
   IXMIN=   -6   IYMIN=   -6   IZMIN=   -6


 parallel 3D FFT for wavefunctions:
    minimum data exchange during FFTs selected (reduces bandwidth)
 parallel 3D FFT for charge:
    minimum data exchange during FFTs selected (reduces bandwidth)


 total amount of memory used by VASP MPI-rank0    37560. kBytes
=======================================================================

   base      :      30000. kBytes
   nonl-proj :       2591. kBytes
   fftplans  :        346. kBytes
   grid      :        481. kBytes
   one-center:          6. kBytes
   wavefun   :       4136. kBytes
 
     INWAV:  cpu time    0.0004: real time    0.0047
 Broyden mixing: mesh for mixing (old mesh)
   NGX = 11   NGY = 11   NGZ = 11
  (NGX  = 48   NGY  = 48   NGZ  = 48)
  gives a total of   1331 points

 initial charge density was supplied:
 charge density of overlapping atoms calculated
 number of electron      32.0000000 magnetization 
 keeping initial charge density in first step


--------------------------------------------------------------------------------------------------------


 Maximum index for augmentation-charges          277 (set IRDMAX)


--------------------------------------------------------------------------------------------------------


 First call to EWALD:  gamma=   0.494
 Maximum number of real-space cells 3x 3x 3
 Maximum number of reciprocal cells 3x 3x 3

    FEWALD:  cpu time    0.0052: real time    0.0052


--------------------------------------- Iteration      1(   1)  ---------------------------------------


    POTLOK:  cpu time    0.0253: real time    0.0955
    SETDIJ:  cpu time    0.0064: real time    0.0064
     EDDAV:  cpu time    8.4198: real time    8.4361
 BZINTS: Fermi energy: 18.339359; 32.000000 electrons
         Band energy: 117.691704;  BLOECHL correction: -0.254286
       DOS:  cpu time    0.4804: real time    0.4804
    --------------------------------------------
      LOOP:  cpu time    8.9320: real time    9.0185

 eigenvalue-minimisations  :  9088
 total energy-change (2. order) : 0.5725472E+02  (-0.1438285E+04)
 number of electron      32.0000000 magnetization 
 augmentation part       32.0000000 magnetization 

 Free energy of the ion-electron system (eV)
  ---------------------------------------------------
  alpha Z        PSCENC =       112.98517687
  Ewald energy   TEWEN  =     -1382.69262662
  -Hartree energ DENC   =       -72.52116062
  -exchange      EXHF   =         0.00000000
  -V(xc)+E(xc)   XCENC  =       113.97767692
  PAW double counting   =       302.65154477     -311.85538214
  entropy T*S    EENTRO =         0.00000000
  eigenvalues    EBANDS =       117.69170391
  atomic energy  EATOM  =      1177.01779097
  Solvation  Ediel_sol  =         0.00000000
  ---------------------------------------------------
  free energy    TOTEN  =        57.25472406 eV

  energy without entropy =       57.25472406  energy(sigma->0) =       57.25472406


--------------------------------------------------------------------------------------------------------




--------------------------------------- Iteration      1(   2)  ---------------------------------------


     EDDAV:  cpu time   10.5380: real time   10.6576
 BZINTS: Fermi energy:  9.407513; 32.000000 electrons
         Band energy: -10.098424;  BLOECHL correction:  0.000000
       DOS:  cpu time    0.2037: real time    0.2037
    --------------------------------------------
      LOOP:  cpu time   10.7417: real time   10.8613

 eigenvalue-minimisations  : 12544
 total energy-change (2. order) :-0.1277901E+03  (-0.1209886E+03)
 number of electron      32.0000000 magnetization 
 augmentation part       32.0000000 magnetization 

 Free energy of the ion-electron system (eV)
  ---------------------------------------------------
  alpha Z        PSCENC =       112.98517687
  Ewald energy   TEWEN  =     -1382.69262662
  -Hartree energ DENC   =       -72.52116062
  -exchange      EXHF   =         0.00000000
  -V(xc)+E(xc)   XCENC  =       113.97767692
  PAW double counting   =       302.65154477     -311.85538214
  entropy T*S    EENTRO =         0.00000000
  eigenvalues    EBANDS =       -10.09842367
  atomic energy  EATOM  =      1177.01779097
  Solvation  Ediel_sol  =         0.00000000
  ---------------------------------------------------
  free energy    TOTEN  =       -70.53540351 eV

  energy without entropy =      -70.53540351  energy(sigma->0) =      -70.53540351


--------------------------------------------------------------------------------------------------------




--------------------------------------- Iteration      1(   3)  ---------------------------------------


     EDDAV:  cpu time   10.3891: real time   10.3955
 BZINTS: Fermi energy:  8.359206; 32.000000 electrons
         Band energy: -14.326708;  BLOECHL correction:  0.000000
       DOS:  cpu time    0.1210: real time    0.1210
    --------------------------------------------
      LOOP:  cpu time   10.5101: real time   10.5165

 eigenvalue-minimisations  : 11904
 total energy-change (2. order) :-0.4228285E+01  (-0.4206603E+01)
 number of electron      32.0000000 magnetization 
 augmentation part       32.0000000 magnetization 

 Free energy of the ion-electron system (eV)
  ---------------------------------------------------
  alpha Z        PSCENC =       112.98517687
  Ewald energy   TEWEN  =     -1382.69262662
  -Hartree energ DENC   =       -72.52116062
  -exchange      EXHF   =         0.00000000
  -V(xc)+E(xc)   XCENC  =       113.97767692
  PAW double counting   =       302.65154477     -311.85538214
  entropy T*S    EENTRO =         0.00000000
  eigenvalues    EBANDS =       -14.32670849
  atomic energy  EATOM  =      1177.01779097
  Solvation  Ediel_sol  =         0.00000000
  ---------------------------------------------------
  free energy    TOTEN  =       -74.76368833 eV

  energy without entropy =      -74.76368833  energy(sigma->0) =      -74.76368833


--------------------------------------------------------------------------------------------------------




--------------------------------------- Iteration      1(   4)  ---------------------------------------


     EDDAV:  cpu time    9.9803: real time    9.9811
 BZINTS: Fermi energy:  8.317026; 32.000000 electrons
         Band energy: -14.369121;  BLOECHL correction:  0.000000
       DOS:  cpu time    0.1213: real time    0.1212
    --------------------------------------------
      LOOP:  cpu time   10.1016: real time   10.1024

 eigenvalue-minimisations  : 11328
 total energy-change (2. order) :-0.4241286E-01  (-0.4237997E-01)
 number of electron      32.0000000 magnetization 
 augmentation part       32.0000000 magnetization 

 Free energy of the ion-electron system (eV)
  ---------------------------------------------------
  alpha Z        PSCENC =       112.98517687
  Ewald energy   TEWEN  =     -1382.69262662
  -Hartree energ DENC   =       -72.52116062
  -exchange      EXHF   =         0.00000000
  -V(xc)+E(xc)   XCENC  =       113.97767692
  PAW double counting   =       302.65154477     -311.85538214
  entropy T*S    EENTRO =         0.00000000
  eigenvalues    EBANDS =       -14.36912134
  atomic energy  EATOM  =      1177.01779097
  Solvation  Ediel_sol  =         0.00000000
  ---------------------------------------------------
  free energy    TOTEN  =       -74.80610119 eV

  energy without entropy =      -74.80610119  energy(sigma->0) =      -74.80610119


--------------------------------------------------------------------------------------------------------




--------------------------------------- Iteration      1(   5)  ---------------------------------------


     EDDAV:  cpu time   10.2190: real time   10.2198
 BZINTS: Fermi energy:  8.301783; 32.000000 electrons
         Band energy: -14.370024;  BLOECHL correction:  0.000000
       DOS:  cpu time    0.1210: real time    0.1210
    CHARGE:  cpu time    0.2364: real time    0.2364
    MIXING:  cpu time    0.0015: real time    0.0015
    --------------------------------------------
      LOOP:  cpu time   10.5778: real time   10.5787

 eigenvalue-minimisations  : 11912
 total energy-change (2. order) :-0.9031532E-03  (-0.9027716E-03)
 number of electron      32.0000017 magnetization 
 augmentation part        0.7765112 magnetization 

 Broyden mixing:
  rms(total) = 0.93953E+00    rms(broyden)= 0.93933E+00
  rms(prec ) = 0.22160E+01
  weight for this iteration     100.00

 Free energy of the ion-electron system (eV)
  ---------------------------------------------------
  alpha Z        PSCENC =       112.98517687
  Ewald energy   TEWEN  =     -1382.69262662
  -Hartree energ DENC   =       -72.52116062
  -exchange      EXHF   =         0.00000000
  -V(xc)+E(xc)   XCENC  =       113.97767692
  PAW double counting   =       302.65154477     -311.85538214
  entropy T*S    EENTRO =         0.00000000
  eigenvalues    EBANDS =       -14.37002450
  atomic energy  EATOM  =      1177.01779097
  Solvation  Ediel_sol  =         0.00000000
  ---------------------------------------------------
  free energy    TOTEN  =       -74.80700434 eV

  energy without entropy =      -74.80700434  energy(sigma->0) =      -74.80700434


--------------------------------------------------------------------------------------------------------




--------------------------------------- Iteration      1(   6)  ---------------------------------------


    POTLOK:  cpu time    0.0198: real time    0.0203
    SETDIJ:  cpu time    0.0057: real time    0.0057
     EDDAV:  cpu time    9.1737: real time    9.1742
 BZINTS: Fermi energy:  8.912080; 32.000000 electrons
         Band energy:   1.723450;  BLOECHL correction:  0.000000
       DOS:  cpu time    0.1211: real time    0.1211
    CHARGE:  cpu time    0.2409: real time    0.2409
    MIXING:  cpu time    0.0018: real time    0.0018
    --------------------------------------------
      LOOP:  cpu time    9.5631: real time    9.5639

 eigenvalue-minimisations  : 10288
 total energy-change (2. order) : 0.1854318E+01  (-0.1243981E+00)
 number of electron      32.0000017 magnetization 
 augmentation part        0.7589031 magnetization 

 Broyden mixing:
  rms(total) = 0.51572E+00    rms(broyden)= 0.51570E+00
  rms(prec ) = 0.11982E+01
  weight for this iteration     100.00

 eigenvalues of (default mixing * dielectric matrix)
  average eigenvalue GAMMA=   2.1690
  2.1690

 Free energy of the ion-electron system (eV)
  ---------------------------------------------------
  alpha Z        PSCENC =       112.98517687
  Ewald energy   TEWEN  =     -1382.69262662
  -Hartree energ DENC   =       -87.63990575
  -exchange      EXHF   =         0.00000000
  -V(xc)+E(xc)   XCENC  =       115.38314979
  PAW double counting   =       391.46977090     -401.19949304
  entropy T*S    EENTRO =         0.00000000
  eigenvalues    EBANDS =         1.72345021
  atomic energy  EATOM  =      1177.01779097
  Solvation  Ediel_sol  =         0.00000000
  ---------------------------------------------------
  free energy    TOTEN  =       -72.95268667 eV

  energy without entropy =      -72.95268667  energy(sigma->0) =      -72.95268667


--------------------------------------------------------------------------------------------------------




--------------------------------------- Iteration      1(   7)  ---------------------------------------


    POTLOK:  cpu time    0.0214: real time    0.0218
    SETDIJ:  cpu time    0.0058: real time    0.0058
     EDDAV:  cpu time    9.7336: real time    9.7341
 BZINTS: Fermi energy:  9.661327; 32.000000 electrons
         Band energy:  20.290515;  BLOECHL correction:  0.000000
       DOS:  cpu time    0.1215: real time    0.1215
    CHARGE:  cpu time    0.2410: real time    0.2410
    MIXING:  cpu time    0.0018: real time    0.0018
    --------------------------------------------
      LOOP:  cpu time   10.1253: real time   10.1261

 eigenvalue-minimisations  : 10944
 total energy-change (2. order) : 0.6232374E+00  (-0.1427744E+00)
 number of electron      32.0000016 magnetization 
 augmentation part        0.7400029 magnetization 

 Broyden mixing:
  rms(total) = 0.70453E-01    rms(broyden)= 0.70113E-01
  rms(prec ) = 0.12349E+00
  weight for this iteration     100.00

 eigenvalues of (default mixing * dielectric matrix)
  average eigenvalue GAMMA=   2.2708
  2.0291  2.5124

 Free energy of the ion-electron system (eV)
  ---------------------------------------------------
  alpha Z        PSCENC =       112.98517687
  Ewald energy   TEWEN  =     -1382.69262662
  -Hartree energ DENC   =      -106.89834234
  -exchange      EXHF   =         0.00000000
  -V(xc)+E(xc)   XCENC  =       117.19587206
  PAW double counting   =       511.77375732     -522.00159293
  entropy T*S    EENTRO =         0.00000000
  eigenvalues    EBANDS =        20.29051539
  atomic energy  EATOM  =      1177.01779097
  Solvation  Ediel_sol  =         0.00000000
  ---------------------------------------------------
  free energy    TOTEN  =       -72.32944928 eV

  energy without entropy =      -72.32944928  energy(sigma->0) =      -72.32944928


--------------------------------------------------------------------------------------------------------




--------------------------------------- Iteration      1(   8)  ---------------------------------------


    POTLOK:  cpu time    0.0201: real time    0.0205
    SETDIJ:  cpu time    0.0057: real time    0.0057
     EDDAV:  cpu time    9.8700: real time    9.8705
 BZINTS: Fermi energy:  9.662599; 32.000000 electrons
         Band energy:  20.520213;  BLOECHL correction:  0.000000
       DOS:  cpu time    0.1218: real time    0.1218
    CHARGE:  cpu time    0.2371: real time    0.2371
    MIXING:  cpu time    0.0020: real time    0.0020
    --------------------------------------------
      LOOP:  cpu time   10.2568: real time   10.2576

 eigenvalue-minimisations  : 11336
 total energy-change (2. order) :-0.7725407E-02  (-0.3455998E-02)
 number of electron      32.0000017 magnetization 
 augmentation part        0.7405110 magnetization 

 Broyden mixing:
  rms(total) = 0.76221E-02    rms(broyden)= 0.75153E-02
  rms(prec ) = 0.12954E-01
  weight for this iteration     100.00

 eigenvalues of (default mixing * dielectric matrix)
  average eigenvalue GAMMA=   2.0413
  1.3801  2.6440  2.0996

 Free energy of the ion-electron system (eV)
  ---------------------------------------------------
  alpha Z        PSCENC =       112.98517687
  Ewald energy   TEWEN  =     -1382.69262662
  -Hartree energ DENC   =      -107.30901278
  -exchange      EXHF   =         0.00000000
  -V(xc)+E(xc)   XCENC  =       117.23948867
  PAW double counting   =       520.57192898     -530.67013364
[...]

 k-point   177 :       0.5000    0.4167    0.3333
  band No.  band energies     occupation 
      1      -7.3234      2.00000
      2      -6.6260      2.00000
      3      -6.2983      2.00000
      4      -6.2000      2.00000
      5      -3.2334      2.00000
      6      -3.1318      2.00000
      7      -2.1251      2.00000
      8      -1.7914      2.00000
      9       5.5555      2.00000
     10       5.6406      2.00000
     11       5.6977      2.00000
     12       6.2879      2.00000
     13       6.3192      2.00000
     14       6.5806      2.00000
     15       6.6056      2.00000
     16       6.9195      2.00000
     17      17.0125      0.00000
     18      17.4195      0.00000
     19      17.5472      0.00000
     20      17.5608      0.00000
     21      17.7780      0.00000
     22      17.9308      0.00000
     23      18.0505      0.00000
     24      18.0573      0.00000

 k-point   178 :      -0.4167    0.4167    0.3333
  band No.  band energies     occupation 
      1      -7.8795      2.00000
      2      -6.5814      2.00000
      3      -6.0366      2.00000
      4      -5.8458      2.00000
      5      -3.3155      2.00000
      6      -2.7857      2.00000
      7      -2.4688      2.00000
      8      -1.5085      2.00000
      9       5.1937      2.00000
     10       5.3578      2.00000
     11       5.7734      2.00000
     12       5.7856      2.00000
     13       6.4153      2.00000
     14       6.5818      2.00000
     15       6.7712      2.00000
     16       7.2242      2.00000
     17      16.7897      0.00000
     18      17.3868      0.00000
     19      17.4067      0.00000
     20      17.4126      0.00000
     21      17.7660      0.00000
     22      17.8259      0.00000
     23      18.2919      0.00000
     24      18.7948      0.00000

 k-point   179 :      -0.3333    0.4167    0.3333
  band No.  band energies     occupation 
      1      -8.3444      2.00000
      2      -7.0011      2.00000
      3      -6.0353      2.00000
      4      -5.0344      2.00000
      5      -3.0206      2.00000
      6      -2.9743      2.00000
      7      -2.0823      2.00000
      8      -0.7662      2.00000
      9       4.3798      2.00000
     10       5.1040      2.00000
     11       5.3562      2.00000
     12       5.8399      2.00000
     13       5.9112      2.00000
     14       6.2618      2.00000
     15       6.9597      2.00000
     16       7.3714      2.00000
     17      16.4544      0.00000
     18      17.0270      0.00000
     19      17.1017      0.00000
     20      17.3197      0.00000
     21      17.8868      0.00000
     22      18.3849      0.00000
     23      19.1374      0.00000
     24      19.3766      0.00000

 k-point   180 :       0.5000    0.5000    0.3333
  band No.  band energies     occupation 
      1      -6.7944      2.00000
      2      -6.7944      2.00000
      3      -6.6922      2.00000
      4      -5.9571      2.00000
      5      -2.8875      2.00000
      6      -2.7805      2.00000
      7      -2.7805      2.00000
      8      -2.5596      2.00000
      9       5.3889      2.00000
     10       6.0606      2.00000
     11       6.0606      2.00000
     12       6.0983      2.00000
     13       6.2177      2.00000
     14       6.8812      2.00000
     15       6.8812      2.00000
     16       6.9484      2.00000
     17      17.0559      0.00000
     18      17.5555      0.00000
     19      17.5555      0.00000
     20      17.6279      0.00000
     21      17.7586      0.00000
     22      17.7993      0.00000
     23      17.8718      0.00000
     24      18.2983      0.00000

 k-point   181 :      -0.4167    0.5000    0.3333
  band No.  band energies     occupation 
      1      -7.2856      2.00000
      2      -7.2262      2.00000
      3      -6.2844      2.00000
      4      -5.2524      2.00000
      5      -3.1945      2.00000
      6      -3.1596      2.00000
      7      -2.2773      2.00000
      8      -2.2142      2.00000
      9       5.0016      2.00000
     10       5.7658      2.00000
     11       5.8690      2.00000
     12       6.3907      2.00000
     13       6.4414      2.00000
     14       6.4456      2.00000
     15       6.9142      2.00000
     16       7.0612      2.00000
     17      17.0772      0.00000
     18      17.3510      0.00000
     19      17.3652      0.00000
     20      17.4979      0.00000
     21      17.5626      0.00000
     22      17.9351      0.00000
     23      18.4010      0.00000
     24      18.6744      0.00000

 k-point   182 :      -0.3333    0.5000    0.3333
  band No.  band energies     occupation 
      1      -7.7131      2.00000
      2      -7.7131      2.00000
      3      -5.9389      2.00000
      4      -4.7557      2.00000
      5      -3.3493      2.00000
      6      -3.2231      2.00000
      7      -1.4942      2.00000
      8      -1.4942      2.00000
      9       4.4220      2.00000
     10       5.2809      2.00000
     11       5.4389      2.00000
     12       5.8598      2.00000
     13       6.5411      2.00000
     14       6.5411      2.00000
     15       6.8435      2.00000
     16       6.8435      2.00000
     17      17.0966      0.00000
     18      17.0966      0.00000
     19      17.1615      0.00000
     20      17.4770      0.00000
     21      17.6057      0.00000
     22      18.4335      0.00000
     23      18.4335      0.00000
     24      19.6192      0.00000

 k-point   183 :      -0.4167   -0.4167    0.3333
  band No.  band energies     occupation 
      1      -7.8273      2.00000
      2      -6.6428      2.00000
      3      -6.6428      2.00000
      4      -4.8608      2.00000
      5      -3.4481      2.00000
      6      -2.7454      2.00000
      7      -2.7454      2.00000
      8      -1.5890      2.00000
      9       4.7491      2.00000
     10       5.6967      2.00000
     11       6.0413      2.00000
     12       6.0413      2.00000
     13       6.2772      2.00000
     14       6.2772      2.00000
     15       6.7749      2.00000
     16       7.3646      2.00000
     17      16.6105      0.00000
     18      17.2210      0.00000
     19      17.3523      0.00000
     20      17.3523      0.00000
     21      17.7870      0.00000
     22      18.4148      0.00000
     23      18.6653      0.00000
     24      19.1495      0.00000

 k-point   184 :       0.4167    0.4167    0.4167
  band No.  band energies     occupation 
      1      -6.7379      2.00000
      2      -6.4054      2.00000
      3      -6.4054      2.00000
      4      -6.4054      2.00000
      5      -3.2412      2.00000
      6      -3.2412      2.00000
      7      -3.2412      2.00000
      8      -1.8836      2.00000
      9       6.2007      2.00000
     10       6.2007      2.00000
     11       6.2007      2.00000
     12       6.3483      2.00000
     13       6.3483      2.00000
     14       6.6285      2.00000
     15       6.6285      2.00000
     16       6.6285      2.00000
     17      16.7577      0.00000
     18      17.3936      0.00000
     19      17.3936      0.00000
     20      17.3936      0.00000
     21      17.5783      0.00000
     22      17.5783      0.00000
     23      18.1062      0.00000
     24      18.1062      0.00000

 k-point   185 :       0.5000    0.4167    0.4167
  band No.  band energies     occupation 
      1      -6.9041      2.00000
      2      -6.2498      2.00000
      3      -6.2498      2.00000
      4      -6.0660      2.00000
      5      -3.5335      2.00000
      6      -3.5335      2.00000
      7      -2.8876      2.00000
      8      -2.6589      2.00000
      9       6.1118      2.00000
     10       6.1863      2.00000
     11       6.3036      2.00000
     12       6.3036      2.00000
     13       6.7569      2.00000
     14       6.8118      2.00000
     15       6.8118      2.00000
     16       6.9263      2.00000
     17      16.8786      0.00000
     18      17.4433      0.00000
     19      17.6245      0.00000
     20      17.6331      0.00000
     21      17.6696      0.00000
     22      17.6736      0.00000
     23      17.7990      0.00000
     24      17.8017      0.00000

 k-point   186 :      -0.4167    0.4167    0.4167
  band No.  band energies     occupation 
      1      -7.3978      2.00000
      2      -6.3587      2.00000
      3      -6.3587      2.00000
      4      -5.3575      2.00000
      5      -3.3378      2.00000
      6      -3.3378      2.00000
      7      -3.2623      2.00000
      8      -2.3166      2.00000
      9       5.6225      2.00000
     10       5.8905      2.00000
     11       6.2825      2.00000
     12       6.2825      2.00000
     13       6.6512      2.00000
     14       6.6512      2.00000
     15       6.9552      2.00000
     16       7.1802      2.00000
     17      16.8634      0.00000
     18      17.3304      0.00000
     19      17.3908      0.00000
     20      17.3908      0.00000
     21      17.7010      0.00000
     22      17.7332      0.00000
     23      18.1749      0.00000
     24      18.4029      0.00000

 k-point   187 :       0.5000    0.5000    0.4167
  band No.  band energies     occupation 
      1      -6.4999      2.00000
      2      -6.4999      2.00000
      3      -6.4671      2.00000
      4      -5.4660      2.00000
      5      -3.4461      2.00000
      6      -3.4121      2.00000
      7      -3.4121      2.00000
      8      -3.3621      2.00000
      9       5.9938      2.00000
     10       6.2135      2.00000
     11       6.6434      2.00000
     12       6.6953      2.00000
     13       6.6953      2.00000
     14       6.9586      2.00000
     15       6.9586      2.00000
     16       7.0433      2.00000
     17      16.9016      0.00000
     18      17.4384      0.00000
     19      17.4384      0.00000
     20      17.4737      0.00000
     21      17.5692      0.00000
     22      17.6390      0.00000
     23      17.7487      0.00000
     24      17.9183      0.00000

 k-point   188 :      -0.4167    0.5000    0.4167
  band No.  band energies     occupation 
      1      -6.8633      2.00000
      2      -6.8633      2.00000
      3      -6.2585      2.00000
      4      -5.0717      2.00000
      5      -3.6513      2.00000
      6      -3.5487      2.00000
      7      -2.9545      2.00000
      8      -2.9545      2.00000
      9       5.6881      2.00000
     10       6.0192      2.00000
     11       6.5497      2.00000
     12       6.5781      2.00000
     13       6.7557      2.00000
     14       6.7557      2.00000
     15       7.0134      2.00000
     16       7.0134      2.00000
     17      17.0771      0.00000
     18      17.3350      0.00000
     19      17.3350      0.00000
     20      17.4056      0.00000
     21      17.4178      0.00000
     22      17.9541      0.00000
     23      17.9541      0.00000
     24      18.0416      0.00000

 k-point   189 :       0.5000    0.5000    0.5000
  band No.  band energies     occupation 
      1      -6.3655      2.00000
      2      -6.3655      2.00000
      3      -6.3655      2.00000
      4      -5.1777      2.00000
      5      -3.7552      2.00000
      6      -3.6595      2.00000
      7      -3.6595      2.00000
      8      -3.6595      2.00000
      9       6.2136      2.00000
     10       6.2136      2.00000
     11       6.8343      2.00000
     12       6.8343      2.00000
     13       6.8343      2.00000
     14       7.0774      2.00000
     15       7.0774      2.00000
     16       7.0774      2.00000
     17      16.7787      0.00000
     18      17.3726      0.00000
     19      17.3726      0.00000
     20      17.3726      0.00000
     21      17.5572      0.00000
     22      17.5576      0.00000
     23      17.7793      0.00000
     24      17.7793      0.00000


--------------------------------------------------------------------------------------------------------


 soft charge-density along one line, spin component           1
         0         1         2         3         4         5         6         7         8         9
 total charge-density along one line
 
 pseudopotential strength for first ion, spin component:           1
  9.453  -0.004  -0.000  -0.000  -0.000   0.000   0.000   0.000
 -0.004  -0.002  -0.000  -0.000  -0.000   0.000   0.000   0.000
 -0.000  -0.000  -3.673   0.000   0.000  -0.008  -0.000  -0.000
 -0.000  -0.000   0.000  -3.673   0.000  -0.000  -0.009  -0.000
 -0.000  -0.000   0.000   0.000  -3.673  -0.000  -0.000  -0.008
  0.000   0.000  -0.008  -0.000  -0.000  -0.757   0.000   0.000
  0.000   0.000  -0.000  -0.009  -0.000   0.000  -0.757   0.000
  0.000   0.000  -0.000  -0.000  -0.008   0.000   0.000  -0.757
 total augmentation occupancy for first ion, spin component:           1
  1.424  -1.014  -0.014  -0.014  -0.013  -0.007  -0.007  -0.007
 -1.014   1.005   0.034   0.036   0.033   0.011   0.011   0.011
 -0.014   0.034   1.091   0.030   0.027   0.182   0.004   0.004
 -0.014   0.036   0.030   1.094   0.029   0.004   0.182   0.004
 -0.013   0.033   0.027   0.029   1.089   0.004   0.004   0.182
 -0.007   0.011   0.182   0.004   0.004   0.036   0.001   0.001
 -0.007   0.011   0.004   0.182   0.004   0.001   0.036   0.001
 -0.007   0.011   0.004   0.004   0.182   0.001   0.001   0.036


------------------------ aborting loop because EDIFF is reached ----------------------------------------


    CHARGE:  cpu time    0.2345: real time    0.2345
    FORLOC:  cpu time    0.0020: real time    0.0020
    FORNL :  cpu time    0.4211: real time    0.4212
    STRESS:  cpu time    0.9944: real time    0.9947
    FORHAR:  cpu time    0.0060: real time    0.0060
    MIXING:  cpu time    0.0021: real time    0.0021
    OFIELD:  cpu time    0.0001: real time    0.0001

  FORCE on cell =-STRESS in cart. coord.  units (eV):
  Direction    XX          YY          ZZ          XY          YZ          ZX
  --------------------------------------------------------------------------------------
  Alpha Z   112.98518   112.98518   112.98518
  Ewald    -462.57051  -460.96798  -459.15644    20.01545    21.71963    20.86754
  Hartree    35.37928    35.75729    36.18461     4.72134     5.12333     4.92234
  E(xc)    -119.28819  -119.28619  -119.28393     0.02495     0.02707     0.02601
  Local     -46.50235   -48.30127   -50.33482   -22.46832   -24.38135   -23.42484
  n-local   -27.47217   -27.93763   -27.59830    -0.95798    -0.45578    -1.35645
  augment    -2.78718    -2.78770    -2.78828    -0.00645    -0.00700    -0.00672
  Kinetic   501.81146   508.30319   514.74853     5.73217     1.34589     8.38890
  Fock        0.00000     0.00000     0.00000     0.00000     0.00000     0.00000
  -------------------------------------------------------------------------------------
  Total      -2.51317    -1.99680    -1.41307     6.44950     6.99863     6.72407
  in kB     -87.24127   -69.31613   -49.05292   223.88565   242.94799   233.41690
  external pressure =      -68.54 kB  Pullay stress =        0.00 kB


 VOLUME and BASIS-vectors are now :
 -----------------------------------------------------------------------------
  energy-cutoff  :      400.00
  volume of cell :       46.15
      direct lattice vectors                 reciprocal lattice vectors
     3.589999359  0.000000000  0.000000000     0.278551582  0.011150956  0.011625674
    -0.143599573  3.587126323  0.000000000     0.000000000  0.278774682  0.011625675
    -0.143599573 -0.149463178  3.584011188     0.000000000  0.000000000  0.279016986

  length of vectors
     3.589999359  3.589999456  3.589999481     0.279016996  0.279016988  0.279016986


 FORCES acting on ions
    electron-ion (+dipol)            ewald-force                    non-local-force                 convergence-correction
 -----------------------------------------------------------------------------------------------
   -.687E+01 -.715E+01 -.746E+01   0.712E+01 0.741E+01 0.772E+01   -.279E-01 -.290E-01 -.303E-01   -.264E-04 -.275E-04 -.287E-04
   0.687E+01 0.715E+01 0.746E+01   -.712E+01 -.741E+01 -.772E+01   0.279E-01 0.290E-01 0.303E-01   0.264E-04 0.275E-04 0.287E-04
   -.687E+01 -.715E+01 -.746E+01   0.712E+01 0.741E+01 0.772E+01   -.279E-01 -.290E-01 -.303E-01   -.264E-04 -.275E-04 -.287E-04
   0.687E+01 0.715E+01 0.746E+01   -.712E+01 -.741E+01 -.772E+01   0.279E-01 0.290E-01 0.303E-01   0.264E-04 0.275E-04 0.287E-04
   -.687E+01 -.715E+01 -.746E+01   0.712E+01 0.741E+01 0.772E+01   -.279E-01 -.290E-01 -.303E-01   -.264E-04 -.275E-04 -.287E-04
   0.687E+01 0.715E+01 0.746E+01   -.712E+01 -.741E+01 -.772E+01   0.279E-01 0.290E-01 0.303E-01   0.264E-04 0.275E-04 0.287E-04
   -.687E+01 -.715E+01 -.746E+01   0.712E+01 0.741E+01 0.772E+01   -.279E-01 -.290E-01 -.303E-01   -.264E-04 -.275E-04 -.287E-04
   0.687E+01 0.715E+01 0.746E+01   -.712E+01 -.741E+01 -.772E+01   0.279E-01 0.290E-01 0.303E-01   0.264E-04 0.275E-04 0.287E-04
 -----------------------------------------------------------------------------------------------
   0.102E-12 0.127E-12 0.959E-13   -.444E-14 -.355E-14 -.888E-15   0.208E-16 -.139E-16 0.694E-17   0.324E-13 -.249E-13 -.265E-13
 
 
 POSITION                                       TOTAL-FORCE (eV/Angst)
 -----------------------------------------------------------------------------------
      0.75390      2.65298      0.89600         0.216633      0.225479      0.235078
     -0.07180     -0.07473      1.79201        -0.216633     -0.225479     -0.235078
      0.75390      0.78468      2.68801         0.216633      0.225479      0.235078
     -0.07180      1.79356      0.00000        -0.216633     -0.225479     -0.235078
      2.47710      2.57825      2.68801         0.216633      0.225479      0.235078
      1.79500      0.00000      0.00000        -0.216633     -0.225479     -0.235078
      2.62070      0.85942      0.89600         0.216633      0.225479      0.235078
      1.65140      1.71883      1.79201        -0.216633     -0.225479     -0.235078
 -----------------------------------------------------------------------------------
    total drift:                                0.000000      0.000000      0.000000


--------------------------------------------------------------------------------------------------------



  FREE ENERGIE OF THE ION-ELECTRON SYSTEM (eV)
  ---------------------------------------------------
  free  energy   TOTEN  =       -72.33748082 eV

  energy  without entropy=      -72.33748082  energy(sigma->0) =      -72.33748082
 


--------------------------------------------------------------------------------------------------------


    POTLOK:  cpu time    0.0269: real time    0.0269


--------------------------------------------------------------------------------------------------------


     LOOP+:  cpu time  120.0517: real time  120.2787
    4ORBIT:  cpu time    0.0000: real time    0.0000
 BZINTS: Fermi energy:  9.584535; 32.000000 electrons
         Band energy:  20.523075;  BLOECHL correction:  0.000000

 total amount of memory used by VASP MPI-rank0    37560. kBytes
=======================================================================

   base      :      30000. kBytes
   nonl-proj :       2591. kBytes
   fftplans  :        346. kBytes
   grid      :        481. kBytes
   one-center:          6. kBytes
   wavefun   :       4136. kBytes
 
  
  
 General timing and accounting informations for this job:
 ========================================================
  
                  Total CPU time used (sec):      123.564
                            User time (sec):      119.239
                          System time (sec):        4.325
                         Elapsed time (sec):      124.093
  
                   Maximum memory used (kb):      193692.
                   Average memory used (kb):           0.
  
                          Minor page faults:        36894
                          Major page faults:           36
                 Voluntary context switches:          785
