   8   8   0   0
  0.5899202E+01  0.3625721E-09  0.3625721E-09  0.3589999E-09  0.2000000E-16
  1.000000000000000E-004
  CAR 
 unknown system                          
     22.34689606    -13.38644425  301      9.37122686      1.00000000
    -13.386  0.0000E+00  0.0000E+00
    -13.267  0.0000E+00  0.0000E+00
    -13.148  0.0000E+00  0.0000E+00
    -13.029  0.0000E+00  0.0000E+00
    -12.910  0.0000E+00  0.0000E+00
    -12.791  0.0000E+00  0.0000E+00
    -12.672  0.0000E+00  0.0000E+00
    -12.553  0.0000E+00  0.0000E+00
    -12.434  0.0000E+00  0.0000E+00
    -12.314  0.0000E+00  0.0000E+00
    -12.195  0.0000E+00  0.0000E+00
    -12.076  0.0000E+00  0.0000E+00
    -11.957  0.0000E+00  0.0000E+00
    -11.838  0.0000E+00  0.0000E+00
    -11.719  0.3573E-01  0.5158E-03
    -11.600  0.1576E+00  0.1496E-01
    -11.481  0.2470E+00  0.3907E-01
    -11.362  0.2795E+00  0.7009E-01
    -11.242  0.3281E+00  0.1063E+00
    -11.123  0.3691E+00  0.1483E+00
    -11.004  0.3991E+00  0.1940E+00
    -10.885  0.4311E+00  0.2433E+00
    -10.766  0.4704E+00  0.2970E+00
    -10.647  0.4939E+00  0.3546E+00
    -10.528  0.5179E+00  0.4148E+00
    -10.409  0.5446E+00  0.4781E+00
    -10.290  0.5738E+00  0.5447E+00
    -10.170  0.6014E+00  0.6147E+00
    -10.051  0.6211E+00  0.6875E+00
     -9.932  0.6418E+00  0.7627E+00
     -9.813  0.6644E+00  0.8405E+00
     -9.694  0.6878E+00  0.9210E+00
     -9.575  0.7130E+00  0.1004E+01
     -9.456  0.7347E+00  0.1091E+01
     -9.337  0.7530E+00  0.1179E+01
     -9.218  0.7715E+00  0.1270E+01
     -9.098  0.7923E+00  0.1363E+01
     -8.979  0.8136E+00  0.1459E+01
     -8.860  0.8360E+00  0.1557E+01
     -8.741  0.8588E+00  0.1658E+01
     -8.622  0.8767E+00  0.1761E+01
     -8.503  0.8951E+00  0.1867E+01
     -8.384  0.9148E+00  0.1975E+01
     -8.265  0.9351E+00  0.2085E+01
     -8.146  0.9558E+00  0.2197E+01
     -8.026  0.9991E+00  0.2313E+01
     -7.907  0.1048E+01  0.2436E+01
     -7.788  0.1090E+01  0.2562E+01
     -7.669  0.1122E+01  0.2695E+01
     -7.550  0.1117E+01  0.2829E+01
     -7.431  0.1086E+01  0.2960E+01
     -7.312  0.1077E+01  0.3088E+01
     -7.193  0.1101E+01  0.3218E+01
     -7.074  0.1111E+01  0.3350E+01
     -6.954  0.1116E+01  0.3482E+01
     -6.835  0.1159E+01  0.3617E+01
     -6.716  0.1230E+01  0.3759E+01
     -6.597  0.1294E+01  0.3909E+01
     -6.478  0.1396E+01  0.4069E+01
     -6.359  0.1439E+01  0.4238E+01
     -6.240  0.1612E+01  0.4420E+01
     -6.121  0.1711E+01  0.4617E+01
     -6.002  0.1623E+01  0.4810E+01
     -5.882  0.1772E+01  0.5001E+01
     -5.763  0.1445E+01  0.5180E+01
     -5.644  0.1462E+01  0.5352E+01
     -5.525  0.1427E+01  0.5527E+01
     -5.406  0.1429E+01  0.5697E+01
     -5.287  0.1389E+01  0.5865E+01
     -5.168  0.1263E+01  0.6023E+01
     -5.049  0.1253E+01  0.6172E+01
     -4.930  0.1219E+01  0.6320E+01
     -4.810  0.1239E+01  0.6465E+01
     -4.691  0.1139E+01  0.6608E+01
     -4.572  0.1135E+01  0.6741E+01
     -4.453  0.1104E+01  0.6871E+01
     -4.334  0.1033E+01  0.7002E+01
     -4.215  0.1007E+01  0.7124E+01
     -4.096  0.1002E+01  0.7243E+01
     -3.977  0.9892E+00  0.7362E+01
     -3.858  0.9199E+00  0.7478E+01
     -3.738  0.8296E+00  0.7582E+01
     -3.619  0.8494E+00  0.7678E+01
     -3.500  0.8845E+00  0.7787E+01
     -3.381  0.9524E+00  0.7894E+01
     -3.262  0.9483E+00  0.8011E+01
     -3.143  0.8767E+00  0.8120E+01
     -3.024  0.9063E+00  0.8225E+01
     -2.905  0.9532E+00  0.8338E+01
     -2.786  0.9768E+00  0.8454E+01
     -2.666  0.1082E+01  0.8576E+01
     -2.547  0.1255E+01  0.8713E+01
     -2.428  0.1503E+01  0.8879E+01
     -2.309  0.1743E+01  0.9072E+01
     -2.190  0.2051E+01  0.9297E+01
     -2.071  0.2655E+01  0.9574E+01
     -1.952  0.3344E+01  0.9937E+01
     -1.833  0.2602E+01  0.1031E+02
     -1.714  0.2045E+01  0.1058E+02
     -1.594  0.1827E+01  0.1081E+02
     -1.475  0.1689E+01  0.1102E+02
     -1.356  0.1584E+01  0.1122E+02
     -1.237  0.1500E+01  0.1140E+02
     -1.118  0.1444E+01  0.1157E+02
     -0.999  0.1414E+01  0.1174E+02
     -0.880  0.1376E+01  0.1191E+02
     -0.761  0.1344E+01  0.1207E+02
     -0.642  0.1242E+01  0.1223E+02
     -0.522  0.1165E+01  0.1237E+02
     -0.403  0.1119E+01  0.1251E+02
     -0.284  0.1100E+01  0.1264E+02
     -0.165  0.1085E+01  0.1277E+02
     -0.046  0.1071E+01  0.1290E+02
      0.073  0.1013E+01  0.1302E+02
      0.192  0.1054E+01  0.1314E+02
      0.311  0.1265E+01  0.1328E+02
      0.430  0.1507E+01  0.1345E+02
      0.550  0.1738E+01  0.1364E+02
      0.669  0.1923E+01  0.1386E+02
      0.788  0.2356E+01  0.1412E+02
      0.907  0.2263E+01  0.1440E+02
      1.026  0.2247E+01  0.1466E+02
      1.145  0.2387E+01  0.1494E+02
      1.264  0.2270E+01  0.1522E+02
      1.383  0.1812E+01  0.1546E+02
      1.502  0.1450E+01  0.1566E+02
      1.622  0.1585E+01  0.1584E+02
      1.741  0.1925E+01  0.1604E+02
      1.860  0.2162E+01  0.1629E+02
      1.979  0.2325E+01  0.1656E+02
      2.098  0.2436E+01  0.1684E+02
      2.217  0.2448E+01  0.1714E+02
      2.336  0.2370E+01  0.1742E+02
      2.455  0.2364E+01  0.1770E+02
      2.574  0.2576E+01  0.1799E+02
      2.694  0.2942E+01  0.1832E+02
      2.813  0.3434E+01  0.1870E+02
      2.932  0.2783E+01  0.1907E+02
      3.051  0.2385E+01  0.1938E+02
      3.170  0.2672E+01  0.1968E+02
      3.289  0.2915E+01  0.2001E+02
      3.408  0.2917E+01  0.2035E+02
      3.527  0.3559E+01  0.2073E+02
      3.646  0.4219E+01  0.2119E+02
      3.766  0.3548E+01  0.2167E+02
      3.885  0.3089E+01  0.2207E+02
      4.004  0.2668E+01  0.2241E+02
      4.123  0.2650E+01  0.2272E+02
      4.242  0.3006E+01  0.2306E+02
      4.361  0.2884E+01  0.2342E+02
      4.480  0.3001E+01  0.2376E+02
      4.599  0.3096E+01  0.2413E+02
      4.718  0.3017E+01  0.2449E+02
      4.838  0.3083E+01  0.2485E+02
      4.957  0.3162E+01  0.2522E+02
      5.076  0.3139E+01  0.2560E+02
      5.195  0.2738E+01  0.2596E+02
      5.314  0.2499E+01  0.2626E+02
      5.433  0.2460E+01  0.2656E+02
      5.552  0.2474E+01  0.2685E+02
      5.671  0.2820E+01  0.2716E+02
      5.790  0.2987E+01  0.2750E+02
      5.910  0.2875E+01  0.2785E+02
      6.029  0.2768E+01  0.2818E+02
      6.148  0.2631E+01  0.2851E+02
      6.267  0.2545E+01  0.2881E+02
      6.386  0.2537E+01  0.2911E+02
      6.505  0.2796E+01  0.2944E+02
      6.624  0.2043E+01  0.2974E+02
      6.743  0.1780E+01  0.2997E+02
      6.862  0.1635E+01  0.3017E+02
      6.982  0.1496E+01  0.3036E+02
      7.101  0.1397E+01  0.3053E+02
      7.220  0.1310E+01  0.3069E+02
      7.339  0.1223E+01  0.3084E+02
      7.458  0.1110E+01  0.3098E+02
      7.577  0.1009E+01  0.3111E+02
      7.696  0.9324E+00  0.3122E+02
      7.815  0.8803E+00  0.3133E+02
      7.934  0.8219E+00  0.3143E+02
      8.054  0.7514E+00  0.3152E+02
      8.173  0.6638E+00  0.3161E+02
      8.292  0.6030E+00  0.3168E+02
      8.411  0.5564E+00  0.3175E+02
      8.530  0.4886E+00  0.3182E+02
      8.649  0.3811E+00  0.3187E+02
      8.768  0.3732E+00  0.3191E+02
      8.887  0.3176E+00  0.3195E+02
      9.006  0.1558E+00  0.3198E+02
      9.126  0.1055E+00  0.3199E+02
      9.245  0.8335E-02  0.3200E+02
      9.364  0.0000E+00  0.3200E+02
      9.483  0.0000E+00  0.3200E+02
      9.602  0.0000E+00  0.3200E+02
      9.721  0.0000E+00  0.3200E+02
      9.840  0.0000E+00  0.3200E+02
      9.959  0.0000E+00  0.3200E+02
     10.078  0.0000E+00  0.3200E+02
     10.198  0.0000E+00  0.3200E+02
     10.317  0.0000E+00  0.3200E+02
     10.436  0.0000E+00  0.3200E+02
     10.555  0.0000E+00  0.3200E+02
     10.674  0.0000E+00  0.3200E+02
     10.793  0.0000E+00  0.3200E+02
     10.912  0.0000E+00  0.3200E+02
     11.031  0.0000E+00  0.3200E+02
     11.150  0.0000E+00  0.3200E+02
     11.270  0.0000E+00  0.3200E+02
     11.389  0.0000E+00  0.3200E+02
     11.508  0.0000E+00  0.3200E+02
     11.627  0.0000E+00  0.3200E+02
     11.746  0.0000E+00  0.3200E+02
     11.865  0.0000E+00  0.3200E+02
     11.984  0.0000E+00  0.3200E+02
     12.103  0.0000E+00  0.3200E+02
     12.222  0.0000E+00  0.3200E+02
     12.342  0.0000E+00  0.3200E+02
     12.461  0.0000E+00  0.3200E+02
     12.580  0.0000E+00  0.3200E+02
     12.699  0.0000E+00  0.3200E+02
     12.818  0.0000E+00  0.3200E+02
     12.937  0.0000E+00  0.3200E+02
     13.056  0.0000E+00  0.3200E+02
     13.175  0.1761E-01  0.3200E+02
     13.294  0.7187E-01  0.3201E+02
     13.414  0.1890E+00  0.3202E+02
     13.533  0.3502E+00  0.3205E+02
     13.652  0.6286E+00  0.3211E+02
     13.771  0.6053E+00  0.3218E+02
     13.890  0.6387E+00  0.3225E+02
     14.009  0.8562E+00  0.3235E+02
     14.128  0.9800E+00  0.3245E+02
     14.247  0.1160E+01  0.3258E+02
     14.366  0.1540E+01  0.3273E+02
     14.486  0.1505E+01  0.3292E+02
     14.605  0.1532E+01  0.3310E+02
     14.724  0.1594E+01  0.3329E+02
     14.843  0.1628E+01  0.3348E+02
     14.962  0.1751E+01  0.3368E+02
     15.081  0.1880E+01  0.3389E+02
     15.200  0.2031E+01  0.3413E+02
     15.319  0.2268E+01  0.3438E+02
     15.438  0.2275E+01  0.3466E+02
     15.558  0.2161E+01  0.3492E+02
     15.677  0.2165E+01  0.3518E+02
     15.796  0.2200E+01  0.3544E+02
     15.915  0.2311E+01  0.3570E+02
     16.034  0.2449E+01  0.3599E+02
     16.153  0.2628E+01  0.3629E+02
     16.272  0.2784E+01  0.3661E+02
     16.391  0.2885E+01  0.3695E+02
     16.510  0.2958E+01  0.3730E+02
     16.630  0.3131E+01  0.3766E+02
     16.749  0.3374E+01  0.3805E+02
     16.868  0.3592E+01  0.3846E+02
     16.987  0.4069E+01  0.3892E+02
     17.106  0.4430E+01  0.3942E+02
     17.225  0.4793E+01  0.3997E+02
     17.344  0.5038E+01  0.4059E+02
     17.463  0.3424E+01  0.4105E+02
     17.582  0.3695E+01  0.4149E+02
     17.702  0.4251E+01  0.4197E+02
     17.821  0.3774E+01  0.4244E+02
     17.940  0.3828E+01  0.4289E+02
     18.059  0.3770E+01  0.4335E+02
     18.178  0.3536E+01  0.4378E+02
     18.297  0.2968E+01  0.4417E+02
     18.416  0.2761E+01  0.4451E+02
     18.535  0.2618E+01  0.4483E+02
     18.654  0.2595E+01  0.4514E+02
     18.774  0.2831E+01  0.4546E+02
     18.893  0.2902E+01  0.4580E+02
     19.012  0.2874E+01  0.4615E+02
     19.131  0.2810E+01  0.4649E+02
     19.250  0.2691E+01  0.4681E+02
     19.369  0.2497E+01  0.4712E+02
     19.488  0.2044E+01  0.4739E+02
     19.607  0.1529E+01  0.4761E+02
     19.726  0.1013E+01  0.4776E+02
     19.846  0.5786E+00  0.4786E+02
     19.965  0.3543E+00  0.4791E+02
     20.084  0.2361E+00  0.4795E+02
     20.203  0.1655E+00  0.4797E+02
     20.322  0.1067E+00  0.4798E+02
     20.441  0.5786E-01  0.4799E+02
     20.560  0.1754E-01  0.4800E+02
     20.679  0.1065E-02  0.4800E+02
     20.798  0.0000E+00  0.4800E+02
     20.918  0.0000E+00  0.4800E+02
     21.037  0.0000E+00  0.4800E+02
     21.156  0.0000E+00  0.4800E+02
     21.275  0.0000E+00  0.4800E+02
     21.394  0.0000E+00  0.4800E+02
     21.513  0.0000E+00  0.4800E+02
     21.632  0.0000E+00  0.4800E+02
     21.751  0.0000E+00  0.4800E+02
     21.870  0.0000E+00  0.4800E+02
     21.990  0.0000E+00  0.4800E+02
     22.109  0.0000E+00  0.4800E+02
     22.228  0.0000E+00  0.4800E+02
     22.347  0.0000E+00  0.4800E+02
