       N       E                     dE             d eps       ncg     rms          rms(c)
DAV:   1     0.571080012783E+02    0.57108E+02   -0.14279E+04  9408   0.105E+03
DAV:   2    -0.706414663601E+02   -0.12775E+03   -0.12111E+03 13064   0.220E+02
DAV:   3    -0.748634867481E+02   -0.42220E+01   -0.42031E+01 12208   0.373E+01
DAV:   4    -0.749072324525E+02   -0.43746E-01   -0.43706E-01 11968   0.416E+00
DAV:   5    -0.749081250682E+02   -0.89262E-03   -0.89218E-03 12072   0.545E-01    0.906E+00
DAV:   6    -0.732299961794E+02    0.16781E+01   -0.11200E+00 10824   0.594E+00    0.500E+00
DAV:   7    -0.726624527263E+02    0.56754E+00   -0.12784E+00 11064   0.653E+00    0.685E-01
DAV:   8    -0.726694458954E+02   -0.69932E-02   -0.25673E-02 11976   0.924E-01    0.778E-02
DAV:   9    -0.726696666538E+02   -0.22076E-03   -0.42933E-04 11472   0.138E-01    0.278E-02
DAV:  10    -0.726697233717E+02   -0.56718E-04   -0.50960E-05 11896   0.535E-02    0.266E-03
DAV:  11    -0.726697239128E+02   -0.54109E-06   -0.11223E-06  8696   0.730E-03
   1 F= -.72669724E+02 E0= -.72669724E+02  d E =0.000000E+00
