   8   8   0   0
  0.6014872E+01  0.3661095E-09  0.3661095E-09  0.3589999E-09  0.2000000E-16
  1.000000000000000E-004
  CAR 
 unknown system                          
     21.95301010    -13.38750174  301      9.23410714      1.00000000
    -13.388  0.0000E+00  0.0000E+00
    -13.270  0.0000E+00  0.0000E+00
    -13.152  0.0000E+00  0.0000E+00
    -13.034  0.0000E+00  0.0000E+00
    -12.916  0.0000E+00  0.0000E+00
    -12.798  0.0000E+00  0.0000E+00
    -12.681  0.0000E+00  0.0000E+00
    -12.563  0.0000E+00  0.0000E+00
    -12.445  0.0000E+00  0.0000E+00
    -12.327  0.0000E+00  0.0000E+00
    -12.209  0.0000E+00  0.0000E+00
    -12.092  0.0000E+00  0.0000E+00
    -11.974  0.0000E+00  0.0000E+00
    -11.856  0.0000E+00  0.0000E+00
    -11.738  0.3640E-01  0.5197E-03
    -11.620  0.1600E+00  0.1503E-01
    -11.503  0.2507E+00  0.3924E-01
    -11.385  0.2838E+00  0.7038E-01
    -11.267  0.3333E+00  0.1067E+00
    -11.149  0.3746E+00  0.1489E+00
    -11.031  0.4052E+00  0.1948E+00
    -10.914  0.4378E+00  0.2443E+00
    -10.796  0.4777E+00  0.2982E+00
    -10.678  0.5015E+00  0.3560E+00
    -10.560  0.5259E+00  0.4166E+00
    -10.442  0.5533E+00  0.4801E+00
    -10.325  0.5830E+00  0.5470E+00
    -10.207  0.6101E+00  0.6174E+00
    -10.089  0.6309E+00  0.6904E+00
     -9.971  0.6521E+00  0.7660E+00
     -9.853  0.6751E+00  0.8442E+00
     -9.736  0.6991E+00  0.9251E+00
     -9.618  0.7249E+00  0.1009E+01
     -9.500  0.7466E+00  0.1096E+01
     -9.382  0.7653E+00  0.1185E+01
     -9.264  0.7844E+00  0.1276E+01
     -9.147  0.8057E+00  0.1370E+01
     -9.029  0.8276E+00  0.1466E+01
     -8.911  0.8506E+00  0.1565E+01
     -8.793  0.8729E+00  0.1666E+01
     -8.675  0.8921E+00  0.1770E+01
     -8.558  0.9109E+00  0.1876E+01
     -8.440  0.9313E+00  0.1985E+01
     -8.322  0.9523E+00  0.2096E+01
     -8.204  0.9739E+00  0.2209E+01
     -8.086  0.1021E+01  0.2326E+01
     -7.969  0.1070E+01  0.2450E+01
     -7.851  0.1114E+01  0.2578E+01
     -7.733  0.1146E+01  0.2712E+01
     -7.615  0.1137E+01  0.2847E+01
     -7.497  0.1106E+01  0.2979E+01
     -7.380  0.1099E+01  0.3109E+01
     -7.262  0.1125E+01  0.3240E+01
     -7.144  0.1132E+01  0.3373E+01
     -7.026  0.1139E+01  0.3506E+01
     -6.908  0.1188E+01  0.3643E+01
     -6.791  0.1254E+01  0.3787E+01
     -6.673  0.1332E+01  0.3940E+01
     -6.555  0.1439E+01  0.4103E+01
     -6.437  0.1531E+01  0.4276E+01
     -6.319  0.1674E+01  0.4467E+01
     -6.202  0.1602E+01  0.4665E+01
     -6.084  0.1640E+01  0.4857E+01
     -5.966  0.1561E+01  0.5048E+01
     -5.848  0.1477E+01  0.5225E+01
     -5.730  0.1479E+01  0.5399E+01
     -5.613  0.1462E+01  0.5573E+01
     -5.495  0.1407E+01  0.5743E+01
     -5.377  0.1377E+01  0.5910E+01
     -5.259  0.1274E+01  0.6065E+01
     -5.141  0.1276E+01  0.6215E+01
     -5.024  0.1237E+01  0.6363E+01
     -4.906  0.1256E+01  0.6510E+01
     -4.788  0.1136E+01  0.6650E+01
     -4.670  0.1104E+01  0.6783E+01
     -4.552  0.1124E+01  0.6915E+01
     -4.435  0.1053E+01  0.7041E+01
     -4.317  0.1015E+01  0.7163E+01
     -4.199  0.1012E+01  0.7282E+01
     -4.081  0.9809E+00  0.7401E+01
     -3.963  0.9039E+00  0.7513E+01
     -3.846  0.8118E+00  0.7614E+01
     -3.728  0.7569E+00  0.7705E+01
     -3.610  0.9012E+00  0.7805E+01
     -3.492  0.8836E+00  0.7908E+01
     -3.374  0.9042E+00  0.8018E+01
     -3.257  0.8572E+00  0.8119E+01
     -3.139  0.8387E+00  0.8220E+01
     -3.021  0.9495E+00  0.8327E+01
     -2.903  0.1004E+01  0.8443E+01
     -2.785  0.1119E+01  0.8567E+01
     -2.668  0.1303E+01  0.8709E+01
     -2.550  0.1573E+01  0.8879E+01
     -2.432  0.1832E+01  0.9079E+01
     -2.314  0.2194E+01  0.9315E+01
     -2.196  0.2904E+01  0.9613E+01
     -2.079  0.3274E+01  0.9993E+01
     -1.961  0.2529E+01  0.1033E+02
     -1.843  0.2060E+01  0.1060E+02
     -1.725  0.1841E+01  0.1083E+02
     -1.607  0.1709E+01  0.1104E+02
     -1.490  0.1602E+01  0.1124E+02
     -1.372  0.1520E+01  0.1142E+02
     -1.254  0.1475E+01  0.1159E+02
     -1.136  0.1447E+01  0.1177E+02
     -1.018  0.1410E+01  0.1194E+02
     -0.901  0.1394E+01  0.1210E+02
     -0.783  0.1222E+01  0.1225E+02
     -0.665  0.1178E+01  0.1239E+02
     -0.547  0.1128E+01  0.1253E+02
     -0.429  0.1109E+01  0.1266E+02
     -0.312  0.1091E+01  0.1279E+02
     -0.194  0.1064E+01  0.1291E+02
     -0.076  0.9894E+00  0.1303E+02
      0.042  0.1040E+01  0.1315E+02
      0.160  0.1232E+01  0.1329E+02
      0.277  0.1438E+01  0.1344E+02
      0.395  0.1636E+01  0.1363E+02
      0.513  0.1826E+01  0.1383E+02
      0.631  0.2266E+01  0.1407E+02
      0.749  0.2409E+01  0.1435E+02
      0.867  0.2315E+01  0.1462E+02
      0.984  0.2443E+01  0.1490E+02
      1.102  0.2314E+01  0.1519E+02
      1.220  0.1998E+01  0.1544E+02
      1.338  0.1452E+01  0.1564E+02
      1.456  0.1562E+01  0.1581E+02
      1.573  0.1880E+01  0.1602E+02
      1.691  0.2225E+01  0.1626E+02
      1.809  0.2324E+01  0.1652E+02
      1.927  0.2494E+01  0.1681E+02
      2.045  0.2489E+01  0.1710E+02
      2.162  0.2407E+01  0.1739E+02
      2.280  0.2371E+01  0.1767E+02
      2.398  0.2505E+01  0.1796E+02
      2.516  0.2891E+01  0.1827E+02
      2.634  0.3327E+01  0.1864E+02
      2.751  0.2913E+01  0.1903E+02
      2.869  0.2458E+01  0.1935E+02
      2.987  0.2593E+01  0.1966E+02
      3.105  0.2716E+01  0.1996E+02
      3.223  0.3081E+01  0.2031E+02
      3.340  0.3516E+01  0.2069E+02
      3.458  0.4074E+01  0.2114E+02
      3.576  0.3662E+01  0.2161E+02
      3.694  0.3239E+01  0.2202E+02
      3.812  0.2817E+01  0.2237E+02
      3.929  0.2712E+01  0.2269E+02
      4.047  0.2935E+01  0.2302E+02
      4.165  0.3182E+01  0.2339E+02
      4.283  0.3012E+01  0.2373E+02
      4.401  0.3164E+01  0.2410E+02
      4.518  0.3072E+01  0.2447E+02
      4.636  0.3103E+01  0.2483E+02
      4.754  0.3190E+01  0.2520E+02
      4.872  0.3183E+01  0.2558E+02
      4.990  0.2836E+01  0.2594E+02
      5.107  0.2585E+01  0.2625E+02
      5.225  0.2519E+01  0.2655E+02
      5.343  0.2568E+01  0.2685E+02
      5.461  0.2755E+01  0.2717E+02
      5.579  0.2829E+01  0.2750E+02
      5.696  0.2921E+01  0.2784E+02
      5.814  0.2779E+01  0.2818E+02
      5.932  0.2728E+01  0.2850E+02
      6.050  0.2630E+01  0.2882E+02
      6.168  0.2650E+01  0.2913E+02
      6.285  0.2463E+01  0.2943E+02
      6.403  0.2403E+01  0.2973E+02
      6.521  0.1834E+01  0.2997E+02
      6.639  0.1665E+01  0.3017E+02
      6.757  0.1534E+01  0.3036E+02
      6.874  0.1424E+01  0.3054E+02
      6.992  0.1321E+01  0.3070E+02
      7.110  0.1237E+01  0.3085E+02
      7.228  0.1125E+01  0.3099E+02
      7.346  0.1030E+01  0.3111E+02
      7.463  0.9573E+00  0.3123E+02
      7.581  0.8912E+00  0.3134E+02
      7.699  0.8173E+00  0.3144E+02
      7.817  0.7590E+00  0.3153E+02
      7.935  0.6638E+00  0.3162E+02
      8.052  0.6175E+00  0.3169E+02
      8.170  0.5406E+00  0.3176E+02
      8.288  0.4884E+00  0.3182E+02
      8.406  0.3885E+00  0.3187E+02
      8.524  0.3509E+00  0.3192E+02
      8.641  0.2855E+00  0.3195E+02
      8.759  0.1345E+00  0.3198E+02
      8.877  0.9193E-01  0.3199E+02
      8.995  0.2079E-01  0.3200E+02
      9.113  0.7505E-03  0.3200E+02
      9.230  0.0000E+00  0.3200E+02
      9.348  0.0000E+00  0.3200E+02
      9.466  0.0000E+00  0.3200E+02
      9.584  0.0000E+00  0.3200E+02
      9.702  0.0000E+00  0.3200E+02
      9.819  0.0000E+00  0.3200E+02
      9.937  0.0000E+00  0.3200E+02
     10.055  0.0000E+00  0.3200E+02
     10.173  0.0000E+00  0.3200E+02
     10.291  0.0000E+00  0.3200E+02
     10.408  0.0000E+00  0.3200E+02
     10.526  0.0000E+00  0.3200E+02
     10.644  0.0000E+00  0.3200E+02
     10.762  0.0000E+00  0.3200E+02
     10.880  0.0000E+00  0.3200E+02
     10.997  0.0000E+00  0.3200E+02
     11.115  0.0000E+00  0.3200E+02
     11.233  0.0000E+00  0.3200E+02
     11.351  0.0000E+00  0.3200E+02
     11.469  0.0000E+00  0.3200E+02
     11.586  0.0000E+00  0.3200E+02
     11.704  0.0000E+00  0.3200E+02
     11.822  0.0000E+00  0.3200E+02
     11.940  0.0000E+00  0.3200E+02
     12.058  0.0000E+00  0.3200E+02
     12.175  0.0000E+00  0.3200E+02
     12.293  0.0000E+00  0.3200E+02
     12.411  0.0000E+00  0.3200E+02
     12.529  0.0000E+00  0.3200E+02
     12.647  0.4350E-03  0.3200E+02
     12.764  0.3666E-01  0.3200E+02
     12.882  0.1004E+00  0.3201E+02
     13.000  0.1634E+00  0.3203E+02
     13.118  0.1967E+00  0.3205E+02
     13.236  0.3611E+00  0.3208E+02
     13.353  0.5669E+00  0.3213E+02
     13.471  0.6477E+00  0.3221E+02
     13.589  0.7291E+00  0.3228E+02
     13.707  0.9528E+00  0.3238E+02
     13.825  0.9616E+00  0.3249E+02
     13.942  0.1105E+01  0.3261E+02
     14.060  0.1297E+01  0.3276E+02
     14.178  0.1679E+01  0.3295E+02
     14.296  0.1616E+01  0.3314E+02
     14.414  0.1640E+01  0.3333E+02
     14.532  0.1689E+01  0.3352E+02
     14.649  0.1846E+01  0.3373E+02
     14.767  0.1903E+01  0.3395E+02
     14.885  0.2027E+01  0.3418E+02
     15.003  0.2241E+01  0.3444E+02
     15.121  0.2233E+01  0.3470E+02
     15.238  0.2239E+01  0.3496E+02
     15.356  0.2306E+01  0.3523E+02
     15.474  0.2319E+01  0.3550E+02
     15.592  0.2409E+01  0.3578E+02
     15.710  0.2571E+01  0.3607E+02
     15.827  0.2700E+01  0.3638E+02
     15.945  0.2853E+01  0.3671E+02
     16.063  0.2952E+01  0.3706E+02
     16.181  0.3133E+01  0.3741E+02
     16.299  0.3309E+01  0.3780E+02
     16.416  0.3457E+01  0.3819E+02
     16.534  0.3927E+01  0.3862E+02
     16.652  0.4576E+01  0.3913E+02
     16.770  0.5132E+01  0.3969E+02
     16.888  0.5018E+01  0.4030E+02
     17.005  0.3876E+01  0.4083E+02
     17.123  0.3655E+01  0.4127E+02
     17.241  0.3672E+01  0.4170E+02
     17.359  0.4234E+01  0.4216E+02
     17.477  0.4034E+01  0.4265E+02
     17.594  0.3792E+01  0.4312E+02
     17.712  0.3629E+01  0.4355E+02
     17.830  0.3247E+01  0.4396E+02
     17.948  0.3008E+01  0.4433E+02
     18.066  0.2800E+01  0.4467E+02
     18.183  0.2674E+01  0.4499E+02
     18.301  0.2705E+01  0.4531E+02
     18.419  0.2788E+01  0.4563E+02
     18.537  0.2906E+01  0.4597E+02
     18.655  0.2876E+01  0.4631E+02
     18.772  0.2721E+01  0.4664E+02
     18.890  0.2594E+01  0.4695E+02
     19.008  0.2471E+01  0.4725E+02
     19.126  0.1806E+01  0.4750E+02
     19.244  0.1232E+01  0.4768E+02
     19.361  0.8147E+00  0.4780E+02
     19.479  0.5141E+00  0.4788E+02
     19.597  0.3390E+00  0.4793E+02
     19.715  0.2091E+00  0.4796E+02
     19.833  0.1240E+00  0.4798E+02
     19.950  0.7614E-01  0.4799E+02
     20.068  0.3607E-01  0.4800E+02
     20.186  0.1201E-01  0.4800E+02
     20.304  0.8538E-03  0.4800E+02
     20.422  0.0000E+00  0.4800E+02
     20.539  0.0000E+00  0.4800E+02
     20.657  0.0000E+00  0.4800E+02
     20.775  0.0000E+00  0.4800E+02
     20.893  0.0000E+00  0.4800E+02
     21.011  0.0000E+00  0.4800E+02
     21.128  0.0000E+00  0.4800E+02
     21.246  0.0000E+00  0.4800E+02
     21.364  0.0000E+00  0.4800E+02
     21.482  0.0000E+00  0.4800E+02
     21.600  0.0000E+00  0.4800E+02
     21.717  0.0000E+00  0.4800E+02
     21.835  0.0000E+00  0.4800E+02
     21.953  0.0000E+00  0.4800E+02
