       N       E                     dE             d eps       ncg     rms          rms(c)
DAV:   1     0.583096420000E+02    0.58310E+02   -0.14297E+04  9408   0.105E+03
DAV:   2    -0.702900483337E+02   -0.12860E+03   -0.12194E+03 12968   0.219E+02
DAV:   3    -0.745951191446E+02   -0.43051E+01   -0.42841E+01 12152   0.378E+01
DAV:   4    -0.746426696349E+02   -0.47550E-01   -0.47503E-01 12072   0.429E+00
DAV:   5    -0.746436851426E+02   -0.10155E-02   -0.10151E-02 12128   0.572E-01    0.884E+00
DAV:   6    -0.730699042318E+02    0.15738E+01   -0.10548E+00 10968   0.573E+00    0.490E+00
DAV:   7    -0.725373603986E+02    0.53254E+00   -0.12110E+00 11240   0.632E+00    0.678E-01
DAV:   8    -0.725441328299E+02   -0.67724E-02   -0.24762E-02 12080   0.902E-01    0.770E-02
DAV:   9    -0.725443573285E+02   -0.22450E-03   -0.43264E-04 11536   0.138E-01    0.276E-02
DAV:  10    -0.725444147547E+02   -0.57426E-04   -0.52892E-05 11920   0.541E-02    0.260E-03
DAV:  11    -0.725444152780E+02   -0.52334E-06   -0.11104E-06  8840   0.724E-03
   1 F= -.72544415E+02 E0= -.72544415E+02  d E =0.000000E+00
