<?xml version="1.0" encoding="ISO-8859-1"?>
<modeling>
 <generator>
  <i name="program" type="string">vasp </i>
  <i name="version" type="string">5.4.4.18Apr17-6-g9f103f2a35  </i>
  <i name="subversion" type="string">(build Mar 12 2022 03:36:41) complex            parallel </i>
  <i name="platform" type="string">IFC19.0.3.199_CrayMPICH7.7.19 </i>
  <i name="date" type="string">2022 12 01 </i>
  <i name="time" type="string">10:27:36 </i>
 </generator>
 <incar>
  <i type="int" name="ISTART">     0</i>
  <i type="string" name="PREC">accurate</i>
  <i name="EDIFF">      0.00000100</i>
  <i name="POTIM">      0.02000000</i>
  <i type="int" name="ISMEAR">    -5</i>
  <i name="SIGMA">      0.06000000</i>
  <i type="logical" name="LWAVE"> F  </i>
  <i type="logical" name="LCHARG"> F  </i>
  <v type="int" name="KPOINT_BSE">    -1     0     0     0</v>
 </incar>
 <structure name="primitive_cell" >
  <crystal>
   <varray name="basis" >
    <v>       1.83054747       0.00000000       1.79499968 </v>
    <v>      -1.83054747       0.00000000       1.79499968 </v>
    <v>       0.00000000      -1.83054747      -1.79499968 </v>
   </varray>
   <i name="volume">     12.02974342 </i>
   <varray name="rec_basis" >
    <v>       0.27314233      -0.27314233       0.27855158 </v>
    <v>      -0.27314233      -0.27314233       0.27855158 </v>
    <v>       0.00000000      -0.54628466       0.00000000 </v>
   </varray>
  </crystal>
  <varray name="positions" >
   <v>      -0.25000000       0.25000000      -0.50000000 </v>
   <v>      -0.50000000      -0.50000000       0.00000000 </v>
  </varray>
 </structure>
 <varray name="primitive_index" >
  <v type="int" >        1 </v>
  <v type="int" >        2 </v>
 </varray>
 <kpoints>
  <generation param="Gamma">
   <v type="int" name="divisions">      12       12       12 </v>
   <v name="usershift">      0.00000000       0.00000000       0.00000000 </v>
   <v name="genvec1">      0.08333333       0.00000000       0.00000000 </v>
   <v name="genvec2">      0.00000000       0.08333333       0.00000000 </v>
   <v name="genvec3">      0.00000000       0.00000000       0.08333333 </v>
   <v name="shift">      0.00000000       0.00000000       0.00000000 </v>
  </generation>
  <varray name="kpointlist" >
   <v>       0.00000000       0.00000000       0.00000000 </v>
   <v>       0.08333333       0.00000000       0.00000000 </v>
   <v>       0.16666667       0.00000000       0.00000000 </v>
   <v>       0.25000000       0.00000000       0.00000000 </v>
   <v>       0.33333333       0.00000000       0.00000000 </v>
   <v>       0.41666667       0.00000000       0.00000000 </v>
   <v>       0.50000000       0.00000000       0.00000000 </v>
   <v>       0.08333333       0.08333333       0.00000000 </v>
   <v>       0.16666667       0.08333333       0.00000000 </v>
   <v>       0.25000000       0.08333333       0.00000000 </v>
   <v>       0.33333333       0.08333333       0.00000000 </v>
   <v>       0.41666667       0.08333333       0.00000000 </v>
   <v>       0.50000000       0.08333333       0.00000000 </v>
   <v>       0.16666667       0.16666667       0.00000000 </v>
   <v>       0.25000000       0.16666667       0.00000000 </v>
   <v>       0.33333333       0.16666667       0.00000000 </v>
   <v>       0.41666667       0.16666667       0.00000000 </v>
   <v>       0.50000000       0.16666667       0.00000000 </v>
   <v>       0.25000000       0.25000000       0.00000000 </v>
   <v>       0.33333333       0.25000000       0.00000000 </v>
   <v>       0.41666667       0.25000000       0.00000000 </v>
   <v>       0.50000000       0.25000000       0.00000000 </v>
   <v>       0.33333333       0.33333333       0.00000000 </v>
   <v>       0.41666667       0.33333333       0.00000000 </v>
   <v>       0.50000000       0.33333333       0.00000000 </v>
   <v>       0.41666667       0.41666667       0.00000000 </v>
   <v>       0.50000000       0.41666667       0.00000000 </v>
   <v>       0.50000000       0.50000000       0.00000000 </v>
   <v>       0.00000000       0.00000000       0.08333333 </v>
   <v>       0.08333333       0.00000000       0.08333333 </v>
   <v>       0.16666667       0.00000000       0.08333333 </v>
   <v>       0.25000000       0.00000000       0.08333333 </v>
   <v>       0.33333333       0.00000000       0.08333333 </v>
   <v>       0.41666667       0.00000000       0.08333333 </v>
   <v>       0.50000000       0.00000000       0.08333333 </v>
   <v>       0.08333333       0.08333333       0.08333333 </v>
   <v>       0.16666667       0.08333333       0.08333333 </v>
   <v>       0.25000000       0.08333333       0.08333333 </v>
   <v>       0.33333333       0.08333333       0.08333333 </v>
   <v>       0.41666667       0.08333333       0.08333333 </v>
   <v>       0.50000000       0.08333333       0.08333333 </v>
   <v>       0.16666667       0.16666667       0.08333333 </v>
   <v>       0.25000000       0.16666667       0.08333333 </v>
   <v>       0.33333333       0.16666667       0.08333333 </v>
   <v>       0.41666667       0.16666667       0.08333333 </v>
   <v>       0.50000000       0.16666667       0.08333333 </v>
   <v>       0.25000000       0.25000000       0.08333333 </v>
   <v>       0.33333333       0.25000000       0.08333333 </v>
   <v>       0.41666667       0.25000000       0.08333333 </v>
   <v>       0.50000000       0.25000000       0.08333333 </v>
   <v>       0.33333333       0.33333333       0.08333333 </v>
   <v>       0.41666667       0.33333333       0.08333333 </v>
   <v>       0.50000000       0.33333333       0.08333333 </v>
   <v>       0.41666667       0.41666667       0.08333333 </v>
   <v>       0.50000000       0.41666667       0.08333333 </v>
   <v>       0.50000000       0.50000000       0.08333333 </v>
   <v>       0.00000000       0.00000000       0.16666667 </v>
   <v>       0.08333333       0.00000000       0.16666667 </v>
   <v>       0.16666667       0.00000000       0.16666667 </v>
   <v>       0.25000000       0.00000000       0.16666667 </v>
   <v>       0.33333333       0.00000000       0.16666667 </v>
   <v>       0.41666667       0.00000000       0.16666667 </v>
   <v>       0.50000000       0.00000000       0.16666667 </v>
   <v>       0.08333333       0.08333333       0.16666667 </v>
   <v>       0.16666667       0.08333333       0.16666667 </v>
   <v>       0.25000000       0.08333333       0.16666667 </v>
   <v>       0.33333333       0.08333333       0.16666667 </v>
   <v>       0.41666667       0.08333333       0.16666667 </v>
   <v>       0.50000000       0.08333333       0.16666667 </v>
   <v>       0.16666667       0.16666667       0.16666667 </v>
   <v>       0.25000000       0.16666667       0.16666667 </v>
   <v>       0.33333333       0.16666667       0.16666667 </v>
   <v>       0.41666667       0.16666667       0.16666667 </v>
   <v>       0.50000000       0.16666667       0.16666667 </v>
   <v>       0.25000000       0.25000000       0.16666667 </v>
   <v>       0.33333333       0.25000000       0.16666667 </v>
   <v>       0.41666667       0.25000000       0.16666667 </v>
   <v>       0.50000000       0.25000000       0.16666667 </v>
   <v>       0.33333333       0.33333333       0.16666667 </v>
   <v>       0.41666667       0.33333333       0.16666667 </v>
   <v>       0.50000000       0.33333333       0.16666667 </v>
   <v>       0.41666667       0.41666667       0.16666667 </v>
   <v>       0.50000000       0.41666667       0.16666667 </v>
   <v>       0.50000000       0.50000000       0.16666667 </v>
   <v>       0.00000000       0.00000000       0.25000000 </v>
   <v>       0.08333333       0.00000000       0.25000000 </v>
   <v>       0.16666667       0.00000000       0.25000000 </v>
   <v>       0.25000000       0.00000000       0.25000000 </v>
   <v>       0.33333333       0.00000000       0.25000000 </v>
   <v>       0.41666667       0.00000000       0.25000000 </v>
   <v>       0.50000000       0.00000000       0.25000000 </v>
   <v>       0.08333333       0.08333333       0.25000000 </v>
   <v>       0.16666667       0.08333333       0.25000000 </v>
   <v>       0.25000000       0.08333333       0.25000000 </v>
   <v>       0.33333333       0.08333333       0.25000000 </v>
   <v>       0.41666667       0.08333333       0.25000000 </v>
   <v>       0.50000000       0.08333333       0.25000000 </v>
   <v>       0.16666667       0.16666667       0.25000000 </v>
   <v>       0.25000000       0.16666667       0.25000000 </v>
   <v>       0.33333333       0.16666667       0.25000000 </v>
   <v>       0.41666667       0.16666667       0.25000000 </v>
   <v>       0.50000000       0.16666667       0.25000000 </v>
   <v>       0.25000000       0.25000000       0.25000000 </v>
   <v>       0.33333333       0.25000000       0.25000000 </v>
   <v>       0.41666667       0.25000000       0.25000000 </v>
   <v>       0.50000000       0.25000000       0.25000000 </v>
   <v>       0.33333333       0.33333333       0.25000000 </v>
   <v>       0.41666667       0.33333333       0.25000000 </v>
   <v>       0.50000000       0.33333333       0.25000000 </v>
   <v>       0.41666667       0.41666667       0.25000000 </v>
   <v>       0.50000000       0.41666667       0.25000000 </v>
   <v>       0.50000000       0.50000000       0.25000000 </v>
   <v>       0.00000000       0.00000000       0.33333333 </v>
   <v>       0.08333333       0.00000000       0.33333333 </v>
   <v>       0.16666667       0.00000000       0.33333333 </v>
   <v>       0.25000000       0.00000000       0.33333333 </v>
   <v>       0.33333333       0.00000000       0.33333333 </v>
   <v>       0.41666667       0.00000000       0.33333333 </v>
   <v>       0.50000000       0.00000000       0.33333333 </v>
   <v>       0.08333333       0.08333333       0.33333333 </v>
   <v>       0.16666667       0.08333333       0.33333333 </v>
   <v>       0.25000000       0.08333333       0.33333333 </v>
   <v>       0.33333333       0.08333333       0.33333333 </v>
   <v>       0.41666667       0.08333333       0.33333333 </v>
   <v>       0.50000000       0.08333333       0.33333333 </v>
   <v>       0.16666667       0.16666667       0.33333333 </v>
   <v>       0.25000000       0.16666667       0.33333333 </v>
   <v>       0.33333333       0.16666667       0.33333333 </v>
   <v>       0.41666667       0.16666667       0.33333333 </v>
   <v>       0.50000000       0.16666667       0.33333333 </v>
   <v>       0.25000000       0.25000000       0.33333333 </v>
   <v>       0.33333333       0.25000000       0.33333333 </v>
   <v>       0.41666667       0.25000000       0.33333333 </v>
   <v>       0.50000000       0.25000000       0.33333333 </v>
   <v>       0.33333333       0.33333333       0.33333333 </v>
   <v>       0.41666667       0.33333333       0.33333333 </v>
   <v>       0.50000000       0.33333333       0.33333333 </v>
   <v>       0.41666667       0.41666667       0.33333333 </v>
   <v>       0.50000000       0.41666667       0.33333333 </v>
   <v>       0.50000000       0.50000000       0.33333333 </v>
   <v>       0.00000000       0.00000000       0.41666667 </v>
   <v>       0.08333333       0.00000000       0.41666667 </v>
   <v>       0.16666667       0.00000000       0.41666667 </v>
   <v>       0.25000000       0.00000000       0.41666667 </v>
   <v>       0.33333333       0.00000000       0.41666667 </v>
   <v>       0.41666667       0.00000000       0.41666667 </v>
   <v>       0.50000000       0.00000000       0.41666667 </v>
   <v>       0.08333333       0.08333333       0.41666667 </v>
   <v>       0.16666667       0.08333333       0.41666667 </v>
   <v>       0.25000000       0.08333333       0.41666667 </v>
   <v>       0.33333333       0.08333333       0.41666667 </v>
   <v>       0.41666667       0.08333333       0.41666667 </v>
   <v>       0.50000000       0.08333333       0.41666667 </v>
   <v>       0.16666667       0.16666667       0.41666667 </v>
   <v>       0.25000000       0.16666667       0.41666667 </v>
   <v>       0.33333333       0.16666667       0.41666667 </v>
   <v>       0.41666667       0.16666667       0.41666667 </v>
   <v>       0.50000000       0.16666667       0.41666667 </v>
   <v>       0.25000000       0.25000000       0.41666667 </v>
   <v>       0.33333333       0.25000000       0.41666667 </v>
   <v>       0.41666667       0.25000000       0.41666667 </v>
   <v>       0.50000000       0.25000000       0.41666667 </v>
   <v>       0.33333333       0.33333333       0.41666667 </v>
   <v>       0.41666667       0.33333333       0.41666667 </v>
   <v>       0.50000000       0.33333333       0.41666667 </v>
   <v>       0.41666667       0.41666667       0.41666667 </v>
   <v>       0.50000000       0.41666667       0.41666667 </v>
   <v>       0.50000000       0.50000000       0.41666667 </v>
   <v>       0.00000000       0.00000000       0.50000000 </v>
   <v>       0.08333333       0.00000000       0.50000000 </v>
   <v>       0.16666667       0.00000000       0.50000000 </v>
   <v>       0.25000000       0.00000000       0.50000000 </v>
   <v>       0.33333333       0.00000000       0.50000000 </v>
   <v>       0.41666667       0.00000000       0.50000000 </v>
   <v>       0.50000000       0.00000000       0.50000000 </v>
   <v>       0.08333333       0.08333333       0.50000000 </v>
   <v>       0.16666667       0.08333333       0.50000000 </v>
   <v>       0.25000000       0.08333333       0.50000000 </v>
   <v>       0.33333333       0.08333333       0.50000000 </v>
   <v>       0.41666667       0.08333333       0.50000000 </v>
   <v>       0.50000000       0.08333333       0.50000000 </v>
   <v>       0.16666667       0.16666667       0.50000000 </v>
   <v>       0.25000000       0.16666667       0.50000000 </v>
   <v>       0.33333333       0.16666667       0.50000000 </v>
   <v>       0.41666667       0.16666667       0.50000000 </v>
   <v>       0.50000000       0.16666667       0.50000000 </v>
   <v>       0.25000000       0.25000000       0.50000000 </v>
   <v>       0.33333333       0.25000000       0.50000000 </v>
   <v>       0.41666667       0.25000000       0.50000000 </v>
   <v>       0.50000000       0.25000000       0.50000000 </v>
   <v>       0.33333333       0.33333333       0.50000000 </v>
   <v>       0.41666667       0.33333333       0.50000000 </v>
   <v>       0.50000000       0.33333333       0.50000000 </v>
   <v>       0.41666667       0.41666667       0.50000000 </v>
   <v>       0.50000000       0.41666667       0.50000000 </v>
   <v>       0.50000000       0.50000000       0.50000000 </v>
  </varray>
  <varray name="weights" >
   <v>       0.00057870 </v>
   <v>       0.00231481 </v>
   <v>       0.00231481 </v>
   <v>       0.00231481 </v>
   <v>       0.00231481 </v>
   <v>       0.00231481 </v>
   <v>       0.00115741 </v>
   <v>       0.00231481 </v>
   <v>       0.00462963 </v>
   <v>       0.00462963 </v>
   <v>       0.00462963 </v>
   <v>       0.00462963 </v>
   <v>       0.00231481 </v>
   <v>       0.00231481 </v>
   <v>       0.00462963 </v>
   <v>       0.00462963 </v>
   <v>       0.00462963 </v>
   <v>       0.00231481 </v>
   <v>       0.00231481 </v>
   <v>       0.00462963 </v>
   <v>       0.00462963 </v>
   <v>       0.00231481 </v>
   <v>       0.00231481 </v>
   <v>       0.00462963 </v>
   <v>       0.00231481 </v>
   <v>       0.00231481 </v>
   <v>       0.00231481 </v>
   <v>       0.00057870 </v>
   <v>       0.00115741 </v>
   <v>       0.00462963 </v>
   <v>       0.00462963 </v>
   <v>       0.00462963 </v>
   <v>       0.00462963 </v>
   <v>       0.00462963 </v>
   <v>       0.00231481 </v>
   <v>       0.00462963 </v>
   <v>       0.00925926 </v>
   <v>       0.00925926 </v>
   <v>       0.00925926 </v>
   <v>       0.00925926 </v>
   <v>       0.00462963 </v>
   <v>       0.00462963 </v>
   <v>       0.00925926 </v>
   <v>       0.00925926 </v>
   <v>       0.00925926 </v>
   <v>       0.00462963 </v>
   <v>       0.00462963 </v>
   <v>       0.00925926 </v>
   <v>       0.00925926 </v>
   <v>       0.00462963 </v>
   <v>       0.00462963 </v>
   <v>       0.00925926 </v>
   <v>       0.00462963 </v>
   <v>       0.00462963 </v>
   <v>       0.00462963 </v>
   <v>       0.00115741 </v>
   <v>       0.00115741 </v>
   <v>       0.00462963 </v>
   <v>       0.00462963 </v>
   <v>       0.00462963 </v>
   <v>       0.00462963 </v>
   <v>       0.00462963 </v>
   <v>       0.00231481 </v>
   <v>       0.00462963 </v>
   <v>       0.00925926 </v>
   <v>       0.00925926 </v>
   <v>       0.00925926 </v>
   <v>       0.00925926 </v>
   <v>       0.00462963 </v>
   <v>       0.00462963 </v>
   <v>       0.00925926 </v>
   <v>       0.00925926 </v>
   <v>       0.00925926 </v>
   <v>       0.00462963 </v>
   <v>       0.00462963 </v>
   <v>       0.00925926 </v>
   <v>       0.00925926 </v>
   <v>       0.00462963 </v>
   <v>       0.00462963 </v>
   <v>       0.00925926 </v>
   <v>       0.00462963 </v>
   <v>       0.00462963 </v>
   <v>       0.00462963 </v>
   <v>       0.00115741 </v>
   <v>       0.00115741 </v>
   <v>       0.00462963 </v>
   <v>       0.00462963 </v>
   <v>       0.00462963 </v>
   <v>       0.00462963 </v>
   <v>       0.00462963 </v>
   <v>       0.00231481 </v>
   <v>       0.00462963 </v>
   <v>       0.00925926 </v>
   <v>       0.00925926 </v>
   <v>       0.00925926 </v>
   <v>       0.00925926 </v>
   <v>       0.00462963 </v>
   <v>       0.00462963 </v>
   <v>       0.00925926 </v>
   <v>       0.00925926 </v>
   <v>       0.00925926 </v>
   <v>       0.00462963 </v>
   <v>       0.00462963 </v>
   <v>       0.00925926 </v>
   <v>       0.00925926 </v>
   <v>       0.00462963 </v>
   <v>       0.00462963 </v>
   <v>       0.00925926 </v>
   <v>       0.00462963 </v>
   <v>       0.00462963 </v>
   <v>       0.00462963 </v>
   <v>       0.00115741 </v>
   <v>       0.00115741 </v>
   <v>       0.00462963 </v>
   <v>       0.00462963 </v>
   <v>       0.00462963 </v>
   <v>       0.00462963 </v>
   <v>       0.00462963 </v>
   <v>       0.00231481 </v>
   <v>       0.00462963 </v>
   <v>       0.00925926 </v>
   <v>       0.00925926 </v>
   <v>       0.00925926 </v>
   <v>       0.00925926 </v>
   <v>       0.00462963 </v>
   <v>       0.00462963 </v>
   <v>       0.00925926 </v>
   <v>       0.00925926 </v>
   <v>       0.00925926 </v>
   <v>       0.00462963 </v>
   <v>       0.00462963 </v>
   <v>       0.00925926 </v>
   <v>       0.00925926 </v>
   <v>       0.00462963 </v>
   <v>       0.00462963 </v>
   <v>       0.00925926 </v>
   <v>       0.00462963 </v>
   <v>       0.00462963 </v>
   <v>       0.00462963 </v>
   <v>       0.00115741 </v>
   <v>       0.00115741 </v>
   <v>       0.00462963 </v>
   <v>       0.00462963 </v>
   <v>       0.00462963 </v>
   <v>       0.00462963 </v>
   <v>       0.00462963 </v>
   <v>       0.00231481 </v>
   <v>       0.00462963 </v>
   <v>       0.00925926 </v>
   <v>       0.00925926 </v>
   <v>       0.00925926 </v>
   <v>       0.00925926 </v>
   <v>       0.00462963 </v>
   <v>       0.00462963 </v>
   <v>       0.00925926 </v>
   <v>       0.00925926 </v>
   <v>       0.00925926 </v>
   <v>       0.00462963 </v>
   <v>       0.00462963 </v>
   <v>       0.00925926 </v>
   <v>       0.00925926 </v>
   <v>       0.00462963 </v>
   <v>       0.00462963 </v>
   <v>       0.00925926 </v>
   <v>       0.00462963 </v>
   <v>       0.00462963 </v>
   <v>       0.00462963 </v>
   <v>       0.00115741 </v>
   <v>       0.00057870 </v>
   <v>       0.00231481 </v>
   <v>       0.00231481 </v>
   <v>       0.00231481 </v>
   <v>       0.00231481 </v>
   <v>       0.00231481 </v>
   <v>       0.00115741 </v>
   <v>       0.00231481 </v>
   <v>       0.00462963 </v>
   <v>       0.00462963 </v>
   <v>       0.00462963 </v>
   <v>       0.00462963 </v>
   <v>       0.00231481 </v>
   <v>       0.00231481 </v>
   <v>       0.00462963 </v>
   <v>       0.00462963 </v>
   <v>       0.00462963 </v>
   <v>       0.00231481 </v>
   <v>       0.00231481 </v>
   <v>       0.00462963 </v>
   <v>       0.00462963 </v>
   <v>       0.00231481 </v>
   <v>       0.00231481 </v>
   <v>       0.00462963 </v>
   <v>       0.00231481 </v>
   <v>       0.00231481 </v>
   <v>       0.00231481 </v>
   <v>       0.00057870 </v>
  </varray>
  <varray name="tetrahedronlist"  type="int" >
   <v type="int" >        4        1        2        8       29 </v>
   <v type="int" >        4        2        8       29       30 </v>
   <v type="int" >        4        8       29       30       36 </v>
   <v type="int" >        4        2        3        9       30 </v>
   <v type="int" >        4        2        8        9       30 </v>
   <v type="int" >        4        8        9       30       36 </v>
   <v type="int" >        4        3        9       30       31 </v>
   <v type="int" >        4        9       30       31       37 </v>
   <v type="int" >        4        9       30       36       37 </v>
   <v type="int" >        4        3        4       10       31 </v>
   <v type="int" >        4        3        9       10       31 </v>
   <v type="int" >        4        9       10       31       37 </v>
   <v type="int" >        4        4       10       31       32 </v>
   <v type="int" >        4       10       31       32       38 </v>
   <v type="int" >        4       10       31       37       38 </v>
   <v type="int" >        4        4        5       11       32 </v>
   <v type="int" >        4        4       10       11       32 </v>
   <v type="int" >        4       10       11       32       38 </v>
   <v type="int" >        4        5       11       32       33 </v>
   <v type="int" >        4       11       32       33       39 </v>
   <v type="int" >        4       11       32       38       39 </v>
   <v type="int" >        4        5        6       12       33 </v>
   <v type="int" >        4        5       11       12       33 </v>
   <v type="int" >        4       11       12       33       39 </v>
   <v type="int" >        4        6       12       33       34 </v>
   <v type="int" >        4       12       33       34       40 </v>
   <v type="int" >        4       12       33       39       40 </v>
   <v type="int" >        4        6        7       13       34 </v>
   <v type="int" >        4        6       12       13       34 </v>
   <v type="int" >        4       12       13       34       40 </v>
   <v type="int" >        4        7       13       34       35 </v>
   <v type="int" >        4       13       34       35       41 </v>
   <v type="int" >        4       13       34       40       41 </v>
   <v type="int" >        4        6        7       12       35 </v>
   <v type="int" >        4        7       12       13       35 </v>
   <v type="int" >        4       12       13       35       41 </v>
   <v type="int" >        4        6       12       34       35 </v>
   <v type="int" >        4       12       34       35       40 </v>
   <v type="int" >        4       12       35       40       41 </v>
   <v type="int" >        4        5        6       11       34 </v>
   <v type="int" >        4        6       11       12       34 </v>
   <v type="int" >        4       11       12       34       40 </v>
   <v type="int" >        4        5       11       33       34 </v>
   <v type="int" >        4       11       33       34       39 </v>
   <v type="int" >        4       11       34       39       40 </v>
   <v type="int" >        4        4        5       10       33 </v>
   <v type="int" >        4        5       10       11       33 </v>
   <v type="int" >        4       10       11       33       39 </v>
   <v type="int" >        4        4       10       32       33 </v>
   <v type="int" >        4       10       32       33       38 </v>
   <v type="int" >        4       10       33       38       39 </v>
   <v type="int" >        4        3        4        9       32 </v>
   <v type="int" >        4        4        9       10       32 </v>
   <v type="int" >        4        9       10       32       38 </v>
   <v type="int" >        4        3        9       31       32 </v>
   <v type="int" >        4        9       31       32       37 </v>
   <v type="int" >        4        9       32       37       38 </v>
   <v type="int" >        4        2        3        8       31 </v>
   <v type="int" >        4        3        8        9       31 </v>
   <v type="int" >        4        8        9       31       37 </v>
   <v type="int" >        4        2        8       30       31 </v>
   <v type="int" >        4        8       30       31       36 </v>
   <v type="int" >        4        8       31       36       37 </v>
   <v type="int" >        4        1        2        2       30 </v>
   <v type="int" >        4        2        2        8       30 </v>
   <v type="int" >        4        2        8       30       36 </v>
   <v type="int" >        4        1        2       29       30 </v>
   <v type="int" >        4        2       29       30       30 </v>
   <v type="int" >        4        2       30       30       36 </v>
   <v type="int" >        4        8        9       14       36 </v>
   <v type="int" >        4        9       14       36       37 </v>
   <v type="int" >        4       14       36       37       42 </v>
   <v type="int" >        4        9       10       15       37 </v>
   <v type="int" >        4        9       14       15       37 </v>
   <v type="int" >        4       14       15       37       42 </v>
   <v type="int" >        4       10       15       37       38 </v>
   <v type="int" >        4       15       37       38       43 </v>
   <v type="int" >        4       15       37       42       43 </v>
   <v type="int" >        4       10       11       16       38 </v>
   <v type="int" >        4       10       15       16       38 </v>
   <v type="int" >        4       15       16       38       43 </v>
   <v type="int" >        4       11       16       38       39 </v>
   <v type="int" >        4       16       38       39       44 </v>
   <v type="int" >        4       16       38       43       44 </v>
   <v type="int" >        4       11       12       17       39 </v>
   <v type="int" >        4       11       16       17       39 </v>
   <v type="int" >        4       16       17       39       44 </v>
   <v type="int" >        4       12       17       39       40 </v>
   <v type="int" >        4       17       39       40       45 </v>
   <v type="int" >        4       17       39       44       45 </v>
   <v type="int" >        4       12       13       18       40 </v>
   <v type="int" >        4       12       17       18       40 </v>
   <v type="int" >        4       17       18       40       45 </v>
   <v type="int" >        4       13       18       40       41 </v>
   <v type="int" >        4       18       40       41       46 </v>
   <v type="int" >        4       18       40       45       46 </v>
   <v type="int" >        4       12       13       17       41 </v>
   <v type="int" >        4       13       17       18       41 </v>
   <v type="int" >        4       17       18       41       46 </v>
   <v type="int" >        4       12       17       40       41 </v>
   <v type="int" >        4       17       40       41       45 </v>
   <v type="int" >        4       17       41       45       46 </v>
   <v type="int" >        4       11       12       16       40 </v>
   <v type="int" >        4       12       16       17       40 </v>
   <v type="int" >        4       16       17       40       45 </v>
   <v type="int" >        4       11       16       39       40 </v>
   <v type="int" >        4       16       39       40       44 </v>
   <v type="int" >        4       16       40       44       45 </v>
   <v type="int" >        4       10       11       15       39 </v>
   <v type="int" >        4       11       15       16       39 </v>
   <v type="int" >        4       15       16       39       44 </v>
   <v type="int" >        4       10       15       38       39 </v>
   <v type="int" >        4       15       38       39       43 </v>
   <v type="int" >        4       15       39       43       44 </v>
   <v type="int" >        4        9       10       14       38 </v>
   <v type="int" >        4       10       14       15       38 </v>
   <v type="int" >        4       14       15       38       43 </v>
   <v type="int" >        4        9       14       37       38 </v>
   <v type="int" >        4       14       37       38       42 </v>
   <v type="int" >        4       14       38       42       43 </v>
   <v type="int" >        4        8        9        9       37 </v>
   <v type="int" >        4        9        9       14       37 </v>
   <v type="int" >        4        9       14       37       42 </v>
   <v type="int" >        4        8        9       36       37 </v>
   <v type="int" >        4        9       36       37       37 </v>
   <v type="int" >        4        9       37       37       42 </v>
   <v type="int" >        4        2        3        8       36 </v>
   <v type="int" >        4        3        8        9       36 </v>
   <v type="int" >        4        3        9       36       37 </v>
   <v type="int" >        4        2        3       30       36 </v>
   <v type="int" >        4        3       30       31       36 </v>
   <v type="int" >        4        3       31       36       37 </v>
   <v type="int" >        4       14       15       19       42 </v>
   <v type="int" >        4       15       19       42       43 </v>
   <v type="int" >        4       19       42       43       47 </v>
   <v type="int" >        4       15       16       20       43 </v>
   <v type="int" >        4       15       19       20       43 </v>
   <v type="int" >        4       19       20       43       47 </v>
   <v type="int" >        4       16       20       43       44 </v>
   <v type="int" >        4       20       43       44       48 </v>
   <v type="int" >        4       20       43       47       48 </v>
   <v type="int" >        4       16       17       21       44 </v>
   <v type="int" >        4       16       20       21       44 </v>
   <v type="int" >        4       20       21       44       48 </v>
   <v type="int" >        4       17       21       44       45 </v>
   <v type="int" >        4       21       44       45       49 </v>
   <v type="int" >        4       21       44       48       49 </v>
   <v type="int" >        4       17       18       22       45 </v>
   <v type="int" >        4       17       21       22       45 </v>
   <v type="int" >        4       21       22       45       49 </v>
   <v type="int" >        4       18       22       45       46 </v>
   <v type="int" >        4       22       45       46       50 </v>
   <v type="int" >        4       22       45       49       50 </v>
   <v type="int" >        4       17       18       21       46 </v>
   <v type="int" >        4       18       21       22       46 </v>
   <v type="int" >        4       21       22       46       50 </v>
   <v type="int" >        4       17       21       45       46 </v>
   <v type="int" >        4       21       45       46       49 </v>
   <v type="int" >        4       21       46       49       50 </v>
   <v type="int" >        4       16       17       20       45 </v>
   <v type="int" >        4       17       20       21       45 </v>
   <v type="int" >        4       20       21       45       49 </v>
   <v type="int" >        4       16       20       44       45 </v>
   <v type="int" >        4       20       44       45       48 </v>
   <v type="int" >        4       20       45       48       49 </v>
   <v type="int" >        4       15       16       19       44 </v>
   <v type="int" >        4       16       19       20       44 </v>
   <v type="int" >        4       19       20       44       48 </v>
   <v type="int" >        4       15       19       43       44 </v>
   <v type="int" >        4       19       43       44       47 </v>
   <v type="int" >        4       19       44       47       48 </v>
   <v type="int" >        4       14       15       15       43 </v>
   <v type="int" >        4       15       15       19       43 </v>
   <v type="int" >        4       15       19       43       47 </v>
   <v type="int" >        4       14       15       42       43 </v>
   <v type="int" >        4       15       42       43       43 </v>
   <v type="int" >        4       15       43       43       47 </v>
   <v type="int" >        4        9       10       14       42 </v>
   <v type="int" >        4       10       14       15       42 </v>
   <v type="int" >        4       10       15       42       43 </v>
   <v type="int" >        4        9       10       37       42 </v>
   <v type="int" >        4       10       37       38       42 </v>
   <v type="int" >        4       10       38       42       43 </v>
   <v type="int" >        4        3        4        9       37 </v>
   <v type="int" >        4        4        9       10       37 </v>
   <v type="int" >        4        4       10       37       38 </v>
   <v type="int" >        4        3        4       31       37 </v>
   <v type="int" >        4        4       31       32       37 </v>
   <v type="int" >        4        4       32       37       38 </v>
   <v type="int" >        4       19       20       23       47 </v>
   <v type="int" >        4       20       23       47       48 </v>
   <v type="int" >        4       23       47       48       51 </v>
   <v type="int" >        4       20       21       24       48 </v>
   <v type="int" >        4       20       23       24       48 </v>
   <v type="int" >        4       23       24       48       51 </v>
   <v type="int" >        4       21       24       48       49 </v>
   <v type="int" >        4       24       48       49       52 </v>
   <v type="int" >        4       24       48       51       52 </v>
   <v type="int" >        4       21       22       25       49 </v>
   <v type="int" >        4       21       24       25       49 </v>
   <v type="int" >        4       24       25       49       52 </v>
   <v type="int" >        4       22       25       49       50 </v>
   <v type="int" >        4       25       49       50       53 </v>
   <v type="int" >        4       25       49       52       53 </v>
   <v type="int" >        4       21       22       24       50 </v>
   <v type="int" >        4       22       24       25       50 </v>
   <v type="int" >        4       24       25       50       53 </v>
   <v type="int" >        4       21       24       49       50 </v>
   <v type="int" >        4       24       49       50       52 </v>
   <v type="int" >        4       24       50       52       53 </v>
   <v type="int" >        4       20       21       23       49 </v>
   <v type="int" >        4       21       23       24       49 </v>
   <v type="int" >        4       23       24       49       52 </v>
   <v type="int" >        4       20       23       48       49 </v>
   <v type="int" >        4       23       48       49       51 </v>
   <v type="int" >        4       23       49       51       52 </v>
   <v type="int" >        4       19       20       20       48 </v>
   <v type="int" >        4       20       20       23       48 </v>
   <v type="int" >        4       20       23       48       51 </v>
   <v type="int" >        4       19       20       47       48 </v>
   <v type="int" >        4       20       47       48       48 </v>
   <v type="int" >        4       20       48       48       51 </v>
   <v type="int" >        4       15       16       19       47 </v>
   <v type="int" >        4       16       19       20       47 </v>
   <v type="int" >        4       16       20       47       48 </v>
   <v type="int" >        4       15       16       43       47 </v>
   <v type="int" >        4       16       43       44       47 </v>
   <v type="int" >        4       16       44       47       48 </v>
   <v type="int" >        4       10       11       15       43 </v>
   <v type="int" >        4       11       15       16       43 </v>
   <v type="int" >        4       11       16       43       44 </v>
   <v type="int" >        4       10       11       38       43 </v>
   <v type="int" >        4       11       38       39       43 </v>
   <v type="int" >        4       11       39       43       44 </v>
   <v type="int" >        4        4        5       10       38 </v>
   <v type="int" >        4        5       10       11       38 </v>
   <v type="int" >        4        5       11       38       39 </v>
   <v type="int" >        4        4        5       32       38 </v>
   <v type="int" >        4        5       32       33       38 </v>
   <v type="int" >        4        5       33       38       39 </v>
   <v type="int" >        4       23       24       26       51 </v>
   <v type="int" >        4       24       26       51       52 </v>
   <v type="int" >        4       26       51       52       54 </v>
   <v type="int" >        4       24       25       27       52 </v>
   <v type="int" >        4       24       26       27       52 </v>
   <v type="int" >        4       26       27       52       54 </v>
   <v type="int" >        4       25       27       52       53 </v>
   <v type="int" >        4       27       52       53       55 </v>
   <v type="int" >        4       27       52       54       55 </v>
   <v type="int" >        4       24       25       26       53 </v>
   <v type="int" >        4       25       26       27       53 </v>
   <v type="int" >        4       26       27       53       55 </v>
   <v type="int" >        4       24       26       52       53 </v>
   <v type="int" >        4       26       52       53       54 </v>
   <v type="int" >        4       26       53       54       55 </v>
   <v type="int" >        4       23       24       24       52 </v>
   <v type="int" >        4       24       24       26       52 </v>
   <v type="int" >        4       24       26       52       54 </v>
   <v type="int" >        4       23       24       51       52 </v>
   <v type="int" >        4       24       51       52       52 </v>
   <v type="int" >        4       24       52       52       54 </v>
   <v type="int" >        4       20       21       23       51 </v>
   <v type="int" >        4       21       23       24       51 </v>
   <v type="int" >        4       21       24       51       52 </v>
   <v type="int" >        4       20       21       48       51 </v>
   <v type="int" >        4       21       48       49       51 </v>
   <v type="int" >        4       21       49       51       52 </v>
   <v type="int" >        4       16       17       20       48 </v>
   <v type="int" >        4       17       20       21       48 </v>
   <v type="int" >        4       17       21       48       49 </v>
   <v type="int" >        4       16       17       44       48 </v>
   <v type="int" >        4       17       44       45       48 </v>
   <v type="int" >        4       17       45       48       49 </v>
   <v type="int" >        4       11       12       16       44 </v>
   <v type="int" >        4       12       16       17       44 </v>
   <v type="int" >        4       12       17       44       45 </v>
   <v type="int" >        4       11       12       39       44 </v>
   <v type="int" >        4       12       39       40       44 </v>
   <v type="int" >        4       12       40       44       45 </v>
   <v type="int" >        4        5        6       11       39 </v>
   <v type="int" >        4        6       11       12       39 </v>
   <v type="int" >        4        6       12       39       40 </v>
   <v type="int" >        4        5        6       33       39 </v>
   <v type="int" >        4        6       33       34       39 </v>
   <v type="int" >        4        6       34       39       40 </v>
   <v type="int" >        4       26       27       28       54 </v>
   <v type="int" >        4       27       28       54       55 </v>
   <v type="int" >        4       28       54       55       56 </v>
   <v type="int" >        4       26       27       27       55 </v>
   <v type="int" >        4       27       27       28       55 </v>
   <v type="int" >        4       27       28       55       56 </v>
   <v type="int" >        4       26       27       54       55 </v>
   <v type="int" >        4       27       54       55       55 </v>
   <v type="int" >        4       27       55       55       56 </v>
   <v type="int" >        4       24       25       26       54 </v>
   <v type="int" >        4       25       26       27       54 </v>
   <v type="int" >        4       25       27       54       55 </v>
   <v type="int" >        4       24       25       52       54 </v>
   <v type="int" >        4       25       52       53       54 </v>
   <v type="int" >        4       25       53       54       55 </v>
   <v type="int" >        4       21       22       24       52 </v>
   <v type="int" >        4       22       24       25       52 </v>
   <v type="int" >        4       22       25       52       53 </v>
   <v type="int" >        4       21       22       49       52 </v>
   <v type="int" >        4       22       49       50       52 </v>
   <v type="int" >        4       22       50       52       53 </v>
   <v type="int" >        4       17       18       21       49 </v>
   <v type="int" >        4       18       21       22       49 </v>
   <v type="int" >        4       18       22       49       50 </v>
   <v type="int" >        4       17       18       45       49 </v>
   <v type="int" >        4       18       45       46       49 </v>
   <v type="int" >        4       18       46       49       50 </v>
   <v type="int" >        4       12       13       17       45 </v>
   <v type="int" >        4       13       17       18       45 </v>
   <v type="int" >        4       13       18       45       46 </v>
   <v type="int" >        4       12       13       40       45 </v>
   <v type="int" >        4       13       40       41       45 </v>
   <v type="int" >        4       13       41       45       46 </v>
   <v type="int" >        4        6        7       12       40 </v>
   <v type="int" >        4        7       12       13       40 </v>
   <v type="int" >        4        7       13       40       41 </v>
   <v type="int" >        4        6        7       34       40 </v>
   <v type="int" >        4        7       34       35       40 </v>
   <v type="int" >        4        7       35       40       41 </v>
   <v type="int" >        4       26       27       28       56 </v>
   <v type="int" >        4       26       27       55       56 </v>
   <v type="int" >        4       26       54       55       56 </v>
   <v type="int" >        4       24       25       27       55 </v>
   <v type="int" >        4       24       26       27       55 </v>
   <v type="int" >        4       24       26       54       55 </v>
   <v type="int" >        4       24       25       53       55 </v>
   <v type="int" >        4       24       52       53       55 </v>
   <v type="int" >        4       24       52       54       55 </v>
   <v type="int" >        4       21       22       25       53 </v>
   <v type="int" >        4       21       24       25       53 </v>
   <v type="int" >        4       21       24       52       53 </v>
   <v type="int" >        4       21       22       50       53 </v>
   <v type="int" >        4       21       49       50       53 </v>
   <v type="int" >        4       21       49       52       53 </v>
   <v type="int" >        4       17       18       22       50 </v>
   <v type="int" >        4       17       21       22       50 </v>
   <v type="int" >        4       17       21       49       50 </v>
   <v type="int" >        4       17       18       46       50 </v>
   <v type="int" >        4       17       45       46       50 </v>
   <v type="int" >        4       17       45       49       50 </v>
   <v type="int" >        4       12       13       18       46 </v>
   <v type="int" >        4       12       17       18       46 </v>
   <v type="int" >        4       12       17       45       46 </v>
   <v type="int" >        4       12       13       41       46 </v>
   <v type="int" >        4       12       40       41       46 </v>
   <v type="int" >        4       12       40       45       46 </v>
   <v type="int" >        4        6        7       13       41 </v>
   <v type="int" >        4        6       12       13       41 </v>
   <v type="int" >        4        6       12       40       41 </v>
   <v type="int" >        4        6        7       35       41 </v>
   <v type="int" >        4        6       34       35       41 </v>
   <v type="int" >        4        6       34       40       41 </v>
   <v type="int" >        4       23       24       26       54 </v>
   <v type="int" >        4       23       24       52       54 </v>
   <v type="int" >        4       23       51       52       54 </v>
   <v type="int" >        4       20       21       24       52 </v>
   <v type="int" >        4       20       23       24       52 </v>
   <v type="int" >        4       20       23       51       52 </v>
   <v type="int" >        4       20       21       49       52 </v>
   <v type="int" >        4       20       48       49       52 </v>
   <v type="int" >        4       20       48       51       52 </v>
   <v type="int" >        4       16       17       21       49 </v>
   <v type="int" >        4       16       20       21       49 </v>
   <v type="int" >        4       16       20       48       49 </v>
   <v type="int" >        4       16       17       45       49 </v>
   <v type="int" >        4       16       44       45       49 </v>
   <v type="int" >        4       16       44       48       49 </v>
   <v type="int" >        4       11       12       17       45 </v>
   <v type="int" >        4       11       16       17       45 </v>
   <v type="int" >        4       11       16       44       45 </v>
   <v type="int" >        4       11       12       40       45 </v>
   <v type="int" >        4       11       39       40       45 </v>
   <v type="int" >        4       11       39       44       45 </v>
   <v type="int" >        4        5        6       12       40 </v>
   <v type="int" >        4        5       11       12       40 </v>
   <v type="int" >        4        5       11       39       40 </v>
   <v type="int" >        4        5        6       34       40 </v>
   <v type="int" >        4        5       33       34       40 </v>
   <v type="int" >        4        5       33       39       40 </v>
   <v type="int" >        4       19       20       23       51 </v>
   <v type="int" >        4       19       20       48       51 </v>
   <v type="int" >        4       19       47       48       51 </v>
   <v type="int" >        4       15       16       20       48 </v>
   <v type="int" >        4       15       19       20       48 </v>
   <v type="int" >        4       15       19       47       48 </v>
   <v type="int" >        4       15       16       44       48 </v>
   <v type="int" >        4       15       43       44       48 </v>
   <v type="int" >        4       15       43       47       48 </v>
   <v type="int" >        4       10       11       16       44 </v>
   <v type="int" >        4       10       15       16       44 </v>
   <v type="int" >        4       10       15       43       44 </v>
   <v type="int" >        4       10       11       39       44 </v>
   <v type="int" >        4       10       38       39       44 </v>
   <v type="int" >        4       10       38       43       44 </v>
   <v type="int" >        4        4        5       11       39 </v>
   <v type="int" >        4        4       10       11       39 </v>
   <v type="int" >        4        4       10       38       39 </v>
   <v type="int" >        4        4        5       33       39 </v>
   <v type="int" >        4        4       32       33       39 </v>
   <v type="int" >        4        4       32       38       39 </v>
   <v type="int" >        4       14       15       19       47 </v>
   <v type="int" >        4       14       15       43       47 </v>
   <v type="int" >        4       14       42       43       47 </v>
   <v type="int" >        4        9       10       15       43 </v>
   <v type="int" >        4        9       14       15       43 </v>
   <v type="int" >        4        9       14       42       43 </v>
   <v type="int" >        4        9       10       38       43 </v>
   <v type="int" >        4        9       37       38       43 </v>
   <v type="int" >        4        9       37       42       43 </v>
   <v type="int" >        4        3        4       10       38 </v>
   <v type="int" >        4        3        9       10       38 </v>
   <v type="int" >        4        3        9       37       38 </v>
   <v type="int" >        4        3        4       32       38 </v>
   <v type="int" >        4        3       31       32       38 </v>
   <v type="int" >        4        3       31       37       38 </v>
   <v type="int" >        4        8        9       14       42 </v>
   <v type="int" >        4        8        9       37       42 </v>
   <v type="int" >        4        8       36       37       42 </v>
   <v type="int" >        4        2        3        9       37 </v>
   <v type="int" >        4        2        8        9       37 </v>
   <v type="int" >        4        2        8       36       37 </v>
   <v type="int" >        4        2        3       31       37 </v>
   <v type="int" >        4        2       30       31       37 </v>
   <v type="int" >        4        2       30       36       37 </v>
   <v type="int" >        4        1        2        8       36 </v>
   <v type="int" >        4        1        2       30       36 </v>
   <v type="int" >        4        1       29       30       36 </v>
   <v type="int" >        4       29       30       36       57 </v>
   <v type="int" >        4       30       36       57       58 </v>
   <v type="int" >        4       36       57       58       64 </v>
   <v type="int" >        4       30       31       37       58 </v>
   <v type="int" >        4       30       36       37       58 </v>
   <v type="int" >        4       36       37       58       64 </v>
   <v type="int" >        4       31       37       58       59 </v>
   <v type="int" >        4       37       58       59       65 </v>
   <v type="int" >        4       37       58       64       65 </v>
   <v type="int" >        4       31       32       38       59 </v>
   <v type="int" >        4       31       37       38       59 </v>
   <v type="int" >        4       37       38       59       65 </v>
   <v type="int" >        4       32       38       59       60 </v>
   <v type="int" >        4       38       59       60       66 </v>
   <v type="int" >        4       38       59       65       66 </v>
   <v type="int" >        4       32       33       39       60 </v>
   <v type="int" >        4       32       38       39       60 </v>
   <v type="int" >        4       38       39       60       66 </v>
   <v type="int" >        4       33       39       60       61 </v>
   <v type="int" >        4       39       60       61       67 </v>
   <v type="int" >        4       39       60       66       67 </v>
   <v type="int" >        4       33       34       40       61 </v>
   <v type="int" >        4       33       39       40       61 </v>
   <v type="int" >        4       39       40       61       67 </v>
   <v type="int" >        4       34       40       61       62 </v>
   <v type="int" >        4       40       61       62       68 </v>
   <v type="int" >        4       40       61       67       68 </v>
   <v type="int" >        4       34       35       41       62 </v>
   <v type="int" >        4       34       40       41       62 </v>
   <v type="int" >        4       40       41       62       68 </v>
   <v type="int" >        4       35       41       62       63 </v>
   <v type="int" >        4       41       62       63       69 </v>
   <v type="int" >        4       41       62       68       69 </v>
   <v type="int" >        4       34       35       40       63 </v>
   <v type="int" >        4       35       40       41       63 </v>
   <v type="int" >        4       40       41       63       69 </v>
   <v type="int" >        4       34       40       62       63 </v>
   <v type="int" >        4       40       62       63       68 </v>
   <v type="int" >        4       40       63       68       69 </v>
   <v type="int" >        4       33       34       39       62 </v>
   <v type="int" >        4       34       39       40       62 </v>
   <v type="int" >        4       39       40       62       68 </v>
   <v type="int" >        4       33       39       61       62 </v>
   <v type="int" >        4       39       61       62       67 </v>
   <v type="int" >        4       39       62       67       68 </v>
   <v type="int" >        4       32       33       38       61 </v>
   <v type="int" >        4       33       38       39       61 </v>
   <v type="int" >        4       38       39       61       67 </v>
   <v type="int" >        4       32       38       60       61 </v>
   <v type="int" >        4       38       60       61       66 </v>
   <v type="int" >        4       38       61       66       67 </v>
   <v type="int" >        4       31       32       37       60 </v>
   <v type="int" >        4       32       37       38       60 </v>
   <v type="int" >        4       37       38       60       66 </v>
   <v type="int" >        4       31       37       59       60 </v>
   <v type="int" >        4       37       59       60       65 </v>
   <v type="int" >        4       37       60       65       66 </v>
   <v type="int" >        4       30       31       36       59 </v>
   <v type="int" >        4       31       36       37       59 </v>
   <v type="int" >        4       36       37       59       65 </v>
   <v type="int" >        4       30       36       58       59 </v>
   <v type="int" >        4       36       58       59       64 </v>
   <v type="int" >        4       36       59       64       65 </v>
   <v type="int" >        4       29       30       30       58 </v>
   <v type="int" >        4       30       30       36       58 </v>
   <v type="int" >        4       30       36       58       64 </v>
   <v type="int" >        4       29       30       57       58 </v>
   <v type="int" >        4       30       57       58       58 </v>
   <v type="int" >        4       30       58       58       64 </v>
   <v type="int" >        4       36       37       42       64 </v>
   <v type="int" >        4       37       42       64       65 </v>
   <v type="int" >        4       42       64       65       70 </v>
   <v type="int" >        4       37       38       43       65 </v>
   <v type="int" >        4       37       42       43       65 </v>
   <v type="int" >        4       42       43       65       70 </v>
   <v type="int" >        4       38       43       65       66 </v>
   <v type="int" >        4       43       65       66       71 </v>
   <v type="int" >        4       43       65       70       71 </v>
   <v type="int" >        4       38       39       44       66 </v>
   <v type="int" >        4       38       43       44       66 </v>
   <v type="int" >        4       43       44       66       71 </v>
   <v type="int" >        4       39       44       66       67 </v>
   <v type="int" >        4       44       66       67       72 </v>
   <v type="int" >        4       44       66       71       72 </v>
   <v type="int" >        4       39       40       45       67 </v>
   <v type="int" >        4       39       44       45       67 </v>
   <v type="int" >        4       44       45       67       72 </v>
   <v type="int" >        4       40       45       67       68 </v>
   <v type="int" >        4       45       67       68       73 </v>
   <v type="int" >        4       45       67       72       73 </v>
   <v type="int" >        4       40       41       46       68 </v>
   <v type="int" >        4       40       45       46       68 </v>
   <v type="int" >        4       45       46       68       73 </v>
   <v type="int" >        4       41       46       68       69 </v>
   <v type="int" >        4       46       68       69       74 </v>
   <v type="int" >        4       46       68       73       74 </v>
   <v type="int" >        4       40       41       45       69 </v>
   <v type="int" >        4       41       45       46       69 </v>
   <v type="int" >        4       45       46       69       74 </v>
   <v type="int" >        4       40       45       68       69 </v>
   <v type="int" >        4       45       68       69       73 </v>
   <v type="int" >        4       45       69       73       74 </v>
   <v type="int" >        4       39       40       44       68 </v>
   <v type="int" >        4       40       44       45       68 </v>
   <v type="int" >        4       44       45       68       73 </v>
   <v type="int" >        4       39       44       67       68 </v>
   <v type="int" >        4       44       67       68       72 </v>
   <v type="int" >        4       44       68       72       73 </v>
   <v type="int" >        4       38       39       43       67 </v>
   <v type="int" >        4       39       43       44       67 </v>
   <v type="int" >        4       43       44       67       72 </v>
   <v type="int" >        4       38       43       66       67 </v>
   <v type="int" >        4       43       66       67       71 </v>
   <v type="int" >        4       43       67       71       72 </v>
   <v type="int" >        4       37       38       42       66 </v>
   <v type="int" >        4       38       42       43       66 </v>
   <v type="int" >        4       42       43       66       71 </v>
   <v type="int" >        4       37       42       65       66 </v>
   <v type="int" >        4       42       65       66       70 </v>
   <v type="int" >        4       42       66       70       71 </v>
   <v type="int" >        4       36       37       37       65 </v>
   <v type="int" >        4       37       37       42       65 </v>
   <v type="int" >        4       37       42       65       70 </v>
   <v type="int" >        4       36       37       64       65 </v>
   <v type="int" >        4       37       64       65       65 </v>
   <v type="int" >        4       37       65       65       70 </v>
   <v type="int" >        4       30       31       36       64 </v>
   <v type="int" >        4       31       36       37       64 </v>
   <v type="int" >        4       31       37       64       65 </v>
   <v type="int" >        4       30       31       58       64 </v>
   <v type="int" >        4       31       58       59       64 </v>
   <v type="int" >        4       31       59       64       65 </v>
   <v type="int" >        4       42       43       47       70 </v>
   <v type="int" >        4       43       47       70       71 </v>
   <v type="int" >        4       47       70       71       75 </v>
   <v type="int" >        4       43       44       48       71 </v>
   <v type="int" >        4       43       47       48       71 </v>
   <v type="int" >        4       47       48       71       75 </v>
   <v type="int" >        4       44       48       71       72 </v>
   <v type="int" >        4       48       71       72       76 </v>
   <v type="int" >        4       48       71       75       76 </v>
   <v type="int" >        4       44       45       49       72 </v>
   <v type="int" >        4       44       48       49       72 </v>
   <v type="int" >        4       48       49       72       76 </v>
   <v type="int" >        4       45       49       72       73 </v>
   <v type="int" >        4       49       72       73       77 </v>
   <v type="int" >        4       49       72       76       77 </v>
   <v type="int" >        4       45       46       50       73 </v>
   <v type="int" >        4       45       49       50       73 </v>
   <v type="int" >        4       49       50       73       77 </v>
   <v type="int" >        4       46       50       73       74 </v>
   <v type="int" >        4       50       73       74       78 </v>
   <v type="int" >        4       50       73       77       78 </v>
   <v type="int" >        4       45       46       49       74 </v>
   <v type="int" >        4       46       49       50       74 </v>
   <v type="int" >        4       49       50       74       78 </v>
   <v type="int" >        4       45       49       73       74 </v>
   <v type="int" >        4       49       73       74       77 </v>
   <v type="int" >        4       49       74       77       78 </v>
   <v type="int" >        4       44       45       48       73 </v>
   <v type="int" >        4       45       48       49       73 </v>
   <v type="int" >        4       48       49       73       77 </v>
   <v type="int" >        4       44       48       72       73 </v>
   <v type="int" >        4       48       72       73       76 </v>
   <v type="int" >        4       48       73       76       77 </v>
   <v type="int" >        4       43       44       47       72 </v>
   <v type="int" >        4       44       47       48       72 </v>
   <v type="int" >        4       47       48       72       76 </v>
   <v type="int" >        4       43       47       71       72 </v>
   <v type="int" >        4       47       71       72       75 </v>
   <v type="int" >        4       47       72       75       76 </v>
   <v type="int" >        4       42       43       43       71 </v>
   <v type="int" >        4       43       43       47       71 </v>
   <v type="int" >        4       43       47       71       75 </v>
   <v type="int" >        4       42       43       70       71 </v>
   <v type="int" >        4       43       70       71       71 </v>
   <v type="int" >        4       43       71       71       75 </v>
   <v type="int" >        4       37       38       42       70 </v>
   <v type="int" >        4       38       42       43       70 </v>
   <v type="int" >        4       38       43       70       71 </v>
   <v type="int" >        4       37       38       65       70 </v>
   <v type="int" >        4       38       65       66       70 </v>
   <v type="int" >        4       38       66       70       71 </v>
   <v type="int" >        4       31       32       37       65 </v>
   <v type="int" >        4       32       37       38       65 </v>
   <v type="int" >        4       32       38       65       66 </v>
   <v type="int" >        4       31       32       59       65 </v>
   <v type="int" >        4       32       59       60       65 </v>
   <v type="int" >        4       32       60       65       66 </v>
   <v type="int" >        4       47       48       51       75 </v>
   <v type="int" >        4       48       51       75       76 </v>
   <v type="int" >        4       51       75       76       79 </v>
   <v type="int" >        4       48       49       52       76 </v>
   <v type="int" >        4       48       51       52       76 </v>
   <v type="int" >        4       51       52       76       79 </v>
   <v type="int" >        4       49       52       76       77 </v>
   <v type="int" >        4       52       76       77       80 </v>
   <v type="int" >        4       52       76       79       80 </v>
   <v type="int" >        4       49       50       53       77 </v>
   <v type="int" >        4       49       52       53       77 </v>
   <v type="int" >        4       52       53       77       80 </v>
   <v type="int" >        4       50       53       77       78 </v>
   <v type="int" >        4       53       77       78       81 </v>
   <v type="int" >        4       53       77       80       81 </v>
   <v type="int" >        4       49       50       52       78 </v>
   <v type="int" >        4       50       52       53       78 </v>
   <v type="int" >        4       52       53       78       81 </v>
   <v type="int" >        4       49       52       77       78 </v>
   <v type="int" >        4       52       77       78       80 </v>
   <v type="int" >        4       52       78       80       81 </v>
   <v type="int" >        4       48       49       51       77 </v>
   <v type="int" >        4       49       51       52       77 </v>
   <v type="int" >        4       51       52       77       80 </v>
   <v type="int" >        4       48       51       76       77 </v>
   <v type="int" >        4       51       76       77       79 </v>
   <v type="int" >        4       51       77       79       80 </v>
   <v type="int" >        4       47       48       48       76 </v>
   <v type="int" >        4       48       48       51       76 </v>
   <v type="int" >        4       48       51       76       79 </v>
   <v type="int" >        4       47       48       75       76 </v>
   <v type="int" >        4       48       75       76       76 </v>
   <v type="int" >        4       48       76       76       79 </v>
   <v type="int" >        4       43       44       47       75 </v>
   <v type="int" >        4       44       47       48       75 </v>
   <v type="int" >        4       44       48       75       76 </v>
   <v type="int" >        4       43       44       71       75 </v>
   <v type="int" >        4       44       71       72       75 </v>
   <v type="int" >        4       44       72       75       76 </v>
   <v type="int" >        4       38       39       43       71 </v>
   <v type="int" >        4       39       43       44       71 </v>
   <v type="int" >        4       39       44       71       72 </v>
   <v type="int" >        4       38       39       66       71 </v>
   <v type="int" >        4       39       66       67       71 </v>
   <v type="int" >        4       39       67       71       72 </v>
   <v type="int" >        4       32       33       38       66 </v>
   <v type="int" >        4       33       38       39       66 </v>
   <v type="int" >        4       33       39       66       67 </v>
   <v type="int" >        4       32       33       60       66 </v>
   <v type="int" >        4       33       60       61       66 </v>
   <v type="int" >        4       33       61       66       67 </v>
   <v type="int" >        4       51       52       54       79 </v>
   <v type="int" >        4       52       54       79       80 </v>
   <v type="int" >        4       54       79       80       82 </v>
   <v type="int" >        4       52       53       55       80 </v>
   <v type="int" >        4       52       54       55       80 </v>
   <v type="int" >        4       54       55       80       82 </v>
   <v type="int" >        4       53       55       80       81 </v>
   <v type="int" >        4       55       80       81       83 </v>
   <v type="int" >        4       55       80       82       83 </v>
   <v type="int" >        4       52       53       54       81 </v>
   <v type="int" >        4       53       54       55       81 </v>
   <v type="int" >        4       54       55       81       83 </v>
   <v type="int" >        4       52       54       80       81 </v>
   <v type="int" >        4       54       80       81       82 </v>
   <v type="int" >        4       54       81       82       83 </v>
   <v type="int" >        4       51       52       52       80 </v>
   <v type="int" >        4       52       52       54       80 </v>
   <v type="int" >        4       52       54       80       82 </v>
   <v type="int" >        4       51       52       79       80 </v>
   <v type="int" >        4       52       79       80       80 </v>
   <v type="int" >        4       52       80       80       82 </v>
   <v type="int" >        4       48       49       51       79 </v>
   <v type="int" >        4       49       51       52       79 </v>
   <v type="int" >        4       49       52       79       80 </v>
   <v type="int" >        4       48       49       76       79 </v>
   <v type="int" >        4       49       76       77       79 </v>
   <v type="int" >        4       49       77       79       80 </v>
   <v type="int" >        4       44       45       48       76 </v>
   <v type="int" >        4       45       48       49       76 </v>
   <v type="int" >        4       45       49       76       77 </v>
   <v type="int" >        4       44       45       72       76 </v>
   <v type="int" >        4       45       72       73       76 </v>
   <v type="int" >        4       45       73       76       77 </v>
   <v type="int" >        4       39       40       44       72 </v>
   <v type="int" >        4       40       44       45       72 </v>
   <v type="int" >        4       40       45       72       73 </v>
   <v type="int" >        4       39       40       67       72 </v>
   <v type="int" >        4       40       67       68       72 </v>
   <v type="int" >        4       40       68       72       73 </v>
   <v type="int" >        4       33       34       39       67 </v>
   <v type="int" >        4       34       39       40       67 </v>
   <v type="int" >        4       34       40       67       68 </v>
   <v type="int" >        4       33       34       61       67 </v>
   <v type="int" >        4       34       61       62       67 </v>
   <v type="int" >        4       34       62       67       68 </v>
   <v type="int" >        4       54       55       56       82 </v>
   <v type="int" >        4       55       56       82       83 </v>
   <v type="int" >        4       56       82       83       84 </v>
   <v type="int" >        4       54       55       55       83 </v>
   <v type="int" >        4       55       55       56       83 </v>
   <v type="int" >        4       55       56       83       84 </v>
   <v type="int" >        4       54       55       82       83 </v>
   <v type="int" >        4       55       82       83       83 </v>
   <v type="int" >        4       55       83       83       84 </v>
   <v type="int" >        4       52       53       54       82 </v>
   <v type="int" >        4       53       54       55       82 </v>
   <v type="int" >        4       53       55       82       83 </v>
   <v type="int" >        4       52       53       80       82 </v>
   <v type="int" >        4       53       80       81       82 </v>
   <v type="int" >        4       53       81       82       83 </v>
   <v type="int" >        4       49       50       52       80 </v>
   <v type="int" >        4       50       52       53       80 </v>
   <v type="int" >        4       50       53       80       81 </v>
   <v type="int" >        4       49       50       77       80 </v>
   <v type="int" >        4       50       77       78       80 </v>
   <v type="int" >        4       50       78       80       81 </v>
   <v type="int" >        4       45       46       49       77 </v>
   <v type="int" >        4       46       49       50       77 </v>
   <v type="int" >        4       46       50       77       78 </v>
   <v type="int" >        4       45       46       73       77 </v>
   <v type="int" >        4       46       73       74       77 </v>
   <v type="int" >        4       46       74       77       78 </v>
   <v type="int" >        4       40       41       45       73 </v>
   <v type="int" >        4       41       45       46       73 </v>
   <v type="int" >        4       41       46       73       74 </v>
   <v type="int" >        4       40       41       68       73 </v>
   <v type="int" >        4       41       68       69       73 </v>
   <v type="int" >        4       41       69       73       74 </v>
   <v type="int" >        4       34       35       40       68 </v>
   <v type="int" >        4       35       40       41       68 </v>
   <v type="int" >        4       35       41       68       69 </v>
   <v type="int" >        4       34       35       62       68 </v>
   <v type="int" >        4       35       62       63       68 </v>
   <v type="int" >        4       35       63       68       69 </v>
   <v type="int" >        4       54       55       56       84 </v>
   <v type="int" >        4       54       55       83       84 </v>
   <v type="int" >        4       54       82       83       84 </v>
   <v type="int" >        4       52       53       55       83 </v>
   <v type="int" >        4       52       54       55       83 </v>
   <v type="int" >        4       52       54       82       83 </v>
   <v type="int" >        4       52       53       81       83 </v>
   <v type="int" >        4       52       80       81       83 </v>
   <v type="int" >        4       52       80       82       83 </v>
   <v type="int" >        4       49       50       53       81 </v>
   <v type="int" >        4       49       52       53       81 </v>
   <v type="int" >        4       49       52       80       81 </v>
   <v type="int" >        4       49       50       78       81 </v>
   <v type="int" >        4       49       77       78       81 </v>
   <v type="int" >        4       49       77       80       81 </v>
   <v type="int" >        4       45       46       50       78 </v>
   <v type="int" >        4       45       49       50       78 </v>
   <v type="int" >        4       45       49       77       78 </v>
   <v type="int" >        4       45       46       74       78 </v>
   <v type="int" >        4       45       73       74       78 </v>
   <v type="int" >        4       45       73       77       78 </v>
   <v type="int" >        4       40       41       46       74 </v>
   <v type="int" >        4       40       45       46       74 </v>
   <v type="int" >        4       40       45       73       74 </v>
   <v type="int" >        4       40       41       69       74 </v>
   <v type="int" >        4       40       68       69       74 </v>
   <v type="int" >        4       40       68       73       74 </v>
   <v type="int" >        4       34       35       41       69 </v>
   <v type="int" >        4       34       40       41       69 </v>
   <v type="int" >        4       34       40       68       69 </v>
   <v type="int" >        4       34       35       63       69 </v>
   <v type="int" >        4       34       62       63       69 </v>
   <v type="int" >        4       34       62       68       69 </v>
   <v type="int" >        4       51       52       54       82 </v>
   <v type="int" >        4       51       52       80       82 </v>
   <v type="int" >        4       51       79       80       82 </v>
   <v type="int" >        4       48       49       52       80 </v>
   <v type="int" >        4       48       51       52       80 </v>
   <v type="int" >        4       48       51       79       80 </v>
   <v type="int" >        4       48       49       77       80 </v>
   <v type="int" >        4       48       76       77       80 </v>
   <v type="int" >        4       48       76       79       80 </v>
   <v type="int" >        4       44       45       49       77 </v>
   <v type="int" >        4       44       48       49       77 </v>
   <v type="int" >        4       44       48       76       77 </v>
   <v type="int" >        4       44       45       73       77 </v>
   <v type="int" >        4       44       72       73       77 </v>
   <v type="int" >        4       44       72       76       77 </v>
   <v type="int" >        4       39       40       45       73 </v>
   <v type="int" >        4       39       44       45       73 </v>
   <v type="int" >        4       39       44       72       73 </v>
   <v type="int" >        4       39       40       68       73 </v>
   <v type="int" >        4       39       67       68       73 </v>
   <v type="int" >        4       39       67       72       73 </v>
   <v type="int" >        4       33       34       40       68 </v>
   <v type="int" >        4       33       39       40       68 </v>
   <v type="int" >        4       33       39       67       68 </v>
   <v type="int" >        4       33       34       62       68 </v>
   <v type="int" >        4       33       61       62       68 </v>
   <v type="int" >        4       33       61       67       68 </v>
   <v type="int" >        4       47       48       51       79 </v>
   <v type="int" >        4       47       48       76       79 </v>
   <v type="int" >        4       47       75       76       79 </v>
   <v type="int" >        4       43       44       48       76 </v>
   <v type="int" >        4       43       47       48       76 </v>
   <v type="int" >        4       43       47       75       76 </v>
   <v type="int" >        4       43       44       72       76 </v>
   <v type="int" >        4       43       71       72       76 </v>
   <v type="int" >        4       43       71       75       76 </v>
   <v type="int" >        4       38       39       44       72 </v>
   <v type="int" >        4       38       43       44       72 </v>
   <v type="int" >        4       38       43       71       72 </v>
   <v type="int" >        4       38       39       67       72 </v>
   <v type="int" >        4       38       66       67       72 </v>
   <v type="int" >        4       38       66       71       72 </v>
   <v type="int" >        4       32       33       39       67 </v>
   <v type="int" >        4       32       38       39       67 </v>
   <v type="int" >        4       32       38       66       67 </v>
   <v type="int" >        4       32       33       61       67 </v>
   <v type="int" >        4       32       60       61       67 </v>
   <v type="int" >        4       32       60       66       67 </v>
   <v type="int" >        4       42       43       47       75 </v>
   <v type="int" >        4       42       43       71       75 </v>
   <v type="int" >        4       42       70       71       75 </v>
   <v type="int" >        4       37       38       43       71 </v>
   <v type="int" >        4       37       42       43       71 </v>
   <v type="int" >        4       37       42       70       71 </v>
   <v type="int" >        4       37       38       66       71 </v>
   <v type="int" >        4       37       65       66       71 </v>
   <v type="int" >        4       37       65       70       71 </v>
   <v type="int" >        4       31       32       38       66 </v>
   <v type="int" >        4       31       37       38       66 </v>
   <v type="int" >        4       31       37       65       66 </v>
   <v type="int" >        4       31       32       60       66 </v>
   <v type="int" >        4       31       59       60       66 </v>
   <v type="int" >        4       31       59       65       66 </v>
   <v type="int" >        4       36       37       42       70 </v>
   <v type="int" >        4       36       37       65       70 </v>
   <v type="int" >        4       36       64       65       70 </v>
   <v type="int" >        4       30       31       37       65 </v>
   <v type="int" >        4       30       36       37       65 </v>
   <v type="int" >        4       30       36       64       65 </v>
   <v type="int" >        4       30       31       59       65 </v>
   <v type="int" >        4       30       58       59       65 </v>
   <v type="int" >        4       30       58       64       65 </v>
   <v type="int" >        4       29       30       36       64 </v>
   <v type="int" >        4       29       30       58       64 </v>
[...]
       <r>   -6.7496    1.0000 </r>
       <r>   -6.7496    1.0000 </r>
       <r>   -2.9782    1.0000 </r>
       <r>   -2.9782    1.0000 </r>
       <r>   -2.9782    1.0000 </r>
       <r>   -2.9782    1.0000 </r>
       <r>    5.3458    1.0000 </r>
       <r>    5.3458    1.0000 </r>
       <r>    5.3458    1.0000 </r>
       <r>    5.3458    1.0000 </r>
       <r>    6.3294    1.0000 </r>
       <r>    6.3294    1.0000 </r>
       <r>    6.3294    1.0000 </r>
       <r>    6.3294    1.0000 </r>
       <r>   17.0106    0.0000 </r>
       <r>   17.0106    0.0000 </r>
       <r>   17.0106    0.0000 </r>
       <r>   17.0107    0.0000 </r>
       <r>   17.3364    0.0000 </r>
       <r>   17.3364    0.0000 </r>
       <r>   17.3367    0.0000 </r>
       <r>   17.3382    0.0000 </r>
      </set>
      <set comment="kpoint 194">
       <r>   -6.8599    1.0000 </r>
       <r>   -6.8599    1.0000 </r>
       <r>   -6.2267    1.0000 </r>
       <r>   -6.2267    1.0000 </r>
       <r>   -3.7063    1.0000 </r>
       <r>   -3.7063    1.0000 </r>
       <r>   -3.0832    1.0000 </r>
       <r>   -3.0832    1.0000 </r>
       <r>    5.5771    1.0000 </r>
       <r>    5.5771    1.0000 </r>
       <r>    6.0175    1.0000 </r>
       <r>    6.0175    1.0000 </r>
       <r>    6.2166    1.0000 </r>
       <r>    6.2166    1.0000 </r>
       <r>    6.3905    1.0000 </r>
       <r>    6.3905    1.0000 </r>
       <r>   16.6406    0.0000 </r>
       <r>   16.6406    0.0000 </r>
       <r>   17.0186    0.0000 </r>
       <r>   17.0186    0.0000 </r>
       <r>   17.2908    0.0000 </r>
       <r>   17.2909    0.0000 </r>
       <r>   17.3748    0.0000 </r>
       <r>   17.3749    0.0000 </r>
      </set>
      <set comment="kpoint 195">
       <r>   -6.4652    1.0000 </r>
       <r>   -6.4652    1.0000 </r>
       <r>   -6.4652    1.0000 </r>
       <r>   -6.4652    1.0000 </r>
       <r>   -3.5784    1.0000 </r>
       <r>   -3.5784    1.0000 </r>
       <r>   -3.5784    1.0000 </r>
       <r>   -3.5784    1.0000 </r>
       <r>    5.9281    1.0000 </r>
       <r>    5.9281    1.0000 </r>
       <r>    5.9281    1.0000 </r>
       <r>    5.9281    1.0000 </r>
       <r>    6.3927    1.0000 </r>
       <r>    6.3927    1.0000 </r>
       <r>    6.3927    1.0000 </r>
       <r>    6.3927    1.0000 </r>
       <r>   16.8888    0.0000 </r>
       <r>   16.8888    0.0000 </r>
       <r>   16.8888    0.0000 </r>
       <r>   16.8888    0.0000 </r>
       <r>   17.1113    0.0000 </r>
       <r>   17.1113    0.0000 </r>
       <r>   17.1113    0.0000 </r>
       <r>   17.1113    0.0000 </r>
      </set>
      <set comment="kpoint 196">
       <r>   -6.3348    1.0000 </r>
       <r>   -6.3348    1.0000 </r>
       <r>   -6.3348    1.0000 </r>
       <r>   -6.3348    1.0000 </r>
       <r>   -3.8149    1.0000 </r>
       <r>   -3.8149    1.0000 </r>
       <r>   -3.8149    1.0000 </r>
       <r>   -3.8149    1.0000 </r>
       <r>    6.1112    1.0000 </r>
       <r>    6.1112    1.0000 </r>
       <r>    6.1112    1.0000 </r>
       <r>    6.1112    1.0000 </r>
       <r>    6.4388    1.0000 </r>
       <r>    6.4388    1.0000 </r>
       <r>    6.4388    1.0000 </r>
       <r>    6.4388    1.0000 </r>
       <r>   16.7452    0.0000 </r>
       <r>   16.7452    0.0000 </r>
       <r>   16.7452    0.0000 </r>
       <r>   16.7452    0.0000 </r>
       <r>   17.0777    0.0000 </r>
       <r>   17.0777    0.0000 </r>
       <r>   17.0777    0.0000 </r>
       <r>   17.0777    0.0000 </r>
      </set>
     </set>
    </set>
   </array>
  </eigenvalues>
  <separator name="orbital magnetization" >
   <v name="MAGDIPOLOUT">      0.00000000      0.00000000      0.00000000</v>
  </separator>
  <dos>
   <i name="efermi">      9.23410714 </i>
   <total>
    <array>
     <dimension dim="1">gridpoints</dimension>
     <dimension dim="2">spin</dimension>
     <field>energy</field>
     <field>total</field>
     <field>integrated</field>
     <set>
      <set comment="spin 1">
       <r>   -13.3875     0.0000     0.0000 </r>
       <r>   -13.2697     0.0000     0.0000 </r>
       <r>   -13.1519     0.0000     0.0000 </r>
       <r>   -13.0341     0.0000     0.0000 </r>
       <r>   -12.9163     0.0000     0.0000 </r>
       <r>   -12.7985     0.0000     0.0000 </r>
       <r>   -12.6807     0.0000     0.0000 </r>
       <r>   -12.5629     0.0000     0.0000 </r>
       <r>   -12.4451     0.0000     0.0000 </r>
       <r>   -12.3273     0.0000     0.0000 </r>
       <r>   -12.2095     0.0000     0.0000 </r>
       <r>   -12.0917     0.0000     0.0000 </r>
       <r>   -11.9739     0.0000     0.0000 </r>
       <r>   -11.8561     0.0000     0.0000 </r>
       <r>   -11.7383     0.0364     0.0005 </r>
       <r>   -11.6205     0.1600     0.0150 </r>
       <r>   -11.5027     0.2507     0.0392 </r>
       <r>   -11.3849     0.2838     0.0704 </r>
       <r>   -11.2671     0.3333     0.1067 </r>
       <r>   -11.1493     0.3746     0.1489 </r>
       <r>   -11.0315     0.4052     0.1948 </r>
       <r>   -10.9137     0.4378     0.2443 </r>
       <r>   -10.7959     0.4777     0.2982 </r>
       <r>   -10.6781     0.5015     0.3560 </r>
       <r>   -10.5603     0.5259     0.4166 </r>
       <r>   -10.4425     0.5533     0.4801 </r>
       <r>   -10.3247     0.5830     0.5470 </r>
       <r>   -10.2069     0.6101     0.6174 </r>
       <r>   -10.0891     0.6309     0.6904 </r>
       <r>    -9.9713     0.6521     0.7660 </r>
       <r>    -9.8535     0.6751     0.8442 </r>
       <r>    -9.7356     0.6991     0.9251 </r>
       <r>    -9.6178     0.7249     1.0089 </r>
       <r>    -9.5000     0.7466     1.0957 </r>
       <r>    -9.3822     0.7653     1.1847 </r>
       <r>    -9.2644     0.7844     1.2760 </r>
       <r>    -9.1466     0.8057     1.3696 </r>
       <r>    -9.0288     0.8276     1.4658 </r>
       <r>    -8.9110     0.8506     1.5647 </r>
       <r>    -8.7932     0.8729     1.6662 </r>
       <r>    -8.6754     0.8921     1.7702 </r>
       <r>    -8.5576     0.9109     1.8764 </r>
       <r>    -8.4398     0.9313     1.9849 </r>
       <r>    -8.3220     0.9523     2.0958 </r>
       <r>    -8.2042     0.9739     2.2092 </r>
       <r>    -8.0864     1.0209     2.3262 </r>
       <r>    -7.9686     1.0700     2.4500 </r>
       <r>    -7.8508     1.1145     2.5784 </r>
       <r>    -7.7330     1.1455     2.7122 </r>
       <r>    -7.6152     1.1371     2.8470 </r>
       <r>    -7.4974     1.1063     2.9792 </r>
       <r>    -7.3796     1.0992     3.1088 </r>
       <r>    -7.2618     1.1249     3.2399 </r>
       <r>    -7.1440     1.1321     3.3729 </r>
       <r>    -7.0262     1.1395     3.5064 </r>
       <r>    -6.9084     1.1885     3.6433 </r>
       <r>    -6.7906     1.2541     3.7874 </r>
       <r>    -6.6728     1.3315     3.9398 </r>
       <r>    -6.5550     1.4388     4.1031 </r>
       <r>    -6.4372     1.5311     4.2763 </r>
       <r>    -6.3194     1.6736     4.4673 </r>
       <r>    -6.2016     1.6023     4.6651 </r>
       <r>    -6.0838     1.6398     4.8570 </r>
       <r>    -5.9660     1.5612     5.0483 </r>
       <r>    -5.8482     1.4766     5.2253 </r>
       <r>    -5.7304     1.4793     5.3992 </r>
       <r>    -5.6126     1.4622     5.5735 </r>
       <r>    -5.4948     1.4070     5.7429 </r>
       <r>    -5.3770     1.3770     5.9099 </r>
       <r>    -5.2592     1.2742     6.0654 </r>
       <r>    -5.1414     1.2764     6.2154 </r>
       <r>    -5.0236     1.2372     6.3629 </r>
       <r>    -4.9058     1.2558     6.5100 </r>
       <r>    -4.7880     1.1357     6.6496 </r>
       <r>    -4.6702     1.1040     6.7834 </r>
       <r>    -4.5524     1.1243     6.9148 </r>
       <r>    -4.4346     1.0532     7.0412 </r>
       <r>    -4.3168     1.0155     7.1627 </r>
       <r>    -4.1990     1.0122     7.2824 </r>
       <r>    -4.0812     0.9809     7.4012 </r>
       <r>    -3.9634     0.9039     7.5128 </r>
       <r>    -3.8456     0.8118     7.6139 </r>
       <r>    -3.7278     0.7569     7.7053 </r>
       <r>    -3.6100     0.9012     7.8047 </r>
       <r>    -3.4922     0.8836     7.9076 </r>
       <r>    -3.3744     0.9042     8.0177 </r>
       <r>    -3.2566     0.8572     8.1194 </r>
       <r>    -3.1388     0.8387     8.2196 </r>
       <r>    -3.0210     0.9495     8.3274 </r>
       <r>    -2.9031     1.0044     8.4430 </r>
       <r>    -2.7853     1.1189     8.5670 </r>
       <r>    -2.6675     1.3031     8.7087 </r>
       <r>    -2.5497     1.5733     8.8794 </r>
       <r>    -2.4319     1.8324     9.0789 </r>
       <r>    -2.3141     2.1944     9.3152 </r>
       <r>    -2.1963     2.9043     9.6129 </r>
       <r>    -2.0785     3.2740     9.9934 </r>
       <r>    -1.9607     2.5287    10.3348 </r>
       <r>    -1.8429     2.0596    10.6042 </r>
       <r>    -1.7251     1.8415    10.8319 </r>
       <r>    -1.6073     1.7088    11.0407 </r>
       <r>    -1.4895     1.6019    11.2355 </r>
       <r>    -1.3717     1.5205    11.4191 </r>
       <r>    -1.2539     1.4754    11.5950 </r>
       <r>    -1.1361     1.4475    11.7673 </r>
       <r>    -1.0183     1.4098    11.9356 </r>
       <r>    -0.9005     1.3937    12.1004 </r>
       <r>    -0.7827     1.2216    12.2485 </r>
       <r>    -0.6649     1.1779    12.3897 </r>
       <r>    -0.5471     1.1278    12.5250 </r>
       <r>    -0.4293     1.1087    12.6567 </r>
       <r>    -0.3115     1.0910    12.7863 </r>
       <r>    -0.1937     1.0641    12.9135 </r>
       <r>    -0.0759     0.9894    13.0350 </r>
       <r>     0.0419     1.0404    13.1521 </r>
       <r>     0.1597     1.2323    13.2855 </r>
       <r>     0.2775     1.4383    13.4430 </r>
       <r>     0.3953     1.6360    13.6259 </r>
       <r>     0.5131     1.8258    13.8280 </r>
       <r>     0.6309     2.2665    14.0652 </r>
       <r>     0.7487     2.4090    14.3467 </r>
       <r>     0.8665     2.3154    14.6237 </r>
       <r>     0.9843     2.4435    14.9024 </r>
       <r>     1.1021     2.3142    15.1876 </r>
       <r>     1.2199     1.9981    15.4408 </r>
       <r>     1.3377     1.4521    15.6407 </r>
       <r>     1.4555     1.5623    15.8129 </r>
       <r>     1.5733     1.8800    16.0170 </r>
       <r>     1.6911     2.2253    16.2584 </r>
       <r>     1.8089     2.3243    16.5248 </r>
       <r>     1.9267     2.4940    16.8092 </r>
       <r>     2.0445     2.4886    17.1031 </r>
       <r>     2.1623     2.4070    17.3910 </r>
       <r>     2.2801     2.3712    17.6716 </r>
       <r>     2.3979     2.5054    17.9563 </r>
       <r>     2.5157     2.8908    18.2726 </r>
       <r>     2.6335     3.3268    18.6434 </r>
       <r>     2.7513     2.9132    19.0325 </r>
       <r>     2.8691     2.4578    19.3524 </r>
       <r>     2.9869     2.5928    19.6568 </r>
       <r>     3.1047     2.7158    19.9635 </r>
       <r>     3.2225     3.0806    20.3089 </r>
       <r>     3.3403     3.5155    20.6895 </r>
       <r>     3.4581     4.0735    21.1365 </r>
       <r>     3.5759     3.6616    21.6108 </r>
       <r>     3.6937     3.2389    22.0183 </r>
       <r>     3.8115     2.8165    22.3716 </r>
       <r>     3.9293     2.7120    22.6947 </r>
       <r>     4.0472     2.9351    23.0230 </r>
       <r>     4.1650     3.1819    23.3864 </r>
       <r>     4.2828     3.0118    23.7310 </r>
       <r>     4.4006     3.1642    24.1017 </r>
       <r>     4.5184     3.0715    24.4664 </r>
       <r>     4.6362     3.1028    24.8302 </r>
       <r>     4.7540     3.1900    25.2004 </r>
       <r>     4.8718     3.1830    25.5799 </r>
       <r>     4.9896     2.8364    25.9375 </r>
       <r>     5.1074     2.5849    26.2539 </r>
       <r>     5.2252     2.5192    26.5529 </r>
       <r>     5.3430     2.5681    26.8518 </r>
       <r>     5.4608     2.7547    27.1676 </r>
       <r>     5.5786     2.8287    27.4977 </r>
       <r>     5.6964     2.9213    27.8420 </r>
       <r>     5.8142     2.7789    28.1777 </r>
       <r>     5.9320     2.7279    28.5021 </r>
       <r>     6.0498     2.6296    28.8190 </r>
       <r>     6.1676     2.6497    29.1303 </r>
       <r>     6.2854     2.4633    29.4251 </r>
       <r>     6.4032     2.4034    29.7286 </r>
       <r>     6.5210     1.8335    29.9664 </r>
       <r>     6.6388     1.6648    30.1723 </r>
       <r>     6.7566     1.5341    30.3607 </r>
       <r>     6.8744     1.4237    30.5350 </r>
       <r>     6.9922     1.3211    30.6963 </r>
       <r>     7.1100     1.2368    30.8472 </r>
       <r>     7.2278     1.1245    30.9867 </r>
       <r>     7.3456     1.0301    31.1132 </r>
       <r>     7.4634     0.9573    31.2304 </r>
       <r>     7.5812     0.8912    31.3390 </r>
       <r>     7.6990     0.8173    31.4392 </r>
       <r>     7.8168     0.7590    31.5328 </r>
       <r>     7.9346     0.6638    31.6163 </r>
       <r>     8.0524     0.6175    31.6916 </r>
       <r>     8.1702     0.5406    31.7605 </r>
       <r>     8.2880     0.4884    31.8215 </r>
       <r>     8.4058     0.3885    31.8725 </r>
       <r>     8.5236     0.3509    31.9168 </r>
       <r>     8.6414     0.2855    31.9544 </r>
       <r>     8.7592     0.1345    31.9789 </r>
       <r>     8.8770     0.0919    31.9917 </r>
       <r>     8.9948     0.0208    31.9990 </r>
       <r>     9.1126     0.0008    32.0000 </r>
       <r>     9.2304     0.0000    32.0000 </r>
       <r>     9.3482     0.0000    32.0000 </r>
       <r>     9.4660     0.0000    32.0000 </r>
       <r>     9.5838     0.0000    32.0000 </r>
       <r>     9.7016     0.0000    32.0000 </r>
       <r>     9.8194     0.0000    32.0000 </r>
       <r>     9.9372     0.0000    32.0000 </r>
       <r>    10.0550     0.0000    32.0000 </r>
       <r>    10.1728     0.0000    32.0000 </r>
       <r>    10.2906     0.0000    32.0000 </r>
       <r>    10.4084     0.0000    32.0000 </r>
       <r>    10.5262     0.0000    32.0000 </r>
       <r>    10.6440     0.0000    32.0000 </r>
       <r>    10.7618     0.0000    32.0000 </r>
       <r>    10.8796     0.0000    32.0000 </r>
       <r>    10.9975     0.0000    32.0000 </r>
       <r>    11.1153     0.0000    32.0000 </r>
       <r>    11.2331     0.0000    32.0000 </r>
       <r>    11.3509     0.0000    32.0000 </r>
       <r>    11.4687     0.0000    32.0000 </r>
       <r>    11.5865     0.0000    32.0000 </r>
       <r>    11.7043     0.0000    32.0000 </r>
       <r>    11.8221     0.0000    32.0000 </r>
       <r>    11.9399     0.0000    32.0000 </r>
       <r>    12.0577     0.0000    32.0000 </r>
       <r>    12.1755     0.0000    32.0000 </r>
       <r>    12.2933     0.0000    32.0000 </r>
       <r>    12.4111     0.0000    32.0000 </r>
       <r>    12.5289     0.0000    32.0000 </r>
       <r>    12.6467     0.0004    32.0000 </r>
       <r>    12.7645     0.0367    32.0018 </r>
       <r>    12.8823     0.1004    32.0097 </r>
       <r>    13.0001     0.1634    32.0259 </r>
       <r>    13.1179     0.1967    32.0467 </r>
       <r>    13.2357     0.3611    32.0779 </r>
       <r>    13.3535     0.5669    32.1336 </r>
       <r>    13.4713     0.6477    32.2062 </r>
       <r>    13.5891     0.7291    32.2850 </r>
       <r>    13.7069     0.9528    32.3849 </r>
       <r>    13.8247     0.9616    32.4927 </r>
       <r>    13.9425     1.1048    32.6139 </r>
       <r>    14.0603     1.2971    32.7562 </r>
       <r>    14.1781     1.6788    32.9463 </r>
       <r>    14.2959     1.6162    33.1366 </r>
       <r>    14.4137     1.6399    33.3281 </r>
       <r>    14.5315     1.6885    33.5231 </r>
       <r>    14.6493     1.8465    33.7335 </r>
       <r>    14.7671     1.9034    33.9534 </r>
       <r>    14.8849     2.0268    34.1836 </r>
       <r>    15.0027     2.2405    34.4373 </r>
       <r>    15.1205     2.2332    34.7017 </r>
       <r>    15.2383     2.2393    34.9648 </r>
       <r>    15.3561     2.3059    35.2322 </r>
       <r>    15.4739     2.3192    35.5044 </r>
       <r>    15.5917     2.4087    35.7815 </r>
       <r>    15.7095     2.5709    36.0743 </r>
       <r>    15.8273     2.6999    36.3848 </r>
       <r>    15.9451     2.8530    36.7124 </r>
       <r>    16.0629     2.9516    37.0565 </r>
       <r>    16.1807     3.1333    37.4132 </r>
       <r>    16.2985     3.3088    37.7964 </r>
       <r>    16.4163     3.4571    38.1933 </r>
       <r>    16.5341     3.9273    38.6193 </r>
       <r>    16.6519     4.5764    39.1266 </r>
       <r>    16.7697     5.1323    39.6936 </r>
       <r>    16.8875     5.0184    40.3029 </r>
       <r>    17.0053     3.8760    40.8338 </r>
       <r>    17.1231     3.6553    41.2674 </r>
       <r>    17.2409     3.6719    41.7026 </r>
       <r>    17.3587     4.2341    42.1576 </r>
       <r>    17.4765     4.0339    42.6524 </r>
       <r>    17.5943     3.7924    43.1174 </r>
       <r>    17.7121     3.6290    43.5532 </r>
       <r>    17.8300     3.2474    43.9596 </r>
       <r>    17.9478     3.0085    44.3264 </r>
       <r>    18.0656     2.8000    44.6687 </r>
       <r>    18.1834     2.6740    44.9905 </r>
       <r>    18.3012     2.7048    45.3067 </r>
       <r>    18.4190     2.7884    45.6301 </r>
       <r>    18.5368     2.9063    45.9659 </r>
       <r>    18.6546     2.8758    46.3058 </r>
       <r>    18.7724     2.7211    46.6359 </r>
       <r>    18.8902     2.5939    46.9495 </r>
       <r>    19.0080     2.4708    47.2529 </r>
       <r>    19.1258     1.8064    47.5032 </r>
       <r>    19.2436     1.2320    47.6809 </r>
       <r>    19.3614     0.8147    47.8008 </r>
       <r>    19.4792     0.5141    47.8782 </r>
       <r>    19.5970     0.3390    47.9272 </r>
       <r>    19.7148     0.2091    47.9593 </r>
       <r>    19.8326     0.1240    47.9782 </r>
       <r>    19.9504     0.0761    47.9899 </r>
       <r>    20.0682     0.0361    47.9967 </r>
       <r>    20.1860     0.0120    47.9994 </r>
       <r>    20.3038     0.0009    48.0000 </r>
       <r>    20.4216     0.0000    48.0000 </r>
       <r>    20.5394     0.0000    48.0000 </r>
       <r>    20.6572     0.0000    48.0000 </r>
       <r>    20.7750     0.0000    48.0000 </r>
       <r>    20.8928     0.0000    48.0000 </r>
       <r>    21.0106     0.0000    48.0000 </r>
       <r>    21.1284     0.0000    48.0000 </r>
       <r>    21.2462     0.0000    48.0000 </r>
       <r>    21.3640     0.0000    48.0000 </r>
       <r>    21.4818     0.0000    48.0000 </r>
       <r>    21.5996     0.0000    48.0000 </r>
       <r>    21.7174     0.0000    48.0000 </r>
       <r>    21.8352     0.0000    48.0000 </r>
       <r>    21.9530     0.0000    48.0000 </r>
      </set>
     </set>
    </array>
   </total>
  </dos>
 </calculation>
 <structure name="finalpos" >
  <crystal>
   <varray name="basis" >
    <v>       3.66109495       0.00000000       0.00000000 </v>
    <v>       0.00000000       3.66109495       0.00000000 </v>
    <v>       0.00000000       0.00000000       3.58999936 </v>
   </varray>
   <i name="volume">     48.11897368 </i>
   <varray name="rec_basis" >
    <v>       0.27314233       0.00000000       0.00000000 </v>
    <v>       0.00000000       0.27314233       0.00000000 </v>
    <v>       0.00000000       0.00000000       0.27855158 </v>
   </varray>
  </crystal>
  <varray name="positions" >
   <v>       0.25000000       0.75000000       0.25000000 </v>
   <v>       0.00000000       0.00000000       0.50000000 </v>
   <v>       0.25000000       0.25000000       0.75000000 </v>
   <v>       0.00000000       0.50000000       0.00000000 </v>
   <v>       0.75000000       0.75000000       0.75000000 </v>
   <v>       0.50000000       0.00000000       0.00000000 </v>
   <v>       0.75000000       0.25000000       0.25000000 </v>
   <v>       0.50000000       0.50000000       0.50000000 </v>
  </varray>
 </structure>
</modeling>
