       N       E                     dE             d eps       ncg     rms          rms(c)
DAV:   1     0.575752101597E+02    0.57575E+02   -0.14348E+04  4032   0.105E+03
DAV:   2    -0.709191869672E+02   -0.12849E+03   -0.12207E+03  5560   0.220E+02
DAV:   3    -0.750782102944E+02   -0.41590E+01   -0.41399E+01  5224   0.371E+01
DAV:   4    -0.751205270571E+02   -0.42317E-01   -0.42284E-01  5120   0.408E+00
DAV:   5    -0.751213559303E+02   -0.82887E-03   -0.82850E-03  5200   0.522E-01    0.928E+00
DAV:   6    -0.733333990559E+02    0.17880E+01   -0.11878E+00  4648   0.616E+00    0.510E+00
DAV:   7    -0.727290884130E+02    0.60431E+00   -0.13480E+00  4712   0.675E+00    0.691E-01
DAV:   8    -0.727363127658E+02   -0.72244E-02   -0.26706E-02  5120   0.946E-01    0.788E-02
DAV:   9    -0.727365284919E+02   -0.21573E-03   -0.42701E-04  4912   0.138E-01    0.281E-02
DAV:  10    -0.727365841870E+02   -0.55695E-04   -0.49110E-05  5072   0.529E-02    0.265E-03
DAV:  11    -0.727365847449E+02   -0.55794E-06   -0.10855E-06  3744   0.722E-03
   1 F= -.72736585E+02 E0= -.72736585E+02  d E =0.000000E+00
