  64  64   0   0
  0.5320849E+01  0.6886812E-09  0.6886812E-09  0.7179999E-09  0.5000000E-15
  1.000000000000000E-004
  CAR 
 unknown system                          
     24.37356687    -13.36387249  301     11.29911652      1.00000000
    -13.364  0.0000E+00  0.0000E+00
    -13.238  0.0000E+00  0.0000E+00
    -13.112  0.0000E+00  0.0000E+00
    -12.986  0.0000E+00  0.0000E+00
    -12.861  0.0000E+00  0.0000E+00
    -12.735  0.0000E+00  0.0000E+00
    -12.609  0.0000E+00  0.0000E+00
    -12.483  0.0000E+00  0.0000E+00
    -12.358  0.0000E+00  0.0000E+00
    -12.232  0.0000E+00  0.0000E+00
    -12.106  0.0000E+00  0.0000E+00
    -11.980  0.2002E-15  0.2519E-16
    -11.854  0.4508E-07  0.5671E-08
    -11.729  0.2298E-02  0.2891E-03
    -11.603  0.2139E+00  0.2719E-01
    -11.477  0.1162E+01  0.1734E+00
    -11.351  0.1290E+01  0.3356E+00
    -11.225  0.2714E+01  0.6770E+00
    -11.100  0.1397E+01  0.8528E+00
    -10.974  0.3304E+01  0.1268E+01
    -10.848  0.2779E+01  0.1618E+01
    -10.722  0.3386E+01  0.2044E+01
    -10.596  0.2609E+01  0.2372E+01
    -10.471  0.3794E+01  0.2849E+01
    -10.345  0.4468E+01  0.3411E+01
    -10.219  0.4249E+01  0.3946E+01
    -10.093  0.3006E+01  0.4324E+01
     -9.968  0.3887E+01  0.4813E+01
     -9.842  0.5721E+01  0.5533E+01
     -9.716  0.5125E+01  0.6177E+01
     -9.590  0.4741E+01  0.6774E+01
     -9.464  0.3413E+01  0.7203E+01
     -9.339  0.6341E+01  0.8001E+01
     -9.213  0.5438E+01  0.8685E+01
     -9.087  0.4909E+01  0.9302E+01
     -8.961  0.4938E+01  0.9923E+01
     -8.835  0.7949E+01  0.1092E+02
     -8.710  0.5767E+01  0.1165E+02
     -8.584  0.5233E+01  0.1231E+02
     -8.458  0.4735E+01  0.1290E+02
     -8.332  0.6514E+01  0.1372E+02
     -8.206  0.7956E+01  0.1472E+02
     -8.081  0.6551E+01  0.1555E+02
     -7.955  0.7977E+01  0.1655E+02
     -7.829  0.5260E+01  0.1721E+02
     -7.703  0.6738E+01  0.1806E+02
     -7.577  0.7442E+01  0.1900E+02
     -7.452  0.7404E+01  0.1993E+02
     -7.326  0.6897E+01  0.2079E+02
     -7.200  0.8593E+01  0.2188E+02
     -7.074  0.7498E+01  0.2282E+02
     -6.949  0.8619E+01  0.2390E+02
     -6.823  0.5668E+01  0.2462E+02
     -6.697  0.1122E+02  0.2603E+02
     -6.571  0.8389E+01  0.2708E+02
     -6.445  0.7104E+01  0.2798E+02
     -6.320  0.7110E+01  0.2887E+02
     -6.194  0.8577E+01  0.2995E+02
     -6.068  0.1090E+02  0.3132E+02
     -5.942  0.1052E+02  0.3264E+02
     -5.816  0.1028E+02  0.3394E+02
     -5.691  0.8730E+01  0.3504E+02
     -5.565  0.1043E+02  0.3635E+02
     -5.439  0.1018E+02  0.3763E+02
     -5.313  0.1103E+02  0.3901E+02
     -5.187  0.1124E+02  0.4043E+02
     -5.062  0.1369E+02  0.4215E+02
     -4.936  0.9617E+01  0.4336E+02
     -4.810  0.8433E+01  0.4442E+02
     -4.684  0.1025E+02  0.4571E+02
     -4.558  0.1158E+02  0.4717E+02
     -4.433  0.1233E+02  0.4872E+02
     -4.307  0.7103E+01  0.4961E+02
     -4.181  0.7339E+01  0.5053E+02
     -4.055  0.9628E+01  0.5174E+02
     -3.930  0.1000E+02  0.5300E+02
     -3.804  0.5619E+01  0.5371E+02
     -3.678  0.9777E+01  0.5494E+02
     -3.552  0.7901E+01  0.5593E+02
     -3.426  0.5805E+01  0.5666E+02
     -3.301  0.8275E+01  0.5770E+02
     -3.175  0.9571E+01  0.5891E+02
     -3.049  0.9059E+01  0.6005E+02
     -2.923  0.1147E+02  0.6149E+02
     -2.797  0.7587E+01  0.6244E+02
     -2.672  0.7027E+01  0.6333E+02
     -2.546  0.8677E+01  0.6442E+02
     -2.420  0.8966E+01  0.6555E+02
     -2.294  0.7825E+01  0.6653E+02
     -2.168  0.1155E+02  0.6798E+02
     -2.043  0.9741E+01  0.6921E+02
     -1.917  0.9892E+01  0.7045E+02
     -1.791  0.1066E+02  0.7179E+02
     -1.665  0.9004E+01  0.7293E+02
     -1.539  0.1249E+02  0.7450E+02
     -1.414  0.1402E+02  0.7626E+02
     -1.288  0.1464E+02  0.7810E+02
     -1.162  0.1671E+02  0.8020E+02
     -1.036  0.1622E+02  0.8225E+02
     -0.911  0.1221E+02  0.8378E+02
     -0.785  0.1986E+02  0.8628E+02
     -0.659  0.1875E+02  0.8864E+02
     -0.533  0.1159E+02  0.9010E+02
     -0.407  0.8885E+01  0.9121E+02
     -0.282  0.8451E+01  0.9228E+02
     -0.156  0.1093E+02  0.9365E+02
     -0.030  0.1149E+02  0.9510E+02
      0.096  0.9744E+01  0.9632E+02
      0.222  0.7586E+01  0.9728E+02
      0.347  0.1032E+02  0.9858E+02
      0.473  0.8658E+01  0.9967E+02
      0.599  0.1172E+02  0.1011E+03
      0.725  0.9220E+01  0.1023E+03
      0.851  0.6607E+01  0.1031E+03
      0.976  0.1166E+02  0.1046E+03
      1.102  0.1273E+02  0.1062E+03
      1.228  0.1466E+02  0.1080E+03
      1.354  0.1231E+02  0.1096E+03
      1.480  0.1640E+02  0.1117E+03
      1.605  0.1544E+02  0.1136E+03
      1.731  0.1498E+02  0.1155E+03
      1.857  0.1795E+02  0.1177E+03
      1.983  0.1220E+02  0.1193E+03
      2.108  0.1386E+02  0.1210E+03
      2.234  0.1917E+02  0.1234E+03
      2.360  0.1269E+02  0.1250E+03
      2.486  0.1670E+02  0.1271E+03
      2.612  0.2017E+02  0.1297E+03
      2.737  0.1868E+02  0.1320E+03
      2.863  0.9901E+01  0.1333E+03
      2.989  0.1201E+02  0.1348E+03
      3.115  0.1988E+02  0.1373E+03
      3.241  0.2399E+02  0.1403E+03
      3.366  0.2001E+02  0.1428E+03
      3.492  0.1555E+02  0.1448E+03
      3.618  0.1153E+02  0.1462E+03
      3.744  0.2059E+02  0.1488E+03
      3.870  0.2866E+02  0.1524E+03
      3.995  0.2532E+02  0.1556E+03
      4.121  0.2200E+02  0.1584E+03
      4.247  0.1672E+02  0.1605E+03
      4.373  0.2430E+02  0.1635E+03
      4.499  0.2237E+02  0.1663E+03
      4.624  0.2507E+02  0.1695E+03
      4.750  0.1845E+02  0.1718E+03
      4.876  0.2588E+02  0.1751E+03
      5.002  0.2972E+02  0.1788E+03
      5.127  0.2387E+02  0.1818E+03
      5.253  0.1696E+02  0.1839E+03
      5.379  0.1907E+02  0.1863E+03
      5.505  0.1957E+02  0.1888E+03
      5.631  0.2533E+02  0.1920E+03
      5.756  0.2474E+02  0.1951E+03
      5.882  0.2334E+02  0.1980E+03
      6.008  0.2269E+02  0.2009E+03
      6.134  0.1916E+02  0.2033E+03
      6.260  0.1575E+02  0.2053E+03
      6.385  0.1859E+02  0.2076E+03
      6.511  0.2510E+02  0.2108E+03
      6.637  0.2042E+02  0.2133E+03
      6.763  0.2117E+02  0.2160E+03
      6.889  0.2442E+02  0.2191E+03
      7.014  0.1595E+02  0.2211E+03
      7.140  0.1948E+02  0.2235E+03
      7.266  0.1409E+02  0.2253E+03
      7.392  0.1952E+02  0.2278E+03
      7.518  0.2035E+02  0.2303E+03
      7.643  0.1965E+02  0.2328E+03
      7.769  0.1772E+02  0.2350E+03
      7.895  0.1142E+02  0.2365E+03
      8.021  0.1328E+02  0.2381E+03
      8.146  0.1189E+02  0.2396E+03
      8.272  0.1662E+02  0.2417E+03
      8.398  0.1132E+02  0.2431E+03
      8.524  0.1059E+02  0.2445E+03
      8.650  0.1116E+02  0.2459E+03
      8.775  0.8845E+01  0.2470E+03
      8.901  0.5339E+01  0.2477E+03
      9.027  0.7344E+01  0.2486E+03
      9.153  0.9957E+01  0.2498E+03
      9.279  0.6627E+01  0.2507E+03
      9.404  0.6717E+01  0.2515E+03
      9.530  0.3253E+01  0.2519E+03
      9.656  0.5019E+01  0.2526E+03
      9.782  0.6223E+01  0.2533E+03
      9.908  0.4220E+01  0.2539E+03
     10.033  0.3698E+01  0.2543E+03
     10.159  0.3081E+01  0.2547E+03
     10.285  0.2614E+01  0.2551E+03
     10.411  0.2435E+01  0.2554E+03
     10.537  0.1724E+01  0.2556E+03
     10.662  0.1813E+01  0.2558E+03
     10.788  0.9490E+00  0.2559E+03
     10.914  0.4195E+00  0.2560E+03
     11.040  0.1800E+00  0.2560E+03
     11.165  0.2586E-02  0.2560E+03
     11.291  0.2839E-07  0.2560E+03
     11.417  0.6538E-16  0.2560E+03
     11.543  0.0000E+00  0.2560E+03
     11.669  0.0000E+00  0.2560E+03
     11.794  0.0000E+00  0.2560E+03
     11.920  0.0000E+00  0.2560E+03
     12.046  0.0000E+00  0.2560E+03
     12.172  0.0000E+00  0.2560E+03
     12.298  0.0000E+00  0.2560E+03
     12.423  0.0000E+00  0.2560E+03
     12.549  0.0000E+00  0.2560E+03
     12.675  0.0000E+00  0.2560E+03
     12.801  0.0000E+00  0.2560E+03
     12.927  0.0000E+00  0.2560E+03
     13.052  0.0000E+00  0.2560E+03
     13.178  0.0000E+00  0.2560E+03
     13.304  0.0000E+00  0.2560E+03
     13.430  0.0000E+00  0.2560E+03
     13.556  0.0000E+00  0.2560E+03
     13.681  0.0000E+00  0.2560E+03
     13.807  0.0000E+00  0.2560E+03
     13.933  0.0000E+00  0.2560E+03
     14.059  0.0000E+00  0.2560E+03
     14.184  0.0000E+00  0.2560E+03
     14.310  0.9807E-16  0.2560E+03
     14.436  0.4662E-07  0.2560E+03
     14.562  0.4953E-02  0.2560E+03
     14.688  0.4142E+00  0.2561E+03
     14.813  0.5675E+00  0.2561E+03
     14.939  0.1194E+01  0.2563E+03
     15.065  0.3033E+01  0.2567E+03
     15.191  0.3759E+01  0.2571E+03
     15.317  0.4156E+01  0.2577E+03
     15.442  0.2700E+01  0.2580E+03
     15.568  0.1867E+01  0.2582E+03
     15.694  0.5091E+01  0.2589E+03
     15.820  0.1081E+02  0.2602E+03
     15.946  0.8479E+01  0.2613E+03
     16.071  0.6855E+01  0.2622E+03
     16.197  0.9021E+01  0.2633E+03
     16.323  0.1067E+02  0.2646E+03
     16.449  0.9714E+01  0.2659E+03
     16.574  0.9540E+01  0.2671E+03
     16.700  0.1026E+02  0.2683E+03
     16.826  0.1848E+02  0.2707E+03
     16.952  0.1631E+02  0.2727E+03
     17.078  0.1656E+02  0.2748E+03
     17.203  0.1405E+02  0.2766E+03
     17.329  0.1354E+02  0.2783E+03
     17.455  0.1668E+02  0.2804E+03
     17.581  0.1643E+02  0.2824E+03
     17.707  0.2046E+02  0.2850E+03
     17.832  0.1889E+02  0.2874E+03
     17.958  0.1682E+02  0.2895E+03
     18.084  0.1981E+02  0.2920E+03
     18.210  0.1994E+02  0.2945E+03
     18.336  0.1989E+02  0.2970E+03
     18.461  0.2301E+02  0.2999E+03
     18.587  0.2506E+02  0.3031E+03
     18.713  0.3139E+02  0.3070E+03
     18.839  0.3581E+02  0.3115E+03
     18.965  0.3092E+02  0.3154E+03
     19.090  0.2851E+02  0.3190E+03
     19.216  0.1962E+02  0.3215E+03
     19.342  0.1972E+02  0.3239E+03
     19.468  0.2899E+02  0.3276E+03
     19.593  0.3860E+02  0.3324E+03
     19.719  0.2742E+02  0.3359E+03
     19.845  0.2325E+02  0.3388E+03
     19.971  0.2658E+02  0.3422E+03
     20.097  0.2198E+02  0.3449E+03
     20.222  0.1492E+02  0.3468E+03
     20.348  0.2256E+02  0.3496E+03
     20.474  0.2903E+02  0.3533E+03
     20.600  0.2418E+02  0.3563E+03
     20.726  0.2581E+02  0.3596E+03
     20.851  0.2653E+02  0.3629E+03
     20.977  0.2402E+02  0.3659E+03
     21.103  0.2877E+02  0.3696E+03
     21.229  0.2155E+02  0.3723E+03
     21.355  0.1781E+02  0.3745E+03
     21.480  0.2457E+02  0.3776E+03
     21.606  0.2182E+02  0.3803E+03
     21.732  0.1123E+02  0.3818E+03
     21.858  0.3257E+01  0.3822E+03
     21.984  0.5067E+01  0.3828E+03
     22.109  0.2141E+01  0.3831E+03
     22.235  0.1568E+01  0.3833E+03
     22.361  0.2820E+01  0.3836E+03
     22.487  0.9053E+00  0.3837E+03
     22.612  0.9170E+00  0.3838E+03
     22.738  0.1167E+01  0.3840E+03
     22.864  0.3424E-01  0.3840E+03
     22.990  0.6845E-06  0.3840E+03
     23.116  0.2942E-14  0.3840E+03
     23.241  0.0000E+00  0.3840E+03
     23.367  0.0000E+00  0.3840E+03
     23.493  0.0000E+00  0.3840E+03
     23.619  0.0000E+00  0.3840E+03
     23.745  0.0000E+00  0.3840E+03
     23.870  0.0000E+00  0.3840E+03
     23.996  0.0000E+00  0.3840E+03
     24.122  0.0000E+00  0.3840E+03
     24.248  0.0000E+00  0.3840E+03
     24.374  0.0000E+00  0.3840E+03
