  64   64
1 1
    50.963462122699994    -0.000000000000000    -0.000000000000000
    -0.000000000000000    50.963462122699994     0.000000000000000
    -0.000000000000000     0.000000000000000    49.583623068620000
1 2
    -0.176435224170000     0.000000000000000    -0.000000000000000
     0.000000000000000    -0.098229321080000     0.000000000000000
    -0.000000000000000     0.000000000000000    -0.073479334370000
1 3
    -0.098229321080000    -0.000000000000000    -0.000000000000000
    -0.000000000000000    -0.176435224170000     0.000000000000000
    -0.000000000000000     0.000000000000000    -0.073479334370000
1 4
    -0.162765144740000    -0.000000000000000    -0.000000000000000
    -0.000000000000000    -0.162765144740000     0.000000000000000
    -0.000000000000000     0.000000000000000     0.565144694860000
1 5
    -0.117734824750000    -0.000000000000000     0.000000000000000
    -0.000000000000000    -0.117734824750000     0.000000000000000
     0.000000000000000     0.000000000000000    -0.195835871810000
1 6
    -0.137145201300000     0.000000000000000     0.000000000000000
     0.000000000000000     0.595007644160000     0.000000000000000
     0.000000000000000     0.000000000000000    -0.127302907460000
1 7
     0.595007644160000    -0.000000000000000    -0.000000000000000
    -0.000000000000000    -0.137145201300000    -0.000000000000000
    -0.000000000000000    -0.000000000000000    -0.127302907460000
1 8
    -0.058507022320000    -0.000000000000000     0.000000000000000
    -0.000000000000000    -0.058507022320000     0.000000000000000
     0.000000000000000     0.000000000000000    -0.054101627740000
1 9
     0.170461072880000     0.085378872290000    -0.029987143040000
     0.085378872290000     0.046469838340000    -0.078304153070000
    -0.029987143040000    -0.078304153070000     0.141783969610000
1 10
    -0.137655909020000     0.177050067260000     0.241194092100000
     0.177050067260000    -0.137655909020000    -0.241194092100000
     0.241194092100000    -0.241194092100000    -0.337203900490000
1 11
   -10.517018611270000     3.190157272670000     3.412578532100000
     3.190157272670000   -10.517018611270000    -3.412578532100000
     3.412578532100000    -3.412578532100000   -10.274933663299999
1 12
     0.046469838340000     0.085378872290000     0.078304153070000
     0.085378872290000     0.170461072880000     0.029987143040000
     0.078304153070000     0.029987143040000     0.141783969610000
1 13
    -0.365843649550000     0.232936289380000     0.242476506570000
     0.232936289380000    -0.086010650890000    -0.103685197720000
     0.242476506570000    -0.103685197720000    -0.069816099480000
1 14
     0.033753552420000     0.025861364540000     0.032551131210000
     0.025861364540000     0.033753552420000    -0.032551131210000
     0.032551131210000    -0.032551131210000     0.033501201310000
1 15
     0.175484433410000    -0.068392075320000     0.123960366270000
    -0.068392075320000     0.175484433410000    -0.123960366270000
     0.123960366270000    -0.123960366270000     0.107974445930000
1 16
    -0.086010650890000     0.232936289380000     0.103685197720000
     0.232936289380000    -0.365843649550000    -0.242476506570000
     0.103685197720000    -0.242476506570000    -0.069816099480000
1 17
     1.504418947730000    -0.831434570360000     0.760832471040000
     0.831434570360000    -1.617296644190000     1.691773612220000
    -0.760832471040000     1.691773612220000    -1.681652543070000
1 18
     0.077970727710000    -0.039723139530000     0.042933799940000
     0.039723139530000    -0.090259422030000    -0.075543064390000
    -0.042933799940000    -0.075543064390000    -0.092571179200000
1 19
     1.504418947730000    -0.831434570360000    -0.760832471040000
     0.831434570360000    -1.617296644190000    -1.691773612220000
     0.760832471040000    -1.691773612220000    -1.681652543070000
1 20
     0.077970727710000    -0.039723139530000    -0.042933799940000
     0.039723139530000    -0.090259422030000     0.075543064390000
     0.042933799940000     0.075543064390000    -0.092571179200000
1 21
     1.504418947730000     0.831434570360000     0.760832471040000
    -0.831434570360000    -1.617296644190000    -1.691773612220000
    -0.760832471040000    -1.691773612220000    -1.681652543070000
1 22
     0.077970727710000     0.039723139530000     0.042933799940000
    -0.039723139530000    -0.090259422030000     0.075543064390000
    -0.042933799940000     0.075543064390000    -0.092571179200000
1 23
     1.504418947730000     0.831434570360000    -0.760832471040000
    -0.831434570360000    -1.617296644190000     1.691773612220000
     0.760832471040000     1.691773612220000    -1.681652543070000
1 24
     0.077970727710000     0.039723139530000    -0.042933799940000
    -0.039723139530000    -0.090259422030000    -0.075543064390000
     0.042933799940000    -0.075543064390000    -0.092571179200000
1 25
   -10.517018611270000    -3.190157272670000    -3.412578532100000
    -3.190157272670000   -10.517018611270000    -3.412578532100000
    -3.412578532100000    -3.412578532100000   -10.274933663299999
1 26
     0.046469838340000    -0.085378872290000    -0.078304153070000
    -0.085378872290000     0.170461072880000     0.029987143040000
    -0.078304153070000     0.029987143040000     0.141783969610000
1 27
     0.170461072880000    -0.085378872290000     0.029987143040000
    -0.085378872290000     0.046469838340000    -0.078304153070000
     0.029987143040000    -0.078304153070000     0.141783969610000
1 28
    -0.137655909020000    -0.177050067260000    -0.241194092100000
    -0.177050067260000    -0.137655909020000    -0.241194092100000
    -0.241194092100000    -0.241194092100000    -0.337203900490000
1 29
     0.175484433410000     0.068392075320000    -0.123960366270000
     0.068392075320000     0.175484433410000    -0.123960366270000
    -0.123960366270000    -0.123960366270000     0.107974445930000
1 30
    -0.086010650890000    -0.232936289380000    -0.103685197720000
    -0.232936289380000    -0.365843649550000    -0.242476506570000
    -0.103685197720000    -0.242476506570000    -0.069816099480000
1 31
    -0.365843649550000    -0.232936289380000    -0.242476506570000
    -0.232936289380000    -0.086010650890000    -0.103685197720000
    -0.242476506570000    -0.103685197720000    -0.069816099480000
1 32
     0.033753552420000    -0.025861364540000    -0.032551131210000
    -0.025861364540000     0.033753552420000    -0.032551131210000
    -0.032551131210000    -0.032551131210000     0.033501201310000
1 33
    -1.617296644190000     0.831434570360000    -1.691773612220000
    -0.831434570360000     1.504418947730000    -0.760832471040000
    -1.691773612220000     0.760832471040000    -1.681652543070000
1 34
    -1.617296644190000     0.831434570360000     1.691773612220000
    -0.831434570360000     1.504418947730000     0.760832471040000
     1.691773612220000    -0.760832471040000    -1.681652543070000
1 35
    -0.090259422030000     0.039723139530000     0.075543064390000
    -0.039723139530000     0.077970727710000    -0.042933799940000
     0.075543064390000     0.042933799940000    -0.092571179200000
1 36
    -0.090259422030000     0.039723139530000    -0.075543064390000
    -0.039723139530000     0.077970727710000     0.042933799940000
    -0.075543064390000    -0.042933799940000    -0.092571179200000
1 37
    -1.617296644190000    -0.831434570360000     1.691773612220000
     0.831434570360000     1.504418947730000    -0.760832471040000
     1.691773612220000     0.760832471040000    -1.681652543070000
1 38
    -1.617296644190000    -0.831434570360000    -1.691773612220000
     0.831434570360000     1.504418947730000     0.760832471040000
    -1.691773612220000    -0.760832471040000    -1.681652543070000
1 39
    -0.090259422030000    -0.039723139530000    -0.075543064390000
     0.039723139530000     0.077970727710000    -0.042933799940000
    -0.075543064390000     0.042933799940000    -0.092571179200000
1 40
    -0.090259422030000    -0.039723139530000     0.075543064390000
     0.039723139530000     0.077970727710000     0.042933799940000
     0.075543064390000    -0.042933799940000    -0.092571179200000
1 41
     0.170461072880000    -0.085378872290000    -0.029987143040000
    -0.085378872290000     0.046469838340000     0.078304153070000
    -0.029987143040000     0.078304153070000     0.141783969610000
1 42
    -0.137655909020000    -0.177050067260000     0.241194092100000
    -0.177050067260000    -0.137655909020000     0.241194092100000
     0.241194092100000     0.241194092100000    -0.337203900490000
1 43
   -10.517018611270000    -3.190157272670000     3.412578532100000
    -3.190157272670000   -10.517018611270000     3.412578532100000
     3.412578532100000     3.412578532100000   -10.274933663299999
1 44
     0.046469838340000    -0.085378872290000     0.078304153070000
    -0.085378872290000     0.170461072880000    -0.029987143040000
     0.078304153070000    -0.029987143040000     0.141783969610000
1 45
    -0.365843649550000    -0.232936289380000     0.242476506570000
    -0.232936289380000    -0.086010650890000     0.103685197720000
     0.242476506570000     0.103685197720000    -0.069816099480000
1 46
     0.033753552420000    -0.025861364540000     0.032551131210000
    -0.025861364540000     0.033753552420000     0.032551131210000
     0.032551131210000     0.032551131210000     0.033501201310000
1 47
     0.175484433410000     0.068392075320000     0.123960366270000
     0.068392075320000     0.175484433410000     0.123960366270000
     0.123960366270000     0.123960366270000     0.107974445930000
1 48
    -0.086010650890000    -0.232936289380000     0.103685197720000
    -0.232936289380000    -0.365843649550000     0.242476506570000
     0.103685197720000     0.242476506570000    -0.069816099480000
1 49
    -1.813854497210000     1.966109416400000    -0.793585146830000
     1.966109416400000    -1.813854497210000     0.793585146830000
     0.793585146830000    -0.793585146830000     1.450733741360000
1 50
    -1.813854497210000    -1.966109416400000    -0.793585146830000
    -1.966109416400000    -1.813854497210000    -0.793585146830000
     0.793585146830000     0.793585146830000     1.450733741360000
1 51
    -1.813854497210000    -1.966109416400000     0.793585146830000
    -1.966109416400000    -1.813854497210000     0.793585146830000
    -0.793585146830000    -0.793585146830000     1.450733741360000
1 52
    -1.813854497210000     1.966109416400000     0.793585146830000
     1.966109416400000    -1.813854497210000    -0.793585146830000
    -0.793585146830000     0.793585146830000     1.450733741360000
1 53
    -0.082532505510000    -0.061912020710000    -0.045761069230000
    -0.061912020710000    -0.082532505510000     0.045761069230000
     0.045761069230000    -0.045761069230000     0.050123464430000
1 54
    -0.082532505510000     0.061912020710000    -0.045761069230000
     0.061912020710000    -0.082532505510000    -0.045761069230000
     0.045761069230000     0.045761069230000     0.050123464430000
1 55
    -0.082532505510000     0.061912020710000     0.045761069230000
     0.061912020710000    -0.082532505510000     0.045761069230000
    -0.045761069230000    -0.045761069230000     0.050123464430000
1 56
    -0.082532505510000    -0.061912020710000     0.045761069230000
    -0.061912020710000    -0.082532505510000    -0.045761069230000
    -0.045761069230000     0.045761069230000     0.050123464430000
1 57
   -10.517018611270000     3.190157272670000    -3.412578532100000
     3.190157272670000   -10.517018611270000     3.412578532100000
    -3.412578532100000     3.412578532100000   -10.274933663299999
1 58
     0.046469838340000     0.085378872290000    -0.078304153070000
     0.085378872290000     0.170461072880000    -0.029987143040000
    -0.078304153070000    -0.029987143040000     0.141783969610000
1 59
     0.170461072880000     0.085378872290000     0.029987143040000
     0.085378872290000     0.046469838340000     0.078304153070000
     0.029987143040000     0.078304153070000     0.141783969610000
1 60
    -0.137655909020000     0.177050067260000    -0.241194092100000
     0.177050067260000    -0.137655909020000     0.241194092100000
    -0.241194092100000     0.241194092100000    -0.337203900490000
1 61
     0.175484433410000    -0.068392075320000    -0.123960366270000
    -0.068392075320000     0.175484433410000     0.123960366270000
    -0.123960366270000     0.123960366270000     0.107974445930000
1 62
    -0.086010650890000     0.232936289380000    -0.103685197720000
     0.232936289380000    -0.365843649550000     0.242476506570000
    -0.103685197720000     0.242476506570000    -0.069816099480000
1 63
    -0.365843649550000     0.232936289380000    -0.242476506570000
     0.232936289380000    -0.086010650890000     0.103685197720000
    -0.242476506570000     0.103685197720000    -0.069816099480000
1 64
     0.033753552420000     0.025861364540000    -0.032551131210000
     0.025861364540000     0.033753552420000     0.032551131210000
    -0.032551131210000     0.032551131210000     0.033501201310000
2 1
    -0.176435224170000     0.000000000000000    -0.000000000000000
     0.000000000000000    -0.098229321080000     0.000000000000000
    -0.000000000000000     0.000000000000000    -0.073479334370000
2 2
    50.963462122699994    -0.000000000000000    -0.000000000000000
    -0.000000000000000    50.963462122699994     0.000000000000000
    -0.000000000000000     0.000000000000000    49.583623068620000
2 3
    -0.162765144740000    -0.000000000000000    -0.000000000000000
    -0.000000000000000    -0.162765144740000     0.000000000000000
    -0.000000000000000     0.000000000000000     0.565144694860000
2 4
    -0.098229321080000    -0.000000000000000    -0.000000000000000
    -0.000000000000000    -0.176435224170000     0.000000000000000
    -0.000000000000000     0.000000000000000    -0.073479334370000
2 5
    -0.137145201300000     0.000000000000000     0.000000000000000
     0.000000000000000     0.595007644160000     0.000000000000000
     0.000000000000000     0.000000000000000    -0.127302907460000
2 6
    -0.117734824750000    -0.000000000000000     0.000000000000000
    -0.000000000000000    -0.117734824750000     0.000000000000000
     0.000000000000000     0.000000000000000    -0.195835871810000
2 7
    -0.058507022320000    -0.000000000000000     0.000000000000000
    -0.000000000000000    -0.058507022320000     0.000000000000000
     0.000000000000000     0.000000000000000    -0.054101627740000
2 8
     0.595007644160000    -0.000000000000000    -0.000000000000000
    -0.000000000000000    -0.137145201300000    -0.000000000000000
    -0.000000000000000    -0.000000000000000    -0.127302907460000
2 9
    -0.137655909020000     0.177050067260000     0.241194092100000
     0.177050067260000    -0.137655909020000    -0.241194092100000
     0.241194092100000    -0.241194092100000    -0.337203900490000
2 10
     0.170461072880000     0.085378872290000    -0.029987143040000
     0.085378872290000     0.046469838340000    -0.078304153070000
    -0.029987143040000    -0.078304153070000     0.141783969610000
2 11
     0.046469838340000     0.085378872290000     0.078304153070000
     0.085378872290000     0.170461072880000     0.029987143040000
     0.078304153070000     0.029987143040000     0.141783969610000
2 12
   -10.517018611270000     3.190157272670000     3.412578532100000
     3.190157272670000   -10.517018611270000    -3.412578532100000
     3.412578532100000    -3.412578532100000   -10.274933663299999
2 13
     0.033753552420000     0.025861364540000     0.032551131210000
     0.025861364540000     0.033753552420000    -0.032551131210000
     0.032551131210000    -0.032551131210000     0.033501201310000
2 14
    -0.365843649550000     0.232936289380000     0.242476506570000
     0.232936289380000    -0.086010650890000    -0.103685197720000
     0.242476506570000    -0.103685197720000    -0.069816099480000
2 15
    -0.086010650890000     0.232936289380000     0.103685197720000
     0.232936289380000    -0.365843649550000    -0.242476506570000
     0.103685197720000    -0.242476506570000    -0.069816099480000
2 16
     0.175484433410000    -0.068392075320000     0.123960366270000
    -0.068392075320000     0.175484433410000    -0.123960366270000
     0.123960366270000    -0.123960366270000     0.107974445930000
2 17
     0.077970727710000    -0.039723139530000     0.042933799940000
     0.039723139530000    -0.090259422030000    -0.075543064390000
    -0.042933799940000    -0.075543064390000    -0.092571179200000
2 18
     1.504418947730000    -0.831434570360000     0.760832471040000
     0.831434570360000    -1.617296644190000     1.691773612220000
    -0.760832471040000     1.691773612220000    -1.681652543070000
2 19
     0.077970727710000    -0.039723139530000    -0.042933799940000
     0.039723139530000    -0.090259422030000     0.075543064390000
     0.042933799940000     0.075543064390000    -0.092571179200000
2 20
     1.504418947730000    -0.831434570360000    -0.760832471040000
     0.831434570360000    -1.617296644190000    -1.691773612220000
     0.760832471040000    -1.691773612220000    -1.681652543070000
2 21
     0.077970727710000     0.039723139530000     0.042933799940000
    -0.039723139530000    -0.090259422030000     0.075543064390000
    -0.042933799940000     0.075543064390000    -0.092571179200000
2 22
     1.504418947730000     0.831434570360000     0.760832471040000
    -0.831434570360000    -1.617296644190000    -1.691773612220000
    -0.760832471040000    -1.691773612220000    -1.681652543070000
2 23
     0.077970727710000     0.039723139530000    -0.042933799940000
    -0.039723139530000    -0.090259422030000    -0.075543064390000
     0.042933799940000    -0.075543064390000    -0.092571179200000
2 24
     1.504418947730000     0.831434570360000    -0.760832471040000
    -0.831434570360000    -1.617296644190000     1.691773612220000
     0.760832471040000     1.691773612220000    -1.681652543070000
2 25
     0.046469838340000    -0.085378872290000    -0.078304153070000
    -0.085378872290000     0.170461072880000     0.029987143040000
    -0.078304153070000     0.029987143040000     0.141783969610000
2 26
   -10.517018611270000    -3.190157272670000    -3.412578532100000
    -3.190157272670000   -10.517018611270000    -3.412578532100000
    -3.412578532100000    -3.412578532100000   -10.274933663299999
2 27
    -0.137655909020000    -0.177050067260000    -0.241194092100000
    -0.177050067260000    -0.137655909020000    -0.241194092100000
    -0.241194092100000    -0.241194092100000    -0.337203900490000
2 28
     0.170461072880000    -0.085378872290000     0.029987143040000
    -0.085378872290000     0.046469838340000    -0.078304153070000
     0.029987143040000    -0.078304153070000     0.141783969610000
2 29
    -0.086010650890000    -0.232936289380000    -0.103685197720000
    -0.232936289380000    -0.365843649550000    -0.242476506570000
    -0.103685197720000    -0.242476506570000    -0.069816099480000
2 30
     0.175484433410000     0.068392075320000    -0.123960366270000
     0.068392075320000     0.175484433410000    -0.123960366270000
    -0.123960366270000    -0.123960366270000     0.107974445930000
2 31
     0.033753552420000    -0.025861364540000    -0.032551131210000
    -0.025861364540000     0.033753552420000    -0.032551131210000
    -0.032551131210000    -0.032551131210000     0.033501201310000
2 32
    -0.365843649550000    -0.232936289380000    -0.242476506570000
    -0.232936289380000    -0.086010650890000    -0.103685197720000
    -0.242476506570000    -0.103685197720000    -0.069816099480000
2 33
    -1.617296644190000     0.831434570360000     1.691773612220000
    -0.831434570360000     1.504418947730000     0.760832471040000
     1.691773612220000    -0.760832471040000    -1.681652543070000
2 34
    -1.617296644190000     0.831434570360000    -1.691773612220000
    -0.831434570360000     1.504418947730000    -0.760832471040000
    -1.691773612220000     0.760832471040000    -1.681652543070000
2 35
    -0.090259422030000     0.039723139530000    -0.075543064390000
    -0.039723139530000     0.077970727710000     0.042933799940000
    -0.075543064390000    -0.042933799940000    -0.092571179200000
2 36
    -0.090259422030000     0.039723139530000     0.075543064390000
    -0.039723139530000     0.077970727710000    -0.042933799940000
     0.075543064390000     0.042933799940000    -0.092571179200000
2 37
    -1.617296644190000    -0.831434570360000    -1.691773612220000
     0.831434570360000     1.504418947730000     0.760832471040000
    -1.691773612220000    -0.760832471040000    -1.681652543070000
2 38
    -1.617296644190000    -0.831434570360000     1.691773612220000
     0.831434570360000     1.504418947730000    -0.760832471040000
     1.691773612220000     0.760832471040000    -1.681652543070000
2 39
    -0.090259422030000    -0.039723139530000     0.075543064390000
     0.039723139530000     0.077970727710000     0.042933799940000
     0.075543064390000    -0.042933799940000    -0.092571179200000
2 40
    -0.090259422030000    -0.039723139530000    -0.075543064390000
     0.039723139530000     0.077970727710000    -0.042933799940000
    -0.075543064390000     0.042933799940000    -0.092571179200000
2 41
    -0.137655909020000    -0.177050067260000     0.241194092100000
    -0.177050067260000    -0.137655909020000     0.241194092100000
     0.241194092100000     0.241194092100000    -0.337203900490000
2 42
     0.170461072880000    -0.085378872290000    -0.029987143040000
    -0.085378872290000     0.046469838340000     0.078304153070000
    -0.029987143040000     0.078304153070000     0.141783969610000
2 43
     0.046469838340000    -0.085378872290000     0.078304153070000
    -0.085378872290000     0.170461072880000    -0.029987143040000
     0.078304153070000    -0.029987143040000     0.141783969610000
2 44
   -10.517018611270000    -3.190157272670000     3.412578532100000
    -3.190157272670000   -10.517018611270000     3.412578532100000
     3.412578532100000     3.412578532100000   -10.274933663299999
2 45
     0.033753552420000    -0.025861364540000     0.032551131210000
    -0.025861364540000     0.033753552420000     0.032551131210000
     0.032551131210000     0.032551131210000     0.033501201310000
2 46
    -0.365843649550000    -0.232936289380000     0.242476506570000
    -0.232936289380000    -0.086010650890000     0.103685197720000
     0.242476506570000     0.103685197720000    -0.069816099480000
2 47
    -0.086010650890000    -0.232936289380000     0.103685197720000
    -0.232936289380000    -0.365843649550000     0.242476506570000
     0.103685197720000     0.242476506570000    -0.069816099480000
2 48
     0.175484433410000     0.068392075320000     0.123960366270000
     0.068392075320000     0.175484433410000     0.123960366270000
     0.123960366270000     0.123960366270000     0.107974445930000
2 49
    -1.813854497210000    -1.966109416400000    -0.793585146830000
    -1.966109416400000    -1.813854497210000    -0.793585146830000
     0.793585146830000     0.793585146830000     1.450733741360000
2 50
    -1.813854497210000     1.966109416400000    -0.793585146830000
     1.966109416400000    -1.813854497210000     0.793585146830000
     0.793585146830000    -0.793585146830000     1.450733741360000
2 51
    -1.813854497210000     1.966109416400000     0.793585146830000
     1.966109416400000    -1.813854497210000    -0.793585146830000
    -0.793585146830000     0.793585146830000     1.450733741360000
2 52
    -1.813854497210000    -1.966109416400000     0.793585146830000
    -1.966109416400000    -1.813854497210000     0.793585146830000
    -0.793585146830000    -0.793585146830000     1.450733741360000
2 53
    -0.082532505510000     0.061912020710000    -0.045761069230000
     0.061912020710000    -0.082532505510000    -0.045761069230000
     0.045761069230000     0.045761069230000     0.050123464430000
2 54
    -0.082532505510000    -0.061912020710000    -0.045761069230000
    -0.061912020710000    -0.082532505510000     0.045761069230000
     0.045761069230000    -0.045761069230000     0.050123464430000
2 55
    -0.082532505510000    -0.061912020710000     0.045761069230000
    -0.061912020710000    -0.082532505510000    -0.045761069230000
    -0.045761069230000     0.045761069230000     0.050123464430000
2 56
    -0.082532505510000     0.061912020710000     0.045761069230000
     0.061912020710000    -0.082532505510000     0.045761069230000
    -0.045761069230000    -0.045761069230000     0.050123464430000
2 57
     0.046469838340000     0.085378872290000    -0.078304153070000
     0.085378872290000     0.170461072880000    -0.029987143040000
    -0.078304153070000    -0.029987143040000     0.141783969610000
2 58
   -10.517018611270000     3.190157272670000    -3.412578532100000
     3.190157272670000   -10.517018611270000     3.412578532100000
    -3.412578532100000     3.412578532100000   -10.274933663299999
2 59
    -0.137655909020000     0.177050067260000    -0.241194092100000
     0.177050067260000    -0.137655909020000     0.241194092100000
    -0.241194092100000     0.241194092100000    -0.337203900490000
2 60
     0.170461072880000     0.085378872290000     0.029987143040000
     0.085378872290000     0.046469838340000     0.078304153070000
     0.029987143040000     0.078304153070000     0.141783969610000
2 61
    -0.086010650890000     0.232936289380000    -0.103685197720000
     0.232936289380000    -0.365843649550000     0.242476506570000
    -0.103685197720000     0.242476506570000    -0.069816099480000
2 62
     0.175484433410000    -0.068392075320000    -0.123960366270000
    -0.068392075320000     0.175484433410000     0.123960366270000
    -0.123960366270000     0.123960366270000     0.107974445930000
2 63
     0.033753552420000     0.025861364540000    -0.032551131210000
     0.025861364540000     0.033753552420000     0.032551131210000
    -0.032551131210000     0.032551131210000     0.033501201310000
2 64
    -0.365843649550000     0.232936289380000    -0.242476506570000
     0.232936289380000    -0.086010650890000     0.103685197720000
    -0.242476506570000     0.103685197720000    -0.069816099480000
3 1
    -0.098229321080000    -0.000000000000000    -0.000000000000000
    -0.000000000000000    -0.176435224170000     0.000000000000000
    -0.000000000000000     0.000000000000000    -0.073479334370000
3 2
    -0.162765144740000    -0.000000000000000    -0.000000000000000
    -0.000000000000000    -0.162765144740000     0.000000000000000
    -0.000000000000000     0.000000000000000     0.565144694860000
3 3
    50.963462122699994    -0.000000000000000    -0.000000000000000
    -0.000000000000000    50.963462122699994     0.000000000000000
    -0.000000000000000     0.000000000000000    49.583623068620000
3 4
    -0.176435224170000     0.000000000000000    -0.000000000000000
     0.000000000000000    -0.098229321080000     0.000000000000000
    -0.000000000000000     0.000000000000000    -0.073479334370000
3 5
     0.595007644160000    -0.000000000000000    -0.000000000000000
    -0.000000000000000    -0.137145201300000    -0.000000000000000
    -0.000000000000000    -0.000000000000000    -0.127302907460000
3 6
    -0.058507022320000    -0.000000000000000     0.000000000000000
    -0.000000000000000    -0.058507022320000     0.000000000000000
     0.000000000000000     0.000000000000000    -0.054101627740000
3 7
    -0.117734824750000    -0.000000000000000     0.000000000000000
    -0.000000000000000    -0.117734824750000     0.000000000000000
     0.000000000000000     0.000000000000000    -0.195835871810000
3 8
    -0.137145201300000     0.000000000000000     0.000000000000000
     0.000000000000000     0.595007644160000     0.000000000000000
     0.000000000000000     0.000000000000000    -0.127302907460000
3 9
   -10.517018611270000     3.190157272670000     3.412578532100000
     3.190157272670000   -10.517018611270000    -3.412578532100000
     3.412578532100000    -3.412578532100000   -10.274933663299999
3 10
     0.046469838340000     0.085378872290000     0.078304153070000
     0.085378872290000     0.170461072880000     0.029987143040000
     0.078304153070000     0.029987143040000     0.141783969610000
3 11
     0.170461072880000     0.085378872290000    -0.029987143040000
     0.085378872290000     0.046469838340000    -0.078304153070000
    -0.029987143040000    -0.078304153070000     0.141783969610000
3 12
    -0.137655909020000     0.177050067260000     0.241194092100000
     0.177050067260000    -0.137655909020000    -0.241194092100000
     0.241194092100000    -0.241194092100000    -0.337203900490000
3 13
     0.175484433410000    -0.068392075320000     0.123960366270000
    -0.068392075320000     0.175484433410000    -0.123960366270000
     0.123960366270000    -0.123960366270000     0.107974445930000
3 14
    -0.086010650890000     0.232936289380000     0.103685197720000
     0.232936289380000    -0.365843649550000    -0.242476506570000
     0.103685197720000    -0.242476506570000    -0.069816099480000
3 15
    -0.365843649550000     0.232936289380000     0.242476506570000
     0.232936289380000    -0.086010650890000    -0.103685197720000
     0.242476506570000    -0.103685197720000    -0.069816099480000
3 16
     0.033753552420000     0.025861364540000     0.032551131210000
     0.025861364540000     0.033753552420000    -0.032551131210000
     0.032551131210000    -0.032551131210000     0.033501201310000
3 17
     1.504418947730000    -0.831434570360000    -0.760832471040000
     0.831434570360000    -1.617296644190000    -1.691773612220000
     0.760832471040000    -1.691773612220000    -1.681652543070000
3 18
     0.077970727710000    -0.039723139530000    -0.042933799940000
     0.039723139530000    -0.090259422030000     0.075543064390000