       N       E                     dE             d eps       ncg     rms          rms(c)
DAV:   1     0.517616466064E+03    0.51762E+03   -0.11476E+05 15360   0.107E+03
DAV:   2    -0.562574720022E+03   -0.10802E+04   -0.10307E+04 20128   0.236E+02
DAV:   3    -0.602298410354E+03   -0.39724E+02   -0.39502E+02 20288   0.422E+01
DAV:   4    -0.602683892017E+03   -0.38548E+00   -0.38472E+00 20064   0.463E+00
DAV:   5    -0.602691479092E+03   -0.75871E-02   -0.75840E-02 19008   0.589E-01    0.290E+01
DAV:   6    -0.584404137497E+03    0.18287E+02   -0.11898E+01 17920   0.710E+00    0.157E+01
DAV:   7    -0.578243184978E+03    0.61610E+01   -0.13334E+01 18688   0.774E+00    0.201E+00
DAV:   8    -0.578310618813E+03   -0.67434E-01   -0.29449E-01 18784   0.110E+00    0.227E-01
DAV:   9    -0.578312670736E+03   -0.20519E-02   -0.35748E-03 19968   0.147E-01    0.835E-02
DAV:  10    -0.578313092650E+03   -0.42191E-03   -0.34935E-04 18368   0.507E-02    0.840E-03
DAV:  11    -0.578313099291E+03   -0.66410E-05   -0.10499E-05 20000   0.786E-03    0.215E-03
DAV:  12    -0.578313099009E+03    0.28172E-06   -0.28911E-07 19584   0.138E-03    0.257E-04
DAV:  13    -0.578313099043E+03   -0.33780E-07   -0.49786E-09 14752   0.183E-04    0.530E-05
DAV:  14    -0.578313099064E+03   -0.21166E-07   -0.72443E-10 12352   0.750E-05    0.198E-05
DAV:  15    -0.578313099065E+03   -0.10568E-08   -0.10558E-10 11520   0.252E-05
   1 F= -.57831310E+03 E0= -.57831310E+03  d E =-.412163E-18
 Linear response reoptimize wavefunctions
DAV:   1    -0.578313099063E+03    0.20445E-08   -0.16374E-11 11488   0.106E-05
DAV:   2    -0.578313099063E+03    0.17917E-09   -0.78826E-13 11424   0.514E-06
DAV:   3    -0.578313099063E+03   -0.23829E-09    0.40637E-12 11392   0.250E-06
 Linear response DOF=           2
 Linear response progress:
  Degree of freedom:   1/  2
       N       E                     dE             d eps       ncg     rms          rms(c)
RMM:   1    -0.150310759411E+00   -0.15031E+00    0.33309E-03 86876   0.753E-01
RMM:   2    -0.126952540489E+00    0.23358E-01   -0.71215E-03 51998   0.193E-01    0.198E-01
RMM:   3    -0.126717953780E+00    0.23459E-03   -0.11131E-03 54329   0.563E-02    0.989E-02
RMM:   4    -0.127051916427E+00   -0.33396E-03   -0.32257E-04 54502   0.316E-02    0.286E-02
RMM:   5    -0.127155361628E+00   -0.10345E-03   -0.19410E-05 55388   0.840E-03    0.686E-03
RMM:   6    -0.127140154416E+00    0.15207E-04   -0.11358E-06 55977   0.204E-03    0.143E-03
RMM:   7    -0.127131809457E+00    0.83450E-05   -0.60757E-07 56769   0.599E-04    0.404E-04
RMM:   8    -0.127131204191E+00    0.60527E-06   -0.30162E-07 57886   0.246E-04    0.842E-05
RMM:   9    -0.127130965806E+00    0.23838E-06   -0.37160E-07 59235   0.129E-04    0.363E-05
RMM:  10    -0.127131021658E+00   -0.55851E-07   -0.42844E-07 60317   0.120E-04    0.984E-06
RMM:  11    -0.127131024002E+00   -0.23444E-08   -0.46171E-07 60498   0.116E-04    0.400E-06
RMM:  12    -0.127131033800E+00   -0.97981E-08   -0.44801E-07 60614   0.115E-04    0.140E-06
 Linear response progress:
  Degree of freedom:   2/  2
       N       E                     dE             d eps       ncg     rms          rms(c)
RMM:   1    -0.151777594222E+00   -0.15178E+00    0.46874E-03 56712   0.762E-01
RMM:   2    -0.126834822600E+00    0.24943E-01   -0.74101E-03 33592   0.195E-01    0.205E-01
RMM:   3    -0.126522898224E+00    0.31192E-03   -0.12680E-03 35075   0.594E-02    0.101E-01
RMM:   4    -0.126840823745E+00   -0.31793E-03   -0.33734E-04 35271   0.321E-02    0.304E-02
RMM:   5    -0.126953442982E+00   -0.11262E-03   -0.23605E-05 35886   0.912E-03    0.698E-03
RMM:   6    -0.126936939756E+00    0.16503E-04   -0.11975E-06 36232   0.212E-03    0.140E-03
RMM:   7    -0.126928656456E+00    0.82833E-05   -0.26809E-07 36810   0.594E-04    0.413E-04
RMM:   8    -0.126928079949E+00    0.57651E-06   -0.41709E-07 37514   0.247E-04    0.869E-05
RMM:   9    -0.126927804093E+00    0.27586E-06   -0.26324E-07 38506   0.134E-04    0.363E-05
RMM:  10    -0.126927889633E+00   -0.85540E-07   -0.51911E-07 39079   0.124E-04    0.106E-05
RMM:  11    -0.126927894974E+00   -0.53414E-08   -0.53172E-07 39244   0.120E-04    0.404E-06
RMM:  12    -0.126927904960E+00   -0.99852E-08   -0.52967E-07 39370   0.119E-04    0.165E-06
 Linear response finished
