 vasp.5.4.4.18Apr17-6-g9f103f2a35 (build Mar 12 2022 03:36:41) complex          
  
 executed on IFC19.0.3.199_CrayMP date 2022.12.02  01:40:42
 running on   32 total cores
 distrk:  each k-point on   32 cores,    1 groups
 distr:  one band on NCORES_PER_BAND=   1 cores,   32 groups


--------------------------------------------------------------------------------------------------------


 INCAR:
 POTCAR:   PAW_PBE C 08Apr2002                    

 ----------------------------------------------------------------------------- 
|                                                                             |
|           W    W    AA    RRRRR   N    N  II  N    N   GGGG   !!!           |
|           W    W   A  A   R    R  NN   N  II  NN   N  G    G  !!!           |
|           W    W  A    A  R    R  N N  N  II  N N  N  G       !!!           |
|           W WW W  AAAAAA  RRRRR   N  N N  II  N  N N  G  GGG   !            |
|           WW  WW  A    A  R   R   N   NN  II  N   NN  G    G                |
|           W    W  A    A  R    R  N    N  II  N    N   GGGG   !!!           |
|                                                                             |
|      For optimal performance we recommend to set                            |
|        NCORE= 4 - approx SQRT( number of cores)                             |
|      NCORE specifies how many cores store one orbital (NPAR=cpu/NCORE).     |
|      This setting can  greatly improve the performance of VASP for DFT.     |
|      The default,   NCORE=1            might be grossly inefficient         |
|      on modern multi-core architectures or massively parallel machines.     |
|      Do your own testing !!!!                                               |
|      Unfortunately you need to use the default for GW and RPA calculations. |
|      (for HF NCORE is supported but not extensively tested yet)             |
|                                                                             |
 ----------------------------------------------------------------------------- 

 POTCAR:   PAW_PBE C 08Apr2002                    
   VRHFIN =C: s2p2                                                              
   LEXCH  = PE                                                                  
   EATOM  =   147.1560 eV,   10.8157 Ry                                         
                                                                                
   TITEL  = PAW_PBE C 08Apr2002                                                 
   LULTRA =        F    use ultrasoft PP ?                                      
   IUNSCR =        0    unscreen: 0-lin 1-nonlin 2-no                           
   RPACOR =     .000    partial core radius                                     
   POMASS =   12.011; ZVAL   =    4.000    mass and valenz                      
   RCORE  =    1.500    outmost cutoff radius                                   
   RWIGS  =    1.630; RWIGS  =     .863    wigner-seitz radius (au A)           
   ENMAX  =  400.000; ENMIN  =  300.000 eV                                      
   ICORE  =        2    local potential                                         
   LCOR   =        T    correct aug charges                                     
   LPAW   =        T    paw PP                                                  
   EAUG   =  644.873                                                            
   DEXC   =     .000                                                            
   RMAX   =    2.266    core radius for proj-oper                               
   RAUG   =    1.300    factor for augmentation sphere                          
   RDEP   =    1.501    radius for radial grids                                 
   RDEPT  =    1.300    core radius for aug-charge                              
   QCUT   =   -5.516; QGAM   =   11.032    optimization parameters              
                                                                                
   Description                                                                  
     l     E      TYP  RCUT    TYP  RCUT                                        
     0   .000     23  1.200                                                     
     0   .000     23  1.200                                                     
     1   .000     23  1.500                                                     
     1  2.500     23  1.500                                                     
     2   .000      7  1.500                                                     
  local pseudopotential read in
  atomic valenz-charges read in
  non local Contribution for L=           0  read in
    real space projection operators read in
  non local Contribution for L=           0  read in
    real space projection operators read in
  non local Contribution for L=           1  read in
    real space projection operators read in
  non local Contribution for L=           1  read in
    real space projection operators read in
    PAW grid and wavefunctions read in
 
   number of l-projection  operators is LMAX  =           4
   number of lm-projection operators is LMMAX =           8
 

 ----------------------------------------------------------------------------- 
|                                                                             |
|  ADVICE TO THIS USER RUNNING 'VASP/VAMP'   (HEAR YOUR MASTER'S VOICE ...):  |
|                                                                             |
|      You have a (more or less) 'large supercell' and for larger cells       |
|      it might be more efficient to use real space projection operators      |
|      So try LREAL= Auto  in the INCAR   file.                               |
|      Mind: If you want to do a very accurate calculations keep the          |
|      reciprocal projection scheme          (i.e. LREAL=.FALSE.)             |
|                                                                             |
 ----------------------------------------------------------------------------- 

 PAW_PBE C 08Apr2002                    :
 energy of atom  1       EATOM= -147.1560
 kinetic energy error for atom=    0.0288 (will be added to EATOM!!)
 
 
 POSCAR: generated by phonopy                    
  positions in direct lattice
  No initial velocities read in
 exchange correlation table for  LEXCH =        8
   RHO(1)=    0.500       N(1)  =     2000
   RHO(2)=  100.500       N(2)  =     4000
 


--------------------------------------------------------------------------------------------------------


 ion  position               nearest neighbor table
   1  0.125  0.375  0.125-  11 1.51  25 1.51  43 1.51  57 1.51
   2  0.625  0.375  0.125-  12 1.51  26 1.51  44 1.51  58 1.51
   3  0.125  0.875  0.125-   9 1.51  27 1.51  41 1.51  59 1.51
   4  0.625  0.875  0.125-  10 1.51  28 1.51  42 1.51  60 1.51
   5  0.125  0.375  0.625-  15 1.51  29 1.51  47 1.51  61 1.51
   6  0.625  0.375  0.625-  16 1.51  30 1.51  48 1.51  62 1.51
   7  0.125  0.875  0.625-  13 1.51  31 1.51  45 1.51  63 1.51
   8  0.625  0.875  0.625-  14 1.51  32 1.51  46 1.51  64 1.51
   9  0.000  0.000  0.250-   3 1.51  17 1.51  36 1.51  50 1.51
  10  0.500  0.000  0.250-   4 1.51  18 1.51  35 1.51  49 1.51
  11  0.000  0.500  0.250-   1 1.51  19 1.51  34 1.51  52 1.51
  12  0.500  0.500  0.250-   2 1.51  20 1.51  33 1.51  51 1.51
  13  0.000  0.000  0.750-   7 1.51  21 1.51  40 1.51  54 1.51
  14  0.500  0.000  0.750-   8 1.51  22 1.51  39 1.51  53 1.51
  15  0.000  0.500  0.750-   5 1.51  23 1.51  38 1.51  56 1.51
  16  0.500  0.500  0.750-   6 1.51  24 1.51  37 1.51  55 1.51
  17  0.125  0.125  0.375-   9 1.51  29 1.51  45 1.51  57 1.51
  18  0.625  0.125  0.375-  10 1.51  30 1.51  46 1.51  58 1.51
  19  0.125  0.625  0.375-  11 1.51  31 1.51  47 1.51  59 1.51
  20  0.625  0.625  0.375-  12 1.51  32 1.51  48 1.51  60 1.51
  21  0.125  0.125  0.875-  13 1.51  25 1.51  41 1.51  61 1.51
  22  0.625  0.125  0.875-  14 1.51  26 1.51  42 1.51  62 1.51
  23  0.125  0.625  0.875-  15 1.51  27 1.51  43 1.51  63 1.51
  24  0.625  0.625  0.875-  16 1.51  28 1.51  44 1.51  64 1.51
  25  0.000  0.250  0.000-   1 1.51  21 1.51  38 1.51  50 1.51
  26  0.500  0.250  0.000-   2 1.51  22 1.51  37 1.51  49 1.51
  27  0.000  0.750  0.000-   3 1.51  23 1.51  40 1.51  52 1.51
  28  0.500  0.750  0.000-   4 1.51  24 1.51  39 1.51  51 1.51
  29  0.000  0.250  0.500-   5 1.51  17 1.51  34 1.51  54 1.51
  30  0.500  0.250  0.500-   6 1.51  18 1.51  33 1.51  53 1.51
  31  0.000  0.750  0.500-   7 1.51  19 1.51  36 1.51  56 1.51
  32  0.500  0.750  0.500-   8 1.51  20 1.51  35 1.51  55 1.51
  33  0.375  0.375  0.375-  12 1.51  30 1.51  47 1.51  57 1.51
  34  0.875  0.375  0.375-  11 1.51  29 1.51  48 1.51  58 1.51
  35  0.375  0.875  0.375-  10 1.51  32 1.51  45 1.51  59 1.51
  36  0.875  0.875  0.375-   9 1.51  31 1.51  46 1.51  60 1.51
  37  0.375  0.375  0.875-  16 1.51  26 1.51  43 1.51  61 1.51
  38  0.875  0.375  0.875-  15 1.51  25 1.51  44 1.51  62 1.51
  39  0.375  0.875  0.875-  14 1.51  28 1.51  41 1.51  63 1.51
  40  0.875  0.875  0.875-  13 1.51  27 1.51  42 1.51  64 1.51
  41  0.250  0.000  0.000-   3 1.51  21 1.51  39 1.51  49 1.51
  42  0.750  0.000  0.000-   4 1.51  22 1.51  40 1.51  50 1.51
  43  0.250  0.500  0.000-   1 1.51  23 1.51  37 1.51  51 1.51
  44  0.750  0.500  0.000-   2 1.51  24 1.51  38 1.51  52 1.51
  45  0.250  0.000  0.500-   7 1.51  17 1.51  35 1.51  53 1.51
  46  0.750  0.000  0.500-   8 1.51  18 1.51  36 1.51  54 1.51
  47  0.250  0.500  0.500-   5 1.51  19 1.51  33 1.51  55 1.51
  48  0.750  0.500  0.500-   6 1.51  20 1.51  34 1.51  56 1.51
  49  0.375  0.125  0.125-  10 1.51  26 1.51  41 1.51  57 1.51
  50  0.875  0.125  0.125-   9 1.51  25 1.51  42 1.51  58 1.51
  51  0.375  0.625  0.125-  12 1.51  28 1.51  43 1.51  59 1.51
  52  0.875  0.625  0.125-  11 1.51  27 1.51  44 1.51  60 1.51
  53  0.375  0.125  0.625-  14 1.51  30 1.51  45 1.51  61 1.51
  54  0.875  0.125  0.625-  13 1.51  29 1.51  46 1.51  62 1.51
  55  0.375  0.625  0.625-  16 1.51  32 1.51  47 1.51  63 1.51
  56  0.875  0.625  0.625-  15 1.51  31 1.51  48 1.51  64 1.51
  57  0.250  0.250  0.250-   1 1.51  17 1.51  33 1.51  49 1.51
  58  0.750  0.250  0.250-   2 1.51  18 1.51  34 1.51  50 1.51
  59  0.250  0.750  0.250-   3 1.51  19 1.51  35 1.51  51 1.51
  60  0.750  0.750  0.250-   4 1.51  20 1.51  36 1.51  52 1.51
  61  0.250  0.250  0.750-   5 1.51  21 1.51  37 1.51  53 1.51
  62  0.750  0.250  0.750-   6 1.51  22 1.51  38 1.51  54 1.51
  63  0.250  0.750  0.750-   7 1.51  23 1.51  39 1.51  55 1.51
  64  0.750  0.750  0.750-   8 1.51  24 1.51  40 1.51  56 1.51
 
  LATTYP: Found a simple tetragonal cell.
 ALAT       =     6.8868124065
 C/A-ratio  =     1.0425721356
  
  Lattice vectors:
  
 A1 = (   6.8868124065,   0.0000000000,   0.0000000000)
 A2 = (   0.0000000000,   6.8868124065,   0.0000000000)
 A3 = (   0.0000000000,   0.0000000000,   7.1799987179)


Analysis of symmetry for initial positions (statically):
=====================================================================
 Subroutine PRICEL returns following result:
 
  LATTYP: Found a body centered tetragonal cell.
 ALAT       =     2.4348558767
 C/A-ratio  =     1.4744196539
  
  Lattice vectors:
  
 A1 = (   0.0000000000,  -1.7217031016,   1.7949996795)
 A2 = (   0.0000000000,   1.7217031016,   1.7949996795)
 A3 = (  -1.7217031016,   0.0000000000,  -1.7949996795)
 
  32 primitive cells build up your supercell.
 

 Routine SETGRP: Setting up the symmetry group for a 
 simple tetragonal supercell.


 Subroutine GETGRP returns: Found 16 space group operations
 (whereof  8 operations were pure point group operations)
 out of a pool of 16 trial point group operations.


The static configuration has the point symmetry D_2d.
 The point group associated with its full space group is D_4h.


Analysis of symmetry for dynamics (positions and initial velocities):
=====================================================================
 Subroutine PRICEL returns following result:
 
  LATTYP: Found a body centered tetragonal cell.
 ALAT       =     2.4348558767
 C/A-ratio  =     1.4744196539
  
  Lattice vectors:
  
 A1 = (   0.0000000000,  -1.7217031016,   1.7949996795)
 A2 = (   0.0000000000,   1.7217031016,   1.7949996795)
 A3 = (  -1.7217031016,   0.0000000000,  -1.7949996795)
 
  32 primitive cells build up your supercell.
 

 Routine SETGRP: Setting up the symmetry group for a 
 simple tetragonal supercell.


 Subroutine GETGRP returns: Found 16 space group operations
 (whereof  8 operations were pure point group operations)
 out of a pool of 16 trial point group operations.


The dynamic configuration has the point symmetry D_2d.
 The point group associated with its full space group is D_4h.


 Subroutine INISYM returns: Found 16 space group operations
 (whereof  8 operations are pure point group operations),
 and found    32 'primitive' translations

 
 
 KPOINTS: kpt_density=3000                        

Automatic generation of k-mesh.
Space group operators:
 irot       det(A)        alpha          n_x          n_y          n_z        tau_x        tau_y        tau_z
    1     1.000000     0.000000     1.000000     0.000000     0.000000     0.000000     0.000000     0.000000
    2    -1.000000    90.000000     0.000000     0.000000    -1.000000     0.000000     0.000000     0.000000
    3     1.000000   180.000000     0.000000     0.000000     1.000000     0.000000     0.000000     0.000000
    4    -1.000000    90.000000     0.000000     0.000000     1.000000     0.000000     0.000000     0.000000
    5     1.000000   180.000000     0.000000     1.000000     0.000000     0.000000     0.000000     0.000000
    6    -1.000000   180.000000     0.707107     0.707107     0.000000     0.000000     0.000000     0.000000
    7     1.000000   180.000000     1.000000     0.000000     0.000000     0.000000     0.000000     0.000000
    8    -1.000000   180.000000     0.707107    -0.707107     0.000000     0.000000     0.000000     0.000000
    9    -1.000000     0.000000     1.000000     0.000000     0.000000    -0.125000    -0.125000     0.125000
   10     1.000000    90.000000     0.000000     0.000000    -1.000000    -0.125000    -0.125000     0.125000
   11    -1.000000   180.000000     0.000000     0.000000     1.000000    -0.125000    -0.125000     0.125000
   12     1.000000    90.000000     0.000000     0.000000     1.000000    -0.125000    -0.125000     0.125000
   13    -1.000000   180.000000     0.000000     1.000000     0.000000    -0.125000    -0.125000     0.125000
   14     1.000000   180.000000     0.707107     0.707107     0.000000    -0.125000    -0.125000     0.125000
   15    -1.000000   180.000000     1.000000     0.000000     0.000000    -0.125000    -0.125000     0.125000
   16     1.000000   180.000000     0.707107    -0.707107     0.000000    -0.125000    -0.125000     0.125000
 
 Subroutine IBZKPT returns following result:
 ===========================================
 
 Found     40 irreducible k-points:
 
 Following reciprocal coordinates:
            Coordinates               Weight
  0.000000  0.000000  0.000000      1.000000
  0.166667  0.000000  0.000000      4.000000
  0.333333  0.000000  0.000000      4.000000
  0.500000  0.000000  0.000000      2.000000
  0.166667  0.166667  0.000000      4.000000
  0.333333  0.166667  0.000000      8.000000
  0.500000  0.166667  0.000000      4.000000
  0.333333  0.333333  0.000000      4.000000
  0.500000  0.333333  0.000000      4.000000
  0.500000  0.500000  0.000000      1.000000
  0.000000  0.000000  0.166667      2.000000
  0.166667  0.000000  0.166667      8.000000
  0.333333  0.000000  0.166667      8.000000
  0.500000  0.000000  0.166667      4.000000
  0.166667  0.166667  0.166667      8.000000
  0.333333  0.166667  0.166667     16.000000
  0.500000  0.166667  0.166667      8.000000
  0.333333  0.333333  0.166667      8.000000
  0.500000  0.333333  0.166667      8.000000
  0.500000  0.500000  0.166667      2.000000
  0.000000  0.000000  0.333333      2.000000
  0.166667  0.000000  0.333333      8.000000
  0.333333  0.000000  0.333333      8.000000
  0.500000  0.000000  0.333333      4.000000
  0.166667  0.166667  0.333333      8.000000
  0.333333  0.166667  0.333333     16.000000
  0.500000  0.166667  0.333333      8.000000
  0.333333  0.333333  0.333333      8.000000
  0.500000  0.333333  0.333333      8.000000
  0.500000  0.500000  0.333333      2.000000
  0.000000  0.000000  0.500000      1.000000
  0.166667  0.000000  0.500000      4.000000
  0.333333  0.000000  0.500000      4.000000
  0.500000  0.000000  0.500000      2.000000
  0.166667  0.166667  0.500000      4.000000
  0.333333  0.166667  0.500000      8.000000
  0.500000  0.166667  0.500000      4.000000
  0.333333  0.333333  0.500000      4.000000
  0.500000  0.333333  0.500000      4.000000
  0.500000  0.500000  0.500000      1.000000
 
 Following cartesian coordinates:
            Coordinates               Weight
  0.000000  0.000000  0.000000      1.000000
  0.024201  0.000000  0.000000      4.000000
  0.048402  0.000000  0.000000      4.000000
  0.072603  0.000000  0.000000      2.000000
  0.024201  0.024201  0.000000      4.000000
  0.048402  0.024201  0.000000      8.000000
  0.072603  0.024201  0.000000      4.000000
  0.048402  0.048402  0.000000      4.000000
  0.072603  0.048402  0.000000      4.000000
  0.072603  0.072603  0.000000      1.000000
  0.000000  0.000000  0.023213      2.000000
  0.024201  0.000000  0.023213      8.000000
  0.048402  0.000000  0.023213      8.000000
  0.072603  0.000000  0.023213      4.000000
  0.024201  0.024201  0.023213      8.000000
  0.048402  0.024201  0.023213     16.000000
  0.072603  0.024201  0.023213      8.000000
  0.048402  0.048402  0.023213      8.000000
  0.072603  0.048402  0.023213      8.000000
  0.072603  0.072603  0.023213      2.000000
  0.000000  0.000000  0.046425      2.000000
  0.024201  0.000000  0.046425      8.000000
  0.048402  0.000000  0.046425      8.000000
  0.072603  0.000000  0.046425      4.000000
  0.024201  0.024201  0.046425      8.000000
  0.048402  0.024201  0.046425     16.000000
  0.072603  0.024201  0.046425      8.000000
  0.048402  0.048402  0.046425      8.000000
  0.072603  0.048402  0.046425      8.000000
  0.072603  0.072603  0.046425      2.000000
  0.000000  0.000000  0.069638      1.000000
  0.024201  0.000000  0.069638      4.000000
  0.048402  0.000000  0.069638      4.000000
  0.072603  0.000000  0.069638      2.000000
  0.024201  0.024201  0.069638      4.000000
  0.048402  0.024201  0.069638      8.000000
  0.072603  0.024201  0.069638      4.000000
  0.048402  0.048402  0.069638      4.000000
  0.072603  0.048402  0.069638      4.000000
  0.072603  0.072603  0.069638      1.000000
 
 
 Subroutine IBZKPT_HF returns following result:
 ==============================================
 
 Found    216 k-points in 1st BZ
 the following    216 k-points will be used (e.g. in the exchange kernel)
 Following reciprocal coordinates:   # in IRBZ
  0.000000  0.000000  0.000000    0.00462963   1 t-inv F
  0.166667  0.000000  0.000000    0.00462963   2 t-inv F
  0.333333  0.000000  0.000000    0.00462963   3 t-inv F
  0.500000  0.000000  0.000000    0.00462963   4 t-inv F
  0.166667  0.166667  0.000000    0.00462963   5 t-inv F
  0.333333  0.166667  0.000000    0.00462963   6 t-inv F
  0.500000  0.166667  0.000000    0.00462963   7 t-inv F
  0.333333  0.333333  0.000000    0.00462963   8 t-inv F
  0.500000  0.333333  0.000000    0.00462963   9 t-inv F
  0.500000  0.500000  0.000000    0.00462963  10 t-inv F
  0.000000  0.000000  0.166667    0.00462963  11 t-inv F
  0.166667  0.000000  0.166667    0.00462963  12 t-inv F
  0.333333  0.000000  0.166667    0.00462963  13 t-inv F
  0.500000  0.000000  0.166667    0.00462963  14 t-inv F
  0.166667  0.166667  0.166667    0.00462963  15 t-inv F
  0.333333  0.166667  0.166667    0.00462963  16 t-inv F
  0.500000  0.166667  0.166667    0.00462963  17 t-inv F
  0.333333  0.333333  0.166667    0.00462963  18 t-inv F
  0.500000  0.333333  0.166667    0.00462963  19 t-inv F
  0.500000  0.500000  0.166667    0.00462963  20 t-inv F
  0.000000  0.000000  0.333333    0.00462963  21 t-inv F
  0.166667  0.000000  0.333333    0.00462963  22 t-inv F
  0.333333  0.000000  0.333333    0.00462963  23 t-inv F
  0.500000  0.000000  0.333333    0.00462963  24 t-inv F
  0.166667  0.166667  0.333333    0.00462963  25 t-inv F
  0.333333  0.166667  0.333333    0.00462963  26 t-inv F
  0.500000  0.166667  0.333333    0.00462963  27 t-inv F
  0.333333  0.333333  0.333333    0.00462963  28 t-inv F
  0.500000  0.333333  0.333333    0.00462963  29 t-inv F
  0.500000  0.500000  0.333333    0.00462963  30 t-inv F
  0.000000  0.000000  0.500000    0.00462963  31 t-inv F
  0.166667  0.000000  0.500000    0.00462963  32 t-inv F
  0.333333  0.000000  0.500000    0.00462963  33 t-inv F
  0.500000  0.000000  0.500000    0.00462963  34 t-inv F
  0.166667  0.166667  0.500000    0.00462963  35 t-inv F
  0.333333  0.166667  0.500000    0.00462963  36 t-inv F
  0.500000  0.166667  0.500000    0.00462963  37 t-inv F
  0.333333  0.333333  0.500000    0.00462963  38 t-inv F
  0.500000  0.333333  0.500000    0.00462963  39 t-inv F
  0.500000  0.500000  0.500000    0.00462963  40 t-inv F
  0.000000 -0.166667  0.000000    0.00462963   2 t-inv F
 -0.166667  0.000000  0.000000    0.00462963   2 t-inv F
  0.000000  0.166667  0.000000    0.00462963   2 t-inv F
  0.000000 -0.333333  0.000000    0.00462963   3 t-inv F
 -0.333333  0.000000  0.000000    0.00462963   3 t-inv F
  0.000000  0.333333  0.000000    0.00462963   3 t-inv F
  0.000000 -0.500000  0.000000    0.00462963   4 t-inv F
  0.166667 -0.166667  0.000000    0.00462963   5 t-inv F
 -0.166667 -0.166667  0.000000    0.00462963   5 t-inv F
 -0.166667  0.166667  0.000000    0.00462963   5 t-inv F
  0.166667 -0.333333  0.000000    0.00462963   6 t-inv F
 -0.333333 -0.166667  0.000000    0.00462963   6 t-inv F
 -0.166667  0.333333  0.000000    0.00462963   6 t-inv F
 -0.333333  0.166667  0.000000    0.00462963   6 t-inv F
 -0.166667 -0.333333  0.000000    0.00462963   6 t-inv F
  0.333333 -0.166667  0.000000    0.00462963   6 t-inv F
  0.166667  0.333333  0.000000    0.00462963   6 t-inv F
  0.166667 -0.500000  0.000000    0.00462963   7 t-inv F
 -0.500000 -0.166667  0.000000    0.00462963   7 t-inv F
 -0.166667  0.500000  0.000000    0.00462963   7 t-inv F
  0.333333 -0.333333  0.000000    0.00462963   8 t-inv F
 -0.333333 -0.333333  0.000000    0.00462963   8 t-inv F
 -0.333333  0.333333  0.000000    0.00462963   8 t-inv F
  0.333333 -0.500000  0.000000    0.00462963   9 t-inv F
 -0.500000 -0.333333  0.000000    0.00462963   9 t-inv F
 -0.333333  0.500000  0.000000    0.00462963   9 t-inv F
  0.000000  0.000000 -0.166667    0.00462963  11 t-inv F
  0.000000 -0.166667 -0.166667    0.00462963  12 t-inv F
 -0.166667  0.000000  0.166667    0.00462963  12 t-inv F
  0.000000  0.166667 -0.166667    0.00462963  12 t-inv F
 -0.166667  0.000000 -0.166667    0.00462963  12 t-inv F
  0.000000 -0.166667  0.166667    0.00462963  12 t-inv F
  0.166667  0.000000 -0.166667    0.00462963  12 t-inv F
  0.000000  0.166667  0.166667    0.00462963  12 t-inv F
  0.000000 -0.333333 -0.166667    0.00462963  13 t-inv F
 -0.333333  0.000000  0.166667    0.00462963  13 t-inv F
  0.000000  0.333333 -0.166667    0.00462963  13 t-inv F
 -0.333333  0.000000 -0.166667    0.00462963  13 t-inv F
  0.000000 -0.333333  0.166667    0.00462963  13 t-inv F
  0.333333  0.000000 -0.166667    0.00462963  13 t-inv F
  0.000000  0.333333  0.166667    0.00462963  13 t-inv F
  0.000000 -0.500000 -0.166667    0.00462963  14 t-inv F
 -0.500000  0.000000 -0.166667    0.00462963  14 t-inv F
  0.000000 -0.500000  0.166667    0.00462963  14 t-inv F
  0.166667 -0.166667 -0.166667    0.00462963  15 t-inv F
 -0.166667 -0.166667  0.166667    0.00462963  15 t-inv F
 -0.166667  0.166667 -0.166667    0.00462963  15 t-inv F
 -0.166667 -0.166667 -0.166667    0.00462963  15 t-inv F
 -0.166667  0.166667  0.166667    0.00462963  15 t-inv F
  0.166667  0.166667 -0.166667    0.00462963  15 t-inv F
  0.166667 -0.166667  0.166667    0.00462963  15 t-inv F
  0.166667 -0.333333 -0.166667    0.00462963  16 t-inv F
 -0.333333 -0.166667  0.166667    0.00462963  16 t-inv F
 -0.166667  0.333333 -0.166667    0.00462963  16 t-inv F
 -0.333333  0.166667 -0.166667    0.00462963  16 t-inv F
 -0.166667 -0.333333  0.166667    0.00462963  16 t-inv F
  0.333333 -0.166667 -0.166667    0.00462963  16 t-inv F
  0.166667  0.333333  0.166667    0.00462963  16 t-inv F
 -0.333333 -0.166667 -0.166667    0.00462963  16 t-inv F
 -0.166667  0.333333  0.166667    0.00462963  16 t-inv F
  0.333333  0.166667 -0.166667    0.00462963  16 t-inv F
  0.166667 -0.333333  0.166667    0.00462963  16 t-inv F
  0.333333 -0.166667  0.166667    0.00462963  16 t-inv F
  0.166667  0.333333 -0.166667    0.00462963  16 t-inv F
 -0.333333  0.166667  0.166667    0.00462963  16 t-inv F
 -0.166667 -0.333333 -0.166667    0.00462963  16 t-inv F
  0.166667 -0.500000 -0.166667    0.00462963  17 t-inv F
 -0.500000 -0.166667  0.166667    0.00462963  17 t-inv F
 -0.166667  0.500000 -0.166667    0.00462963  17 t-inv F
 -0.500000  0.166667 -0.166667    0.00462963  17 t-inv F
 -0.166667 -0.500000  0.166667    0.00462963  17 t-inv F
  0.500000 -0.166667 -0.166667    0.00462963  17 t-inv F
  0.166667  0.500000  0.166667    0.00462963  17 t-inv F
  0.333333 -0.333333 -0.166667    0.00462963  18 t-inv F
 -0.333333 -0.333333  0.166667    0.00462963  18 t-inv F
 -0.333333  0.333333 -0.166667    0.00462963  18 t-inv F
 -0.333333 -0.333333 -0.166667    0.00462963  18 t-inv F
 -0.333333  0.333333  0.166667    0.00462963  18 t-inv F
  0.333333  0.333333 -0.166667    0.00462963  18 t-inv F
  0.333333 -0.333333  0.166667    0.00462963  18 t-inv F
  0.333333 -0.500000 -0.166667    0.00462963  19 t-inv F
 -0.500000 -0.333333  0.166667    0.00462963  19 t-inv F
 -0.333333  0.500000 -0.166667    0.00462963  19 t-inv F
 -0.500000  0.333333 -0.166667    0.00462963  19 t-inv F
 -0.333333 -0.500000  0.166667    0.00462963  19 t-inv F
  0.500000 -0.333333 -0.166667    0.00462963  19 t-inv F
  0.333333  0.500000  0.166667    0.00462963  19 t-inv F
  0.500000 -0.500000 -0.166667    0.00462963  20 t-inv F
  0.000000  0.000000 -0.333333    0.00462963  21 t-inv F
  0.000000 -0.166667 -0.333333    0.00462963  22 t-inv F
 -0.166667  0.000000  0.333333    0.00462963  22 t-inv F
  0.000000  0.166667 -0.333333    0.00462963  22 t-inv F
 -0.166667  0.000000 -0.333333    0.00462963  22 t-inv F
  0.000000 -0.166667  0.333333    0.00462963  22 t-inv F
  0.166667  0.000000 -0.333333    0.00462963  22 t-inv F
  0.000000  0.166667  0.333333    0.00462963  22 t-inv F
  0.000000 -0.333333 -0.333333    0.00462963  23 t-inv F
 -0.333333  0.000000  0.333333    0.00462963  23 t-inv F
  0.000000  0.333333 -0.333333    0.00462963  23 t-inv F
 -0.333333  0.000000 -0.333333    0.00462963  23 t-inv F
  0.000000 -0.333333  0.333333    0.00462963  23 t-inv F
  0.333333  0.000000 -0.333333    0.00462963  23 t-inv F
  0.000000  0.333333  0.333333    0.00462963  23 t-inv F
  0.000000 -0.500000 -0.333333    0.00462963  24 t-inv F
 -0.500000  0.000000 -0.333333    0.00462963  24 t-inv F
  0.000000 -0.500000  0.333333    0.00462963  24 t-inv F
  0.166667 -0.166667 -0.333333    0.00462963  25 t-inv F
 -0.166667 -0.166667  0.333333    0.00462963  25 t-inv F
 -0.166667  0.166667 -0.333333    0.00462963  25 t-inv F
 -0.166667 -0.166667 -0.333333    0.00462963  25 t-inv F
 -0.166667  0.166667  0.333333    0.00462963  25 t-inv F
  0.166667  0.166667 -0.333333    0.00462963  25 t-inv F
  0.166667 -0.166667  0.333333    0.00462963  25 t-inv F
  0.166667 -0.333333 -0.333333    0.00462963  26 t-inv F
 -0.333333 -0.166667  0.333333    0.00462963  26 t-inv F
 -0.166667  0.333333 -0.333333    0.00462963  26 t-inv F
 -0.333333  0.166667 -0.333333    0.00462963  26 t-inv F
 -0.166667 -0.333333  0.333333    0.00462963  26 t-inv F
  0.333333 -0.166667 -0.333333    0.00462963  26 t-inv F
  0.166667  0.333333  0.333333    0.00462963  26 t-inv F
 -0.333333 -0.166667 -0.333333    0.00462963  26 t-inv F
 -0.166667  0.333333  0.333333    0.00462963  26 t-inv F
  0.333333  0.166667 -0.333333    0.00462963  26 t-inv F
  0.166667 -0.333333  0.333333    0.00462963  26 t-inv F
  0.333333 -0.166667  0.333333    0.00462963  26 t-inv F
  0.166667  0.333333 -0.333333    0.00462963  26 t-inv F
 -0.333333  0.166667  0.333333    0.00462963  26 t-inv F
 -0.166667 -0.333333 -0.333333    0.00462963  26 t-inv F
  0.166667 -0.500000 -0.333333    0.00462963  27 t-inv F
 -0.500000 -0.166667  0.333333    0.00462963  27 t-inv F
 -0.166667  0.500000 -0.333333    0.00462963  27 t-inv F
 -0.500000  0.166667 -0.333333    0.00462963  27 t-inv F
 -0.166667 -0.500000  0.333333    0.00462963  27 t-inv F
  0.500000 -0.166667 -0.333333    0.00462963  27 t-inv F
  0.166667  0.500000  0.333333    0.00462963  27 t-inv F
  0.333333 -0.333333 -0.333333    0.00462963  28 t-inv F
 -0.333333 -0.333333  0.333333    0.00462963  28 t-inv F
 -0.333333  0.333333 -0.333333    0.00462963  28 t-inv F
 -0.333333 -0.333333 -0.333333    0.00462963  28 t-inv F
 -0.333333  0.333333  0.333333    0.00462963  28 t-inv F
  0.333333  0.333333 -0.333333    0.00462963  28 t-inv F
  0.333333 -0.333333  0.333333    0.00462963  28 t-inv F
  0.333333 -0.500000 -0.333333    0.00462963  29 t-inv F
 -0.500000 -0.333333  0.333333    0.00462963  29 t-inv F
 -0.333333  0.500000 -0.333333    0.00462963  29 t-inv F
 -0.500000  0.333333 -0.333333    0.00462963  29 t-inv F
 -0.333333 -0.500000  0.333333    0.00462963  29 t-inv F
  0.500000 -0.333333 -0.333333    0.00462963  29 t-inv F
  0.333333  0.500000  0.333333    0.00462963  29 t-inv F
  0.500000 -0.500000 -0.333333    0.00462963  30 t-inv F
  0.000000 -0.166667 -0.500000    0.00462963  32 t-inv F
 -0.166667  0.000000  0.500000    0.00462963  32 t-inv F
  0.000000  0.166667 -0.500000    0.00462963  32 t-inv F
  0.000000 -0.333333 -0.500000    0.00462963  33 t-inv F
 -0.333333  0.000000  0.500000    0.00462963  33 t-inv F
  0.000000  0.333333 -0.500000    0.00462963  33 t-inv F
  0.000000 -0.500000 -0.500000    0.00462963  34 t-inv F
  0.166667 -0.166667 -0.500000    0.00462963  35 t-inv F
 -0.166667 -0.166667  0.500000    0.00462963  35 t-inv F
 -0.166667  0.166667 -0.500000    0.00462963  35 t-inv F
  0.166667 -0.333333 -0.500000    0.00462963  36 t-inv F
 -0.333333 -0.166667  0.500000    0.00462963  36 t-inv F
 -0.166667  0.333333 -0.500000    0.00462963  36 t-inv F
 -0.333333  0.166667 -0.500000    0.00462963  36 t-inv F
 -0.166667 -0.333333  0.500000    0.00462963  36 t-inv F
  0.333333 -0.166667 -0.500000    0.00462963  36 t-inv F
  0.166667  0.333333  0.500000    0.00462963  36 t-inv F
  0.166667 -0.500000 -0.500000    0.00462963  37 t-inv F
 -0.500000 -0.166667  0.500000    0.00462963  37 t-inv F
 -0.166667  0.500000 -0.500000    0.00462963  37 t-inv F
  0.333333 -0.333333 -0.500000    0.00462963  38 t-inv F
 -0.333333 -0.333333  0.500000    0.00462963  38 t-inv F
 -0.333333  0.333333 -0.500000    0.00462963  38 t-inv F
  0.333333 -0.500000 -0.500000    0.00462963  39 t-inv F
 -0.500000 -0.333333  0.500000    0.00462963  39 t-inv F
 -0.333333  0.500000 -0.500000    0.00462963  39 t-inv F


--------------------------------------------------------------------------------------------------------




 Dimension of arrays:
   k-points           NKPTS =     40   k-points in BZ     NKDIM =     40   number of bands    NBANDS=    192
   number of dos      NEDOS =    301   number of ions     NIONS =     64
   non local maximal  LDIM  =      4   non local SUM 2l+1 LMDIM =      8
   total plane-waves  NPLWV = 110592
   max r-space proj   IRMAX =      1   max aug-charges    IRDMAX=  30855
   dimension x,y,z NGX =    48 NGY =   48 NGZ =   48
   dimension x,y,z NGXF=    96 NGYF=   96 NGZF=   96
   support grid    NGXF=   192 NGYF=  192 NGZF=  192
   ions per type =              64
   NGX,Y,Z   is equivalent  to a cutoff of  11.59, 11.59, 11.11 a.u.
   NGXF,Y,Z  is equivalent  to a cutoff of  23.17, 23.17, 22.23 a.u.

 SYSTEM =  unknown system                          
 POSCAR =  generated by phonopy                    

 Startparameter for this run:
   NWRITE =      2    write-flag & timer
   PREC   = accura    normal or accurate (medium, high low for compatibility)
   ISTART =      0    job   : 0-new  1-cont  2-samecut
   ICHARG =      2    charge: 1-file 2-atom 10-const
   ISPIN  =      1    spin polarized calculation?
   LNONCOLLINEAR =      F non collinear calculations
   LSORBIT =      F    spin-orbit coupling
   INIWAV =      1    electr: 0-lowe 1-rand  2-diag
   LASPH  =      F    aspherical Exc in radial PAW
   METAGGA=      F    non-selfconsistent MetaGGA calc.

 Electronic Relaxation 1
   ENCUT  =  400.0 eV  29.40 Ry    5.42 a.u.  11.23 11.23 11.71*2*pi/ulx,y,z
   ENINI  =  400.0     initial cutoff
   ENAUG  =  644.9 eV  augmentation charge cutoff
   NELM   =     60;   NELMIN=  2; NELMDL= -5     # of ELM steps 
   EDIFF  = 0.1E-07   stopping-criterion for ELM
   LREAL  =      F    real-space projection
   NLSPLINE    = F    spline interpolate recip. space projectors
   LCOMPAT=      F    compatible to vasp.4.4
   GGA_COMPAT  = T    GGA compatible to vasp.4.4-vasp.4.6
   LMAXPAW     = -100 max onsite density
   LMAXMIX     =    2 max onsite mixed and CHGCAR
   VOSKOWN=      0    Vosko Wilk Nusair interpolation
   ROPT   =    0.00000
 Ionic relaxation
   EDIFFG = 0.1E-06   stopping-criterion for IOM
   NSW    =      1    number of steps for IOM
   NBLOCK =      1;   KBLOCK =      1    inner block; outer block 
   IBRION =      8    ionic relax: 0-MD 1-quasi-New 2-CG
   NFREE  =      0    steps in history (QN), initial steepest desc. (CG)
   ISIF   =      2    stress and relaxation
   IWAVPR =     11    prediction:  0-non 1-charg 2-wave 3-comb
   ISYM   =      2    0-nonsym 1-usesym 2-fastsym
   LCORR  =      T    Harris-Foulkes like correction to forces

   POTIM  = 0.5000    time-step for ionic-motion
   TEIN   =    0.0    initial temperature
   TEBEG  =    0.0;   TEEND  =   0.0 temperature during run
   SMASS  =  -3.00    Nose mass-parameter (am)
   estimated Nose-frequenzy (Omega)   =  0.10E-29 period in steps =****** mass=  -0.108E-26a.u.
   SCALEE = 1.0000    scale energy and forces
   NPACO  =    256;   APACO  = 16.0  distance and # of slots for P.C.
   PSTRESS=    0.0 pullay stress

  Mass of Ions in am
   POMASS =  12.01
  Ionic Valenz
   ZVAL   =   4.00
  Atomic Wigner-Seitz radii
   RWIGS  =  -1.00
  virtual crystal weights 
   VCA    =   1.00
   NELECT =     256.0000    total number of electrons
   NUPDOWN=      -1.0000    fix difference up-down

 DOS related values:
   EMIN   =  10.00;   EMAX   =-10.00  energy-range for DOS
   EFERMI =   0.00
   ISMEAR =     0;   SIGMA  =   0.06  broadening in eV -4-tet -1-fermi 0-gaus

 Electronic relaxation 2 (details)
   IALGO  =     38    algorithm
   LDIAG  =      T    sub-space diagonalisation (order eigenvalues)
   LSUBROT=      F    optimize rotation matrix (better conditioning)
   TURBO    =      0    0=normal 1=particle mesh
   IRESTART =      0    0=no restart 2=restart with 2 vectors
   NREBOOT  =      0    no. of reboots
   NMIN     =      0    reboot dimension
   EREF     =   0.00    reference energy to select bands
   IMIX   =      4    mixing-type and parameters
     AMIX     =   0.40;   BMIX     =  1.00
     AMIX_MAG =   1.60;   BMIX_MAG =  1.00
     AMIN     =   0.10
     WC   =   100.;   INIMIX=   1;  MIXPRE=   1;  MAXMIX= -45

 Intra band minimization:
   WEIMIN = 0.0010     energy-eigenvalue tresh-hold
   EBREAK =  0.13E-10  absolut break condition
   DEPER  =   0.30     relativ break condition  

   TIME   =   0.40     timestep for ELM

  volume/ion in A,a.u.               =       5.32        35.91
  Fermi-wavevector in a.u.,A,eV,Ry     =   1.488565  2.812980 30.148148  2.215826
  Thomas-Fermi vector in A             =   2.601584
 
 Write flags
   LWAVE        =      F    write WAVECAR
   LDOWNSAMPLE  =      F    k-point downsampling of WAVECAR
   LCHARG       =      F    write CHGCAR
   LVTOT        =      F    write LOCPOT, total local potential
   LVHAR        =      F    write LOCPOT, Hartree potential only
   LELF         =      F    write electronic localiz. function (ELF)
   LORBIT       =      0    0 simple, 1 ext, 2 COOP (PROOUT), +10 PAW based schemes


 Dipole corrections
   LMONO  =      F    monopole corrections only (constant potential shift)
   LDIPOL =      F    correct potential (dipole corrections)
   IDIPOL =      0    1-x, 2-y, 3-z, 4-all directions 
   EPSILON=  1.0000000 bulk dielectric constant

 Exchange correlation treatment:
   GGA     =    --    GGA type
   LEXCH   =     8    internal setting for exchange type
   VOSKOWN=      0    Vosko Wilk Nusair interpolation
   LHFCALC =     F    Hartree Fock is set to
   LHFONE  =     F    Hartree Fock one center treatment
   AEXX    =    0.0000 exact exchange contribution

 Linear response parameters
   LEPSILON=     F    determine dielectric tensor
   LRPA    =     F    only Hartree local field effects (RPA)
   LNABLA  =     F    use nabla operator in PAW spheres
   LVEL    =     F    velocity operator in full k-point grid
   LINTERFAST=   F  fast interpolation
   KINTER  =     0    interpolate to denser k-point grid
   CSHIFT  =0.1000    complex shift for real part using Kramers Kronig
   OMEGAMAX=  -1.0    maximum frequency
   DEG_THRESHOLD= 0.2000000E-02 threshold for treating states as degnerate
   RTIME   =   -0.100 relaxation time in fs
  (WPLASMAI=    0.000 imaginary part of plasma frequency in eV, 0.658/RTIME)
   DFIELD  = 0.0000000 0.0000000 0.0000000 field for delta impulse in time
 
 Orbital magnetization related:
   ORBITALMAG=     F  switch on orbital magnetization
   LCHIMAG   =     F  perturbation theory with respect to B field
   DQ        =  0.001000  dq finite difference perturbation B field
   LLRAUG    =     F  two centre corrections for induced B field



--------------------------------------------------------------------------------------------------------


 linear response using symmetry
 charge density and potential will be updated during run
 non-spin polarized calculation
 Variant of blocked Davidson
 Davidson routine will perform the subspace rotation
 perform sub-space diagonalisation
    after iterative eigenvector-optimisation
 modified Broyden-mixing scheme, WC =      100.0
 initial mixing is a Kerker type mixing with AMIX =  0.4000 and BMIX =      1.0000
 Hartree-type preconditioning will be used
 using additional bands           64
 reciprocal scheme for non local part
 calculate Harris-corrections to forces 
   (improved forces if not selfconsistent)
 use gradient corrections 
 use of overlap-Matrix (Vanderbilt PP)
 Gauss-broadening in eV      SIGMA  =   0.06


--------------------------------------------------------------------------------------------------------


  energy-cutoff  :      400.00
  volume of cell :      340.53
      direct lattice vectors                 reciprocal lattice vectors
     6.886812407  0.000000000  0.000000000     0.145205059  0.000000000  0.000000000
     0.000000000  6.886812407  0.000000000     0.000000000  0.145205059  0.000000000
     0.000000000  0.000000000  7.179998718     0.000000000  0.000000000  0.139275791

  length of vectors
     6.886812407  6.886812407  7.179998718     0.145205059  0.145205059  0.139275791


 
 k-points in units of 2pi/SCALE and weight: kpt_density=3000                        
   0.00000000  0.00000000  0.00000000       0.005
   0.02420084  0.00000000  0.00000000       0.019
   0.04840169  0.00000000  0.00000000       0.019
   0.07260253  0.00000000  0.00000000       0.009
   0.02420084  0.02420084  0.00000000       0.019
   0.04840169  0.02420084  0.00000000       0.037
   0.07260253  0.02420084  0.00000000       0.019
   0.04840169  0.04840169  0.00000000       0.019
   0.07260253  0.04840169  0.00000000       0.019
   0.07260253  0.07260253  0.00000000       0.005
   0.00000000  0.00000000  0.02321263       0.009
   0.02420084  0.00000000  0.02321263       0.037
   0.04840169  0.00000000  0.02321263       0.037
   0.07260253  0.00000000  0.02321263       0.019
   0.02420084  0.02420084  0.02321263       0.037
   0.04840169  0.02420084  0.02321263       0.074
   0.07260253  0.02420084  0.02321263       0.037
   0.04840169  0.04840169  0.02321263       0.037
   0.07260253  0.04840169  0.02321263       0.037
   0.07260253  0.07260253  0.02321263       0.009
   0.00000000  0.00000000  0.04642526       0.009
   0.02420084  0.00000000  0.04642526       0.037
   0.04840169  0.00000000  0.04642526       0.037
   0.07260253  0.00000000  0.04642526       0.019
   0.02420084  0.02420084  0.04642526       0.037
   0.04840169  0.02420084  0.04642526       0.074
   0.07260253  0.02420084  0.04642526       0.037
   0.04840169  0.04840169  0.04642526       0.037
   0.07260253  0.04840169  0.04642526       0.037
   0.07260253  0.07260253  0.04642526       0.009
   0.00000000  0.00000000  0.06963790       0.005
   0.02420084  0.00000000  0.06963790       0.019
   0.04840169  0.00000000  0.06963790       0.019
   0.07260253  0.00000000  0.06963790       0.009
   0.02420084  0.02420084  0.06963790       0.019
   0.04840169  0.02420084  0.06963790       0.037
   0.07260253  0.02420084  0.06963790       0.019
   0.04840169  0.04840169  0.06963790       0.019
   0.07260253  0.04840169  0.06963790       0.019
   0.07260253  0.07260253  0.06963790       0.005
 
 k-points in reciprocal lattice and weights: kpt_density=3000                        
   0.00000000  0.00000000  0.00000000       0.005
   0.16666667  0.00000000  0.00000000       0.019
   0.33333333  0.00000000  0.00000000       0.019
   0.50000000  0.00000000  0.00000000       0.009
   0.16666667  0.16666667  0.00000000       0.019
   0.33333333  0.16666667  0.00000000       0.037
   0.50000000  0.16666667  0.00000000       0.019
   0.33333333  0.33333333  0.00000000       0.019
   0.50000000  0.33333333  0.00000000       0.019
   0.50000000  0.50000000  0.00000000       0.005
   0.00000000  0.00000000  0.16666667       0.009
   0.16666667  0.00000000  0.16666667       0.037
   0.33333333  0.00000000  0.16666667       0.037
   0.50000000  0.00000000  0.16666667       0.019
   0.16666667  0.16666667  0.16666667       0.037
   0.33333333  0.16666667  0.16666667       0.074
   0.50000000  0.16666667  0.16666667       0.037
   0.33333333  0.33333333  0.16666667       0.037
   0.50000000  0.33333333  0.16666667       0.037
   0.50000000  0.50000000  0.16666667       0.009
   0.00000000  0.00000000  0.33333333       0.009
   0.16666667  0.00000000  0.33333333       0.037
   0.33333333  0.00000000  0.33333333       0.037
   0.50000000  0.00000000  0.33333333       0.019
   0.16666667  0.16666667  0.33333333       0.037
   0.33333333  0.16666667  0.33333333       0.074
   0.50000000  0.16666667  0.33333333       0.037
   0.33333333  0.33333333  0.33333333       0.037
   0.50000000  0.33333333  0.33333333       0.037
   0.50000000  0.50000000  0.33333333       0.009
   0.00000000  0.00000000  0.50000000       0.005
   0.16666667  0.00000000  0.50000000       0.019
   0.33333333  0.00000000  0.50000000       0.019
   0.50000000  0.00000000  0.50000000       0.009
   0.16666667  0.16666667  0.50000000       0.019
   0.33333333  0.16666667  0.50000000       0.037
   0.50000000  0.16666667  0.50000000       0.019
   0.33333333  0.33333333  0.50000000       0.019
   0.50000000  0.33333333  0.50000000       0.019
   0.50000000  0.50000000  0.50000000       0.005
 
 position of ions in fractional coordinates (direct lattice) 
   0.12500000  0.37500000  0.12500000
   0.62500000  0.37500000  0.12500000
   0.12500000  0.87500000  0.12500000
   0.62500000  0.87500000  0.12500000
   0.12500000  0.37500000  0.62500000
   0.62500000  0.37500000  0.62500000
   0.12500000  0.87500000  0.62500000
   0.62500000  0.87500000  0.62500000
   0.00000000  0.00000000  0.25000000
   0.50000000  0.00000000  0.25000000
   0.00000000  0.50000000  0.25000000
   0.50000000  0.50000000  0.25000000
   0.00000000  0.00000000  0.75000000
   0.50000000  0.00000000  0.75000000
   0.00000000  0.50000000  0.75000000
   0.50000000  0.50000000  0.75000000
   0.12500000  0.12500000  0.37500000
   0.62500000  0.12500000  0.37500000
   0.12500000  0.62500000  0.37500000
   0.62500000  0.62500000  0.37500000
   0.12500000  0.12500000  0.87500000
   0.62500000  0.12500000  0.87500000
   0.12500000  0.62500000  0.87500000
   0.62500000  0.62500000  0.87500000
   0.00000000  0.25000000  0.00000000
   0.50000000  0.25000000  0.00000000
   0.00000000  0.75000000  0.00000000
   0.50000000  0.75000000  0.00000000
   0.00000000  0.25000000  0.50000000
   0.50000000  0.25000000  0.50000000
   0.00000000  0.75000000  0.50000000
   0.50000000  0.75000000  0.50000000
   0.37500000  0.37500000  0.37500000
   0.87500000  0.37500000  0.37500000
   0.37500000  0.87500000  0.37500000
   0.87500000  0.87500000  0.37500000
   0.37500000  0.37500000  0.87500000
   0.87500000  0.37500000  0.87500000
   0.37500000  0.87500000  0.87500000
   0.87500000  0.87500000  0.87500000
   0.25000000  0.00000000  0.00000000
   0.75000000  0.00000000  0.00000000
   0.25000000  0.50000000  0.00000000
   0.75000000  0.50000000  0.00000000
   0.25000000  0.00000000  0.50000000
   0.75000000  0.00000000  0.50000000
   0.25000000  0.50000000  0.50000000
   0.75000000  0.50000000  0.50000000
   0.37500000  0.12500000  0.12500000
   0.87500000  0.12500000  0.12500000
   0.37500000  0.62500000  0.12500000
   0.87500000  0.62500000  0.12500000
   0.37500000  0.12500000  0.62500000
   0.87500000  0.12500000  0.62500000
   0.37500000  0.62500000  0.62500000
   0.87500000  0.62500000  0.62500000
   0.25000000  0.25000000  0.25000000
   0.75000000  0.25000000  0.25000000
   0.25000000  0.75000000  0.25000000
   0.75000000  0.75000000  0.25000000
   0.25000000  0.25000000  0.75000000
   0.75000000  0.25000000  0.75000000
   0.25000000  0.75000000  0.75000000
   0.75000000  0.75000000  0.75000000
 
 position of ions in cartesian coordinates  (Angst):
   0.86085155  2.58255465  0.89749984
   4.30425775  2.58255465  0.89749984
   0.86085155  6.02596086  0.89749984
   4.30425775  6.02596086  0.89749984
   0.86085155  2.58255465  4.48749920
   4.30425775  2.58255465  4.48749920
   0.86085155  6.02596086  4.48749920
   4.30425775  6.02596086  4.48749920
   0.00000000  0.00000000  1.79499968
   3.44340620  0.00000000  1.79499968
   0.00000000  3.44340620  1.79499968
   3.44340620  3.44340620  1.79499968
   0.00000000  0.00000000  5.38499904
   3.44340620  0.00000000  5.38499904
   0.00000000  3.44340620  5.38499904
   3.44340620  3.44340620  5.38499904
   0.86085155  0.86085155  2.69249952
   4.30425775  0.86085155  2.69249952
   0.86085155  4.30425775  2.69249952
   4.30425775  4.30425775  2.69249952
   0.86085155  0.86085155  6.28249888
   4.30425775  0.86085155  6.28249888
   0.86085155  4.30425775  6.28249888
   4.30425775  4.30425775  6.28249888
   0.00000000  1.72170310  0.00000000
   3.44340620  1.72170310  0.00000000
   0.00000000  5.16510930  0.00000000
   3.44340620  5.16510930  0.00000000
   0.00000000  1.72170310  3.58999936
   3.44340620  1.72170310  3.58999936
   0.00000000  5.16510930  3.58999936
   3.44340620  5.16510930  3.58999936
   2.58255465  2.58255465  2.69249952
   6.02596086  2.58255465  2.69249952
   2.58255465  6.02596086  2.69249952
   6.02596086  6.02596086  2.69249952
   2.58255465  2.58255465  6.28249888
   6.02596086  2.58255465  6.28249888
   2.58255465  6.02596086  6.28249888
   6.02596086  6.02596086  6.28249888
   1.72170310  0.00000000  0.00000000
   5.16510930  0.00000000  0.00000000
   1.72170310  3.44340620  0.00000000
   5.16510930  3.44340620  0.00000000
   1.72170310  0.00000000  3.58999936
   5.16510930  0.00000000  3.58999936
   1.72170310  3.44340620  3.58999936
   5.16510930  3.44340620  3.58999936
   2.58255465  0.86085155  0.89749984
   6.02596086  0.86085155  0.89749984
   2.58255465  4.30425775  0.89749984
   6.02596086  4.30425775  0.89749984
   2.58255465  0.86085155  4.48749920
   6.02596086  0.86085155  4.48749920
   2.58255465  4.30425775  4.48749920
   6.02596086  4.30425775  4.48749920
   1.72170310  1.72170310  1.79499968
   5.16510930  1.72170310  1.79499968
   1.72170310  5.16510930  1.79499968
   5.16510930  5.16510930  1.79499968
   1.72170310  1.72170310  5.38499904
   5.16510930  1.72170310  5.38499904
   1.72170310  5.16510930  5.38499904
   5.16510930  5.16510930  5.38499904
 


--------------------------------------------------------------------------------------------------------


 k-point  1 :   0.0000 0.0000 0.0000  plane waves:    6215
 k-point  2 :   0.1667 0.0000 0.0000  plane waves:    6175
 k-point  3 :   0.3333 0.0000 0.0000  plane waves:    6186
 k-point  4 :   0.5000 0.0000 0.0000  plane waves:    6178
 k-point  5 :   0.1667 0.1667 0.0000  plane waves:    6174
 k-point  6 :   0.3333 0.1667 0.0000  plane waves:    6203
 k-point  7 :   0.5000 0.1667 0.0000  plane waves:    6188
 k-point  8 :   0.3333 0.3333 0.0000  plane waves:    6190
 k-point  9 :   0.5000 0.3333 0.0000  plane waves:    6184
 k-point 10 :   0.5000 0.5000 0.0000  plane waves:    6240
 k-point 11 :   0.0000 0.0000 0.1667  plane waves:    6187
 k-point 12 :   0.1667 0.0000 0.1667  plane waves:    6190
 k-point 13 :   0.3333 0.0000 0.1667  plane waves:    6203
 k-point 14 :   0.5000 0.0000 0.1667  plane waves:    6170
 k-point 15 :   0.1667 0.1667 0.1667  plane waves:    6189
 k-point 16 :   0.3333 0.1667 0.1667  plane waves:    6197
 k-point 17 :   0.5000 0.1667 0.1667  plane waves:    6190
 k-point 18 :   0.3333 0.3333 0.1667  plane waves:    6183
 k-point 19 :   0.5000 0.3333 0.1667  plane waves:    6184
 k-point 20 :   0.5000 0.5000 0.1667  plane waves:    6184
 k-point 21 :   0.0000 0.0000 0.3333  plane waves:    6168
 k-point 22 :   0.1667 0.0000 0.3333  plane waves:    6179
 k-point 23 :   0.3333 0.0000 0.3333  plane waves:    6195
 k-point 24 :   0.5000 0.0000 0.3333  plane waves:    6180
 k-point 25 :   0.1667 0.1667 0.3333  plane waves:    6182
 k-point 26 :   0.3333 0.1667 0.3333  plane waves:    6181
 k-point 27 :   0.5000 0.1667 0.3333  plane waves:    6174
 k-point 28 :   0.3333 0.3333 0.3333  plane waves:    6183
 k-point 29 :   0.5000 0.3333 0.3333  plane waves:    6182
 k-point 30 :   0.5000 0.5000 0.3333  plane waves:    6176
 k-point 31 :   0.0000 0.0000 0.5000  plane waves:    6168
 k-point 32 :   0.1667 0.0000 0.5000  plane waves:    6186
 k-point 33 :   0.3333 0.0000 0.5000  plane waves:    6180
 k-point 34 :   0.5000 0.0000 0.5000  plane waves:    6200
 k-point 35 :   0.1667 0.1667 0.5000  plane waves:    6176
 k-point 36 :   0.3333 0.1667 0.5000  plane waves:    6190
 k-point 37 :   0.5000 0.1667 0.5000  plane waves:    6204
 k-point 38 :   0.3333 0.3333 0.5000  plane waves:    6196
 k-point 39 :   0.5000 0.3333 0.5000  plane waves:    6184
 k-point 40 :   0.5000 0.5000 0.5000  plane waves:    6192

 maximum and minimum number of plane-waves per node :      6240     6168

 maximum number of plane-waves:      6240
 maximum index in each direction: 
   IXMAX=   11   IYMAX=   11   IZMAX=   11
   IXMIN=  -11   IYMIN=  -11   IZMIN=  -12


 serial   3D FFT for wavefunctions
 parallel 3D FFT for charge:
    minimum data exchange during FFTs selected (reduces bandwidth)


 total amount of memory used by VASP MPI-rank0    88830. kBytes
=======================================================================

   base      :      30000. kBytes
   nonl-proj :      22364. kBytes
   fftplans  :       4537. kBytes
   grid      :       5806. kBytes
   one-center:        196. kBytes
   wavefun   :      25927. kBytes
 
     INWAV:  cpu time    0.0004: real time    0.0005
 Broyden mixing: mesh for mixing (old mesh)
   NGX = 23   NGY = 23   NGZ = 23
  (NGX  = 96   NGY  = 96   NGZ  = 96)
  gives a total of  12167 points

 initial charge density was supplied:
 charge density of overlapping atoms calculated
 number of electron     256.0000000 magnetization 
 keeping initial charge density in first step


--------------------------------------------------------------------------------------------------------


 Maximum index for augmentation-charges         1151 (set IRDMAX)


--------------------------------------------------------------------------------------------------------


 First call to EWALD:  gamma=   0.254
 Maximum number of real-space cells 3x 3x 3
 Maximum number of reciprocal cells 3x 3x 3

    FEWALD:  cpu time    0.0082: real time    0.0082


--------------------------------------- Iteration      1(   1)  ---------------------------------------


    POTLOK:  cpu time    0.0634: real time    0.0683
    SETDIJ:  cpu time    0.0438: real time    0.0440
     EDDAV:  cpu time   25.8314: real time   25.8451
       DOS:  cpu time    0.0078: real time    0.0078
    --------------------------------------------
      LOOP:  cpu time   25.9465: real time   25.9652

 eigenvalue-minimisations  : 15360
 total energy-change (2. order) : 0.5176165E+03  (-0.1147568E+05)
 number of electron     256.0000000 magnetization 
 augmentation part      256.0000000 magnetization 

 Free energy of the ion-electron system (eV)
  ---------------------------------------------------
  alpha Z        PSCENC =       980.05617506
  Ewald energy   TEWEN  =    -11377.53803955
  -Hartree energ DENC   =      -518.53330460
  -exchange      EXHF   =         0.00000000
  -V(xc)+E(xc)   XCENC  =       928.28937583
  PAW double counting   =      2421.21235816    -2494.84305711
  entropy T*S    EENTRO =        -0.01056794
  eigenvalues    EBANDS =      1162.84119844
  atomic energy  EATOM  =      9416.14232778
  Solvation  Ediel_sol  =         0.00000000
  ---------------------------------------------------
  free energy    TOTEN  =       517.61646606 eV

  energy without entropy =      517.62703401  energy(sigma->0) =      517.62175003


--------------------------------------------------------------------------------------------------------




--------------------------------------- Iteration      1(   2)  ---------------------------------------


     EDDAV:  cpu time   31.6897: real time   31.6930
       DOS:  cpu time    0.0043: real time    0.0043
    --------------------------------------------
      LOOP:  cpu time   31.6940: real time   31.6972

 eigenvalue-minimisations  : 20128
 total energy-change (2. order) :-0.1080191E+04  (-0.1030685E+04)
 number of electron     256.0000000 magnetization 
 augmentation part      256.0000000 magnetization 

 Free energy of the ion-electron system (eV)
  ---------------------------------------------------
  alpha Z        PSCENC =       980.05617506
  Ewald energy   TEWEN  =    -11377.53803955
  -Hartree energ DENC   =      -518.53330460
  -exchange      EXHF   =         0.00000000
  -V(xc)+E(xc)   XCENC  =       928.28937583
  PAW double counting   =      2421.21235816    -2494.84305711
  entropy T*S    EENTRO =        -0.00000000
  eigenvalues    EBANDS =        82.63944441
  atomic energy  EATOM  =      9416.14232778
  Solvation  Ediel_sol  =         0.00000000
  ---------------------------------------------------
  free energy    TOTEN  =      -562.57472002 eV

  energy without entropy =     -562.57472002  energy(sigma->0) =     -562.57472002


--------------------------------------------------------------------------------------------------------




--------------------------------------- Iteration      1(   3)  ---------------------------------------


     EDDAV:  cpu time   32.9998: real time   33.0031
       DOS:  cpu time    0.0045: real time    0.0045
    --------------------------------------------
      LOOP:  cpu time   33.0043: real time   33.0076

 eigenvalue-minimisations  : 20288
 total energy-change (2. order) :-0.3972369E+02  (-0.3950227E+02)
 number of electron     256.0000000 magnetization 
 augmentation part      256.0000000 magnetization 

 Free energy of the ion-electron system (eV)
  ---------------------------------------------------
  alpha Z        PSCENC =       980.05617506
  Ewald energy   TEWEN  =    -11377.53803955
  -Hartree energ DENC   =      -518.53330460
  -exchange      EXHF   =         0.00000000
  -V(xc)+E(xc)   XCENC  =       928.28937583
  PAW double counting   =      2421.21235816    -2494.84305711
  entropy T*S    EENTRO =        -0.00000000
  eigenvalues    EBANDS =        42.91575408
  atomic energy  EATOM  =      9416.14232778
  Solvation  Ediel_sol  =         0.00000000
  ---------------------------------------------------
  free energy    TOTEN  =      -602.29841035 eV

  energy without entropy =     -602.29841035  energy(sigma->0) =     -602.29841035


--------------------------------------------------------------------------------------------------------




--------------------------------------- Iteration      1(   4)  ---------------------------------------


     EDDAV:  cpu time   32.5492: real time   32.5524
       DOS:  cpu time    0.0039: real time    0.0039
    --------------------------------------------
      LOOP:  cpu time   32.5531: real time   32.5563

 eigenvalue-minimisations  : 20064
 total energy-change (2. order) :-0.3854817E+00  (-0.3847220E+00)
 number of electron     256.0000000 magnetization 
 augmentation part      256.0000000 magnetization 

 Free energy of the ion-electron system (eV)
  ---------------------------------------------------
  alpha Z        PSCENC =       980.05617506
  Ewald energy   TEWEN  =    -11377.53803955
  -Hartree energ DENC   =      -518.53330460
  -exchange      EXHF   =         0.00000000
  -V(xc)+E(xc)   XCENC  =       928.28937583
  PAW double counting   =      2421.21235816    -2494.84305711
  entropy T*S    EENTRO =        -0.00000000
  eigenvalues    EBANDS =        42.53027242
  atomic energy  EATOM  =      9416.14232778
  Solvation  Ediel_sol  =         0.00000000
  ---------------------------------------------------
  free energy    TOTEN  =      -602.68389202 eV

  energy without entropy =     -602.68389202  energy(sigma->0) =     -602.68389202


--------------------------------------------------------------------------------------------------------




--------------------------------------- Iteration      1(   5)  ---------------------------------------


     EDDAV:  cpu time   30.5749: real time   30.5781
       DOS:  cpu time    0.0044: real time    0.0044
    CHARGE:  cpu time    0.7634: real time    0.7637
    MIXING:  cpu time    0.0039: real time    0.0039
    --------------------------------------------
      LOOP:  cpu time   31.3466: real time   31.3501

 eigenvalue-minimisations  : 19008
 total energy-change (2. order) :-0.7587075E-02  (-0.7583985E-02)
 number of electron     255.9999999 magnetization 
 augmentation part        6.7312016 magnetization 

 Broyden mixing:
  rms(total) = 0.28994E+01    rms(broyden)= 0.28988E+01
  rms(prec ) = 0.42245E+01
  weight for this iteration     100.00

 Free energy of the ion-electron system (eV)
  ---------------------------------------------------
  alpha Z        PSCENC =       980.05617506
  Ewald energy   TEWEN  =    -11377.53803955
  -Hartree energ DENC   =      -518.53330460
  -exchange      EXHF   =         0.00000000
  -V(xc)+E(xc)   XCENC  =       928.28937583
  PAW double counting   =      2421.21235816    -2494.84305711
  entropy T*S    EENTRO =        -0.00000000
  eigenvalues    EBANDS =        42.52268534
  atomic energy  EATOM  =      9416.14232778
  Solvation  Ediel_sol  =         0.00000000
  ---------------------------------------------------
  free energy    TOTEN  =      -602.69147909 eV

  energy without entropy =     -602.69147909  energy(sigma->0) =     -602.69147909


--------------------------------------------------------------------------------------------------------




--------------------------------------- Iteration      1(   6)  ---------------------------------------


    POTLOK:  cpu time    0.0604: real time    0.0608
    SETDIJ:  cpu time    0.0488: real time    0.0488
     EDDAV:  cpu time   29.8800: real time   29.8827
       DOS:  cpu time    0.0039: real time    0.0040
    CHARGE:  cpu time    0.7704: real time    0.7704
    MIXING:  cpu time    0.0051: real time    0.0051
    --------------------------------------------
      LOOP:  cpu time   30.7686: real time   30.7718

 eigenvalue-minimisations  : 17920
 total energy-change (2. order) : 0.1828734E+02  (-0.1189771E+01)
 number of electron     255.9999999 magnetization 
 augmentation part        6.5660219 magnetization 

 Broyden mixing:
  rms(total) = 0.15736E+01    rms(broyden)= 0.15736E+01
  rms(prec ) = 0.22762E+01
  weight for this iteration     100.00

 eigenvalues of (default mixing * dielectric matrix)
  average eigenvalue GAMMA=   2.1459
  2.1459

 Free energy of the ion-electron system (eV)
  ---------------------------------------------------
  alpha Z        PSCENC =       980.05617506
  Ewald energy   TEWEN  =    -11377.53803955
  -Hartree energ DENC   =      -646.27506043
  -exchange      EXHF   =         0.00000000
  -V(xc)+E(xc)   XCENC  =       940.33815445
  PAW double counting   =      3252.17130399    -3330.85844406
  entropy T*S    EENTRO =        -0.00000000
  eigenvalues    EBANDS =       181.55944525
  atomic energy  EATOM  =      9416.14232778
  Solvation  Ediel_sol  =         0.00000000
  ---------------------------------------------------
  free energy    TOTEN  =      -584.40413750 eV

  energy without entropy =     -584.40413750  energy(sigma->0) =     -584.40413750


--------------------------------------------------------------------------------------------------------




--------------------------------------- Iteration      1(   7)  ---------------------------------------


    POTLOK:  cpu time    0.0620: real time    0.0624
    SETDIJ:  cpu time    0.0415: real time    0.0415
     EDDAV:  cpu time   30.5888: real time   30.5916
       DOS:  cpu time    0.0044: real time    0.0718
    CHARGE:  cpu time    0.7613: real time    0.7614
    MIXING:  cpu time    0.0043: real time    0.0042
    --------------------------------------------
      LOOP:  cpu time   31.4622: real time   31.5328

 eigenvalue-minimisations  : 18688
 total energy-change (2. order) : 0.6160953E+01  (-0.1333417E+01)
 number of electron     255.9999999 magnetization 
 augmentation part        6.3921176 magnetization 

 Broyden mixing:
  rms(total) = 0.20083E+00    rms(broyden)= 0.19986E+00
  rms(prec ) = 0.24382E+00
  weight for this iteration     100.00

 eigenvalues of (default mixing * dielectric matrix)
  average eigenvalue GAMMA=   2.2759
  2.0141  2.5377

 Free energy of the ion-electron system (eV)
  ---------------------------------------------------
  alpha Z        PSCENC =       980.05617506
  Ewald energy   TEWEN  =    -11377.53803955
  -Hartree energ DENC   =      -809.67708455
  -exchange      EXHF   =         0.00000000
  -V(xc)+E(xc)   XCENC  =       955.88242355
  PAW double counting   =      4398.02815908    -4481.55181809
  entropy T*S    EENTRO =        -0.00000000
  eigenvalues    EBANDS =       340.41467173
  atomic energy  EATOM  =      9416.14232778
  Solvation  Ediel_sol  =         0.00000000
  ---------------------------------------------------
  free energy    TOTEN  =      -578.24318498 eV

  energy without entropy =     -578.24318498  energy(sigma->0) =     -578.24318498


--------------------------------------------------------------------------------------------------------




--------------------------------------- Iteration      1(   8)  ---------------------------------------


    POTLOK:  cpu time    0.0597: real time    0.0601
    SETDIJ:  cpu time    0.0433: real time    0.0433
     EDDAV:  cpu time   30.9593: real time   30.9622
       DOS:  cpu time    0.0041: real time    0.0041
    CHARGE:  cpu time    0.7646: real time    0.7647
    MIXING:  cpu time    0.0045: real time    0.0045
    --------------------------------------------
      LOOP:  cpu time   31.8356: real time   31.8389

 eigenvalue-minimisations  : 18784
 total energy-change (2. order) :-0.6743383E-01  (-0.2944873E-01)
 number of electron     255.9999999 magnetization 
 augmentation part        6.3980637 magnetization 

 Broyden mixing:
  rms(total) = 0.22712E-01    rms(broyden)= 0.22361E-01
  rms(prec ) = 0.27250E-01
  weight for this iteration     100.00

 eigenvalues of (default mixing * dielectric matrix)
  average eigenvalue GAMMA=   2.1060
  1.4659  2.6989  2.1532

 Free energy of the ion-electron system (eV)
  ---------------------------------------------------
  alpha Z        PSCENC =       980.05617506
  Ewald energy   TEWEN  =    -11377.53803955
  -Hartree energ DENC   =      -813.45023362
  -exchange      EXHF   =         0.00000000
  -V(xc)+E(xc)   XCENC  =       956.27961477
  PAW double counting   =      4497.99051803    -4580.43434600
  entropy T*S    EENTRO =        -0.00000000
  eigenvalues    EBANDS =       342.64336471
  atomic energy  EATOM  =      9416.14232778
  Solvation  Ediel_sol  =         0.00000000
  ---------------------------------------------------
  free energy    TOTEN  =      -578.31061881 eV

  energy without entropy =     -578.31061881  energy(sigma->0) =     -578.31061881


--------------------------------------------------------------------------------------------------------




--------------------------------------- Iteration      1(   9)  ---------------------------------------


    POTLOK:  cpu time    0.0578: real time    0.0581
    SETDIJ:  cpu time    0.0439: real time    0.0439
     EDDAV:  cpu time   32.1051: real time   32.1079
       DOS:  cpu time    0.0038: real time    0.0038
    CHARGE:  cpu time    0.7627: real time    0.7628
    MIXING:  cpu time    0.0046: real time    0.0046
    --------------------------------------------
      LOOP:  cpu time   32.9778: real time   32.9811

 eigenvalue-minimisations  : 19968
 total energy-change (2. order) :-0.2051923E-02  (-0.3574778E-03)
 number of electron     255.9999999 magnetization 
 augmentation part        6.3972078 magnetization 

 Broyden mixing:
  rms(total) = 0.83463E-02    rms(broyden)= 0.83177E-02
  rms(prec ) = 0.10424E-01
  weight for this iteration     100.00

 eigenvalues of (default mixing * dielectric matrix)
  average eigenvalue GAMMA=   2.0316
  0.9645  2.7428  2.4298  1.9895

 Free energy of the ion-electron system (eV)
  ---------------------------------------------------
  alpha Z        PSCENC =       980.05617506
  Ewald energy   TEWEN  =    -11377.53803955
  -Hartree energ DENC   =      -812.93871336
  -exchange      EXHF   =         0.00000000
  -V(xc)+E(xc)   XCENC  =       956.23058635
  PAW double counting   =      4494.74167169    -4577.07066522
  entropy T*S    EENTRO =        -0.00000000
  eigenvalues    EBANDS =       342.06398651
  atomic energy  EATOM  =      9416.14232778
  Solvation  Ediel_sol  =         0.00000000
  ---------------------------------------------------
  free energy    TOTEN  =      -578.31267074 eV

  energy without entropy =     -578.31267074  energy(sigma->0) =     -578.31267074


--------------------------------------------------------------------------------------------------------




--------------------------------------- Iteration      1(  10)  ---------------------------------------


    POTLOK:  cpu time    0.0584: real time    0.0589
    SETDIJ:  cpu time    0.0421: real time    0.0421
     EDDAV:  cpu time   30.8728: real time   30.8756
       DOS:  cpu time    0.0043: real time    0.0043
    CHARGE:  cpu time    0.7597: real time    0.7598
    MIXING:  cpu time    0.0045: real time    0.0045
    --------------------------------------------
      LOOP:  cpu time   31.7418: real time   31.7451

 eigenvalue-minimisations  : 18368
 total energy-change (2. order) :-0.4219136E-03  (-0.3493504E-04)
 number of electron     255.9999999 magnetization 
 augmentation part        6.3969233 magnetization 

 Broyden mixing:
  rms(total) = 0.84009E-03    rms(broyden)= 0.82231E-03
  rms(prec ) = 0.12246E-02
  weight for this iteration     100.00

 eigenvalues of (default mixing * dielectric matrix)
  average eigenvalue GAMMA=   1.9477
  2.9095  2.5470  2.0591  0.9955  1.2272

 Free energy of the ion-electron system (eV)
  ---------------------------------------------------
  alpha Z        PSCENC =       980.05617506
  Ewald energy   TEWEN  =    -11377.53803955
  -Hartree energ DENC   =      -813.31190293
  -exchange      EXHF   =         0.00000000
  -V(xc)+E(xc)   XCENC  =       956.26274344
  PAW double counting   =      4490.32258450    -4572.66472992
  entropy T*S    EENTRO =        -0.00000000
  eigenvalues    EBANDS =       342.41774895
  atomic energy  EATOM  =      9416.14232778
  Solvation  Ediel_sol  =         0.00000000
  ---------------------------------------------------
  free energy    TOTEN  =      -578.31309265 eV

  energy without entropy =     -578.31309265  energy(sigma->0) =     -578.31309265


--------------------------------------------------------------------------------------------------------




--------------------------------------- Iteration      1(  11)  ---------------------------------------


    POTLOK:  cpu time    0.0570: real time    0.0574
    SETDIJ:  cpu time    0.0471: real time    0.0471
     EDDAV:  cpu time   32.5109: real time   32.5138
       DOS:  cpu time    0.0041: real time    0.0041
    CHARGE:  cpu time    0.7657: real time    0.7658
    MIXING:  cpu time    0.0054: real time    0.0054
    --------------------------------------------
      LOOP:  cpu time   33.3902: real time   33.3936

 eigenvalue-minimisations  : 20000
 total energy-change (2. order) :-0.6640961E-05  (-0.1049869E-05)
 number of electron     255.9999999 magnetization 
 augmentation part        6.3967524 magnetization 

 Broyden mixing:
  rms(total) = 0.21483E-03    rms(broyden)= 0.20926E-03
  rms(prec ) = 0.27434E-03
  weight for this iteration     100.00

 eigenvalues of (default mixing * dielectric matrix)
  average eigenvalue GAMMA=   2.0000
  2.9556  2.5761  2.4449  2.0318  0.9958  0.9958

 Free energy of the ion-electron system (eV)
  ---------------------------------------------------
  alpha Z        PSCENC =       980.05617506
  Ewald energy   TEWEN  =    -11377.53803955
  -Hartree energ DENC   =      -813.42859046
  -exchange      EXHF   =         0.00000000
  -V(xc)+E(xc)   XCENC  =       956.27352162
  PAW double counting   =      4490.50702735    -4572.85389217
  entropy T*S    EENTRO =        -0.00000000
  eigenvalues    EBANDS =       342.52837108
  atomic energy  EATOM  =      9416.14232778
  Solvation  Ediel_sol  =         0.00000000
  ---------------------------------------------------
  free energy    TOTEN  =      -578.31309929 eV

  energy without entropy =     -578.31309929  energy(sigma->0) =     -578.31309929


--------------------------------------------------------------------------------------------------------




--------------------------------------- Iteration      1(  12)  ---------------------------------------


    POTLOK:  cpu time    0.0637: real time    0.0641
    SETDIJ:  cpu time    0.0417: real time    0.0417
     EDDAV:  cpu time   30.8918: real time   30.8946
       DOS:  cpu time    0.0042: real time    0.0042
    CHARGE:  cpu time    0.7603: real time    0.7604
    MIXING:  cpu time    0.0052: real time    0.0052
    --------------------------------------------
      LOOP:  cpu time   31.7669: real time   31.7703

 eigenvalue-minimisations  : 19584
 total energy-change (2. order) : 0.2817233E-06  (-0.2891103E-07)
 number of electron     255.9999999 magnetization 
 augmentation part        6.3967656 magnetization 

 Broyden mixing:
  rms(total) = 0.25733E-04    rms(broyden)= 0.24392E-04
  rms(prec ) = 0.36497E-04
  weight for this iteration     100.00

 eigenvalues of (default mixing * dielectric matrix)
  average eigenvalue GAMMA=   1.8672
  2.9208  2.6142  2.4837  2.0393  0.9719  1.0203  1.0203

 Free energy of the ion-electron system (eV)
  ---------------------------------------------------
  alpha Z        PSCENC =       980.05617506
  Ewald energy   TEWEN  =    -11377.53803955
  -Hartree energ DENC   =      -813.41471948
  -exchange      EXHF   =         0.00000000
  -V(xc)+E(xc)   XCENC  =       956.27224530
  PAW double counting   =      4490.60164085    -4572.94711376
  entropy T*S    EENTRO =        -0.00000000
  eigenvalues    EBANDS =       342.51438479
  atomic energy  EATOM  =      9416.14232778
  Solvation  Ediel_sol  =         0.00000000
  ---------------------------------------------------
  free energy    TOTEN  =      -578.31309901 eV

  energy without entropy =     -578.31309901  energy(sigma->0) =     -578.31309901


--------------------------------------------------------------------------------------------------------




--------------------------------------- Iteration      1(  13)  ---------------------------------------


    POTLOK:  cpu time    0.0634: real time    0.0640
    SETDIJ:  cpu time    0.0413: real time    0.0413
     EDDAV:  cpu time   26.7355: real time   26.7379
       DOS:  cpu time    0.0094: real time    0.0094
    CHARGE:  cpu time    0.7588: real time    0.7589
    MIXING:  cpu time    0.0053: real time    0.0052
    --------------------------------------------
      LOOP:  cpu time   27.6137: real time   27.6168

 eigenvalue-minimisations  : 14752
 total energy-change (2. order) :-0.3378045E-07  (-0.4978602E-09)
 number of electron     255.9999999 magnetization 
 augmentation part        6.3967652 magnetization 

 Broyden mixing:
  rms(total) = 0.53004E-05    rms(broyden)= 0.50818E-05
  rms(prec ) = 0.64223E-05
  weight for this iteration     100.00

 eigenvalues of (default mixing * dielectric matrix)
  average eigenvalue GAMMA=   1.9767
  2.0401  2.8630  2.8630  2.5648  2.5077  1.0042  1.0042  0.9666

 Free energy of the ion-electron system (eV)
  ---------------------------------------------------
  alpha Z        PSCENC =       980.05617506
  Ewald energy   TEWEN  =    -11377.53803955
  -Hartree energ DENC   =      -813.41191119
  -exchange      EXHF   =         0.00000000
  -V(xc)+E(xc)   XCENC  =       956.27197918
  PAW double counting   =      4490.59207082    -4572.93743427
  entropy T*S    EENTRO =        -0.00000000
  eigenvalues    EBANDS =       342.51173312
  atomic energy  EATOM  =      9416.14232778
  Solvation  Ediel_sol  =         0.00000000
  ---------------------------------------------------
  free energy    TOTEN  =      -578.31309904 eV

  energy without entropy =     -578.31309904  energy(sigma->0) =     -578.31309904


--------------------------------------------------------------------------------------------------------




--------------------------------------- Iteration      1(  14)  ---------------------------------------


    POTLOK:  cpu time    0.0644: real time    0.0648
    SETDIJ:  cpu time    0.0423: real time    0.0423
     EDDAV:  cpu time   23.6432: real time   23.6454
       DOS:  cpu time    0.0042: real time    0.0042
    CHARGE:  cpu time    0.7644: real time    0.7645
    MIXING:  cpu time    0.0054: real time    0.0054
    --------------------------------------------
      LOOP:  cpu time   24.5240: real time   24.5266

 eigenvalue-minimisations  : 12352
 total energy-change (2. order) :-0.2116576E-07  (-0.7244303E-10)
 number of electron     255.9999999 magnetization 
 augmentation part        6.3967657 magnetization 

 Broyden mixing:
  rms(total) = 0.19764E-05    rms(broyden)= 0.19638E-05
  rms(prec ) = 0.26264E-05
  weight for this iteration     100.00

 eigenvalues of (default mixing * dielectric matrix)
  average eigenvalue GAMMA=   1.8713
  2.0437  2.8501  2.8501  2.5422  2.5204  1.0699  1.0316  0.9666  0.9666

 Free energy of the ion-electron system (eV)
  ---------------------------------------------------
  alpha Z        PSCENC =       980.05617506
  Ewald energy   TEWEN  =    -11377.53803955
  -Hartree energ DENC   =      -813.41139167
  -exchange      EXHF   =         0.00000000
  -V(xc)+E(xc)   XCENC  =       956.27193186
  PAW double counting   =      4490.58801680    -4572.93334567
  entropy T*S    EENTRO =        -0.00000000
  eigenvalues    EBANDS =       342.51122632
  atomic energy  EATOM  =      9416.14232778
  Solvation  Ediel_sol  =         0.00000000
  ---------------------------------------------------
  free energy    TOTEN  =      -578.31309906 eV

  energy without entropy =     -578.31309906  energy(sigma->0) =     -578.31309906


--------------------------------------------------------------------------------------------------------




--------------------------------------- Iteration      1(  15)  ---------------------------------------


    POTLOK:  cpu time    0.0653: real time    0.0657
    SETDIJ:  cpu time    0.0428: real time    0.0428
     EDDAV:  cpu time   22.3857: real time   22.3877
       DOS:  cpu time    0.0047: real time    0.0047
    --------------------------------------------
      LOOP:  cpu time   22.4985: real time   22.5009

 eigenvalue-minimisations  : 11520
 total energy-change (2. order) :-0.1056833E-08  (-0.1055839E-10)
 number of electron     255.9999999 magnetization 
 augmentation part        6.3967657 magnetization 

 Free energy of the ion-electron system (eV)
  ---------------------------------------------------
  alpha Z        PSCENC =       980.05617506
  Ewald energy   TEWEN  =    -11377.53803955
  -Hartree energ DENC   =      -813.41154284
  -exchange      EXHF   =         0.00000000
  -V(xc)+E(xc)   XCENC  =       956.27194591
  PAW double counting   =      4490.58871648    -4572.93405972
  entropy T*S    EENTRO =        -0.00000000
  eigenvalues    EBANDS =       342.51137782
  atomic energy  EATOM  =      9416.14232778
  Solvation  Ediel_sol  =         0.00000000
  ---------------------------------------------------
  free energy    TOTEN  =      -578.31309907 eV

  energy without entropy =     -578.31309907  energy(sigma->0) =     -578.31309907


--------------------------------------------------------------------------------------------------------




 average (electrostatic) potential at core
  the test charge radii are     0.6991
  (the norm of the test charge is              1.0000)
       1 -44.4370       2 -44.4370       3 -44.4370       4 -44.4370       5 -44.4370
       6 -44.4370       7 -44.4370       8 -44.4370       9 -44.4370      10 -44.4370
      11 -44.4370      12 -44.4370      13 -44.4370      14 -44.4370      15 -44.4370
      16 -44.4370      17 -44.4370      18 -44.4370      19 -44.4370      20 -44.4370
      21 -44.4370      22 -44.4370      23 -44.4370      24 -44.4370      25 -44.4370
      26 -44.4370      27 -44.4370      28 -44.4370      29 -44.4370      30 -44.4370
      31 -44.4370      32 -44.4370      33 -44.4370      34 -44.4370      35 -44.4370
      36 -44.4370      37 -44.4370      38 -44.4370      39 -44.4370      40 -44.4370
      41 -44.4370      42 -44.4370      43 -44.4370      44 -44.4370      45 -44.4370
      46 -44.4370      47 -44.4370      48 -44.4370      49 -44.4370      50 -44.4370
      51 -44.4370      52 -44.4370      53 -44.4370      54 -44.4370      55 -44.4370
      56 -44.4370      57 -44.4370      58 -44.4370      59 -44.4370      60 -44.4370
      61 -44.4370      62 -44.4370      63 -44.4370      64 -44.4370
 
 
 
 E-fermi :  11.3013     XC(G=0): -13.5478     alpha+bet :-18.8673


 k-point     1 :       0.0000    0.0000    0.0000
  band No.  band energies     occupation 
      1     -11.6485      2.00000
      2      -9.3904      2.00000
      3      -9.3904      2.00000
      4      -9.1931      2.00000
      5      -9.1931      2.00000
      6      -9.1931      2.00000
      7      -9.1931      2.00000
      8      -7.0231      2.00000
[...]
      4.304258  0.860852  6.282499     0.061300   -0.102967   -0.000000  
      0.860852  4.304258  6.282499     0.061300   -0.102967    0.000000  
      4.304258  4.304258  6.282499    -0.061300    0.102967    0.000000  
      0.000000  1.721703  0.000000    -0.085614    0.078653   -0.000000  
      3.443406  1.721703  0.000000     0.085614   -0.078653    0.000000  
      0.000000  5.165109  0.000000     0.085614   -0.078653   -0.000000  
      3.443406  5.165109  0.000000    -0.085614    0.078653    0.000000  
      0.000000  1.721703  3.589999     0.085614   -0.078653   -0.000000  
      3.443406  1.721703  3.589999    -0.085614    0.078653    0.000000  
      0.000000  5.165109  3.589999    -0.085614    0.078653   -0.000000  
      3.443406  5.165109  3.589999     0.085614   -0.078653    0.000000  
      2.582555  2.582555  2.692500    -0.102967    0.061300    0.000000  
      6.025961  2.582555  2.692500     0.102967   -0.061300   -0.000000  
      2.582555  6.025961  2.692500     0.102967   -0.061300    0.000000  
      6.025961  6.025961  2.692500    -0.102967    0.061300   -0.000000  
      2.582555  2.582555  6.282499     0.102967   -0.061300    0.000000  
      6.025961  2.582555  6.282499    -0.102967    0.061300   -0.000000  
      2.582555  6.025961  6.282499    -0.102967    0.061300    0.000000  
      6.025961  6.025961  6.282499     0.102967   -0.061300   -0.000000  
      1.721703  0.000000  0.000000    -0.078653    0.085614   -0.000000  
      5.165109  0.000000  0.000000     0.078653   -0.085614   -0.000000  
      1.721703  3.443406  0.000000     0.078653   -0.085614    0.000000  
      5.165109  3.443406  0.000000    -0.078653    0.085614    0.000000  
      1.721703  0.000000  3.589999     0.078653   -0.085614   -0.000000  
      5.165109  0.000000  3.589999    -0.078653    0.085614   -0.000000  
      1.721703  3.443406  3.589999    -0.078653    0.085614    0.000000  
      5.165109  3.443406  3.589999     0.078653   -0.085614    0.000000  
      2.582555  0.860852  0.897500    -0.088350    0.095312    0.000000  
      6.025961  0.860852  0.897500     0.088350   -0.095312   -0.000000  
      2.582555  4.304258  0.897500     0.088350   -0.095312    0.000000  
      6.025961  4.304258  0.897500    -0.088350    0.095312   -0.000000  
      2.582555  0.860852  4.487499     0.088350   -0.095312    0.000000  
      6.025961  0.860852  4.487499    -0.088350    0.095312   -0.000000  
      2.582555  4.304258  4.487499    -0.088350    0.095312    0.000000  
      6.025961  4.304258  4.487499     0.088350   -0.095312   -0.000000  
      1.721703  1.721703  1.795000    -0.112664    0.070998    0.000000  
      5.165109  1.721703  1.795000     0.112664   -0.070998   -0.000000  
      1.721703  5.165109  1.795000     0.112664   -0.070998    0.000000  
      5.165109  5.165109  1.795000    -0.112664    0.070998   -0.000000  
      1.721703  1.721703  5.384999     0.112664   -0.070998    0.000000  
      5.165109  1.721703  5.384999    -0.112664    0.070998   -0.000000  
      1.721703  5.165109  5.384999    -0.112664    0.070998    0.000000  
      5.165109  5.165109  5.384999     0.112664   -0.070998   -0.000000  
 
 190 f/i=    0.000002 THz     0.000012 2PiTHz    0.000064 cm-1     0.000008 meV
             X         Y         Z           dx          dy          dz
      0.860852  2.582555  0.897500    -0.097448   -0.078287    0.000000  
      4.304258  2.582555  0.897500    -0.097448   -0.078287    0.000000  
      0.860852  6.025961  0.897500    -0.097448   -0.078287    0.000000  
      4.304258  6.025961  0.897500    -0.097448   -0.078287    0.000000  
      0.860852  2.582555  4.487499    -0.097448   -0.078287    0.000000  
      4.304258  2.582555  4.487499    -0.097448   -0.078287    0.000000  
      0.860852  6.025961  4.487499    -0.097448   -0.078287    0.000000  
      4.304258  6.025961  4.487499    -0.097448   -0.078287    0.000000  
      0.000000  0.000000  1.795000    -0.097448   -0.078287    0.000000  
      3.443406  0.000000  1.795000    -0.097448   -0.078287    0.000000  
      0.000000  3.443406  1.795000    -0.097448   -0.078287    0.000000  
      3.443406  3.443406  1.795000    -0.097448   -0.078287    0.000000  
      0.000000  0.000000  5.384999    -0.097448   -0.078287    0.000000  
      3.443406  0.000000  5.384999    -0.097448   -0.078287    0.000000  
      0.000000  3.443406  5.384999    -0.097448   -0.078287    0.000000  
      3.443406  3.443406  5.384999    -0.097448   -0.078287    0.000000  
      0.860852  0.860852  2.692500    -0.097448   -0.078287    0.000000  
      4.304258  0.860852  2.692500    -0.097448   -0.078287    0.000000  
      0.860852  4.304258  2.692500    -0.097448   -0.078287    0.000000  
      4.304258  4.304258  2.692500    -0.097448   -0.078287    0.000000  
      0.860852  0.860852  6.282499    -0.097448   -0.078287    0.000000  
      4.304258  0.860852  6.282499    -0.097448   -0.078287    0.000000  
      0.860852  4.304258  6.282499    -0.097448   -0.078287    0.000000  
      4.304258  4.304258  6.282499    -0.097448   -0.078287    0.000000  
      0.000000  1.721703  0.000000    -0.097448   -0.078287    0.000000  
      3.443406  1.721703  0.000000    -0.097448   -0.078287    0.000000  
      0.000000  5.165109  0.000000    -0.097448   -0.078287    0.000000  
      3.443406  5.165109  0.000000    -0.097448   -0.078287    0.000000  
      0.000000  1.721703  3.589999    -0.097448   -0.078287    0.000000  
      3.443406  1.721703  3.589999    -0.097448   -0.078287    0.000000  
      0.000000  5.165109  3.589999    -0.097448   -0.078287    0.000000  
      3.443406  5.165109  3.589999    -0.097448   -0.078287    0.000000  
      2.582555  2.582555  2.692500    -0.097448   -0.078287    0.000000  
      6.025961  2.582555  2.692500    -0.097448   -0.078287    0.000000  
      2.582555  6.025961  2.692500    -0.097448   -0.078287    0.000000  
      6.025961  6.025961  2.692500    -0.097448   -0.078287    0.000000  
      2.582555  2.582555  6.282499    -0.097448   -0.078287    0.000000  
      6.025961  2.582555  6.282499    -0.097448   -0.078287    0.000000  
      2.582555  6.025961  6.282499    -0.097448   -0.078287    0.000000  
      6.025961  6.025961  6.282499    -0.097448   -0.078287    0.000000  
      1.721703  0.000000  0.000000    -0.097448   -0.078287    0.000000  
      5.165109  0.000000  0.000000    -0.097448   -0.078287    0.000000  
      1.721703  3.443406  0.000000    -0.097448   -0.078287    0.000000  
      5.165109  3.443406  0.000000    -0.097448   -0.078287    0.000000  
      1.721703  0.000000  3.589999    -0.097448   -0.078287    0.000000  
      5.165109  0.000000  3.589999    -0.097448   -0.078287    0.000000  
      1.721703  3.443406  3.589999    -0.097448   -0.078287    0.000000  
      5.165109  3.443406  3.589999    -0.097448   -0.078287    0.000000  
      2.582555  0.860852  0.897500    -0.097448   -0.078287    0.000000  
      6.025961  0.860852  0.897500    -0.097448   -0.078287    0.000000  
      2.582555  4.304258  0.897500    -0.097448   -0.078287    0.000000  
      6.025961  4.304258  0.897500    -0.097448   -0.078287    0.000000  
      2.582555  0.860852  4.487499    -0.097448   -0.078287    0.000000  
      6.025961  0.860852  4.487499    -0.097448   -0.078287    0.000000  
      2.582555  4.304258  4.487499    -0.097448   -0.078287    0.000000  
      6.025961  4.304258  4.487499    -0.097448   -0.078287    0.000000  
      1.721703  1.721703  1.795000    -0.097448   -0.078287    0.000000  
      5.165109  1.721703  1.795000    -0.097448   -0.078287    0.000000  
      1.721703  5.165109  1.795000    -0.097448   -0.078287    0.000000  
      5.165109  5.165109  1.795000    -0.097448   -0.078287    0.000000  
      1.721703  1.721703  5.384999    -0.097448   -0.078287    0.000000  
      5.165109  1.721703  5.384999    -0.097448   -0.078287    0.000000  
      1.721703  5.165109  5.384999    -0.097448   -0.078287    0.000000  
      5.165109  5.165109  5.384999    -0.097448   -0.078287    0.000000  
 
 191 f/i=    0.000002 THz     0.000012 2PiTHz    0.000066 cm-1     0.000008 meV
             X         Y         Z           dx          dy          dz
      0.860852  2.582555  0.897500    -0.078287    0.097448    0.000000  
      4.304258  2.582555  0.897500    -0.078287    0.097448    0.000000  
      0.860852  6.025961  0.897500    -0.078287    0.097448    0.000000  
      4.304258  6.025961  0.897500    -0.078287    0.097448    0.000000  
      0.860852  2.582555  4.487499    -0.078287    0.097448    0.000000  
      4.304258  2.582555  4.487499    -0.078287    0.097448    0.000000  
      0.860852  6.025961  4.487499    -0.078287    0.097448    0.000000  
      4.304258  6.025961  4.487499    -0.078287    0.097448    0.000000  
      0.000000  0.000000  1.795000    -0.078287    0.097448    0.000000  
      3.443406  0.000000  1.795000    -0.078287    0.097448    0.000000  
      0.000000  3.443406  1.795000    -0.078287    0.097448    0.000000  
      3.443406  3.443406  1.795000    -0.078287    0.097448    0.000000  
      0.000000  0.000000  5.384999    -0.078287    0.097448    0.000000  
      3.443406  0.000000  5.384999    -0.078287    0.097448    0.000000  
      0.000000  3.443406  5.384999    -0.078287    0.097448    0.000000  
      3.443406  3.443406  5.384999    -0.078287    0.097448    0.000000  
      0.860852  0.860852  2.692500    -0.078287    0.097448    0.000000  
      4.304258  0.860852  2.692500    -0.078287    0.097448    0.000000  
      0.860852  4.304258  2.692500    -0.078287    0.097448    0.000000  
      4.304258  4.304258  2.692500    -0.078287    0.097448    0.000000  
      0.860852  0.860852  6.282499    -0.078287    0.097448    0.000000  
      4.304258  0.860852  6.282499    -0.078287    0.097448   -0.000000  
      0.860852  4.304258  6.282499    -0.078287    0.097448    0.000000  
      4.304258  4.304258  6.282499    -0.078287    0.097448   -0.000000  
      0.000000  1.721703  0.000000    -0.078287    0.097448    0.000000  
      3.443406  1.721703  0.000000    -0.078287    0.097448   -0.000000  
      0.000000  5.165109  0.000000    -0.078287    0.097448    0.000000  
      3.443406  5.165109  0.000000    -0.078287    0.097448    0.000000  
      0.000000  1.721703  3.589999    -0.078287    0.097448    0.000000  
      3.443406  1.721703  3.589999    -0.078287    0.097448    0.000000  
      0.000000  5.165109  3.589999    -0.078287    0.097448    0.000000  
      3.443406  5.165109  3.589999    -0.078287    0.097448    0.000000  
      2.582555  2.582555  2.692500    -0.078287    0.097448   -0.000000  
      6.025961  2.582555  2.692500    -0.078287    0.097448    0.000000  
      2.582555  6.025961  2.692500    -0.078287    0.097448   -0.000000  
      6.025961  6.025961  2.692500    -0.078287    0.097448    0.000000  
      2.582555  2.582555  6.282499    -0.078287    0.097448    0.000000  
      6.025961  2.582555  6.282499    -0.078287    0.097448    0.000000  
      2.582555  6.025961  6.282499    -0.078287    0.097448    0.000000  
      6.025961  6.025961  6.282499    -0.078287    0.097448    0.000000  
      1.721703  0.000000  0.000000    -0.078287    0.097448    0.000000  
      5.165109  0.000000  0.000000    -0.078287    0.097448   -0.000000  
      1.721703  3.443406  0.000000    -0.078287    0.097448    0.000000  
      5.165109  3.443406  0.000000    -0.078287    0.097448    0.000000  
      1.721703  0.000000  3.589999    -0.078287    0.097448   -0.000000  
      5.165109  0.000000  3.589999    -0.078287    0.097448    0.000000  
      1.721703  3.443406  3.589999    -0.078287    0.097448    0.000000  
      5.165109  3.443406  3.589999    -0.078287    0.097448    0.000000  
      2.582555  0.860852  0.897500    -0.078287    0.097448    0.000000  
      6.025961  0.860852  0.897500    -0.078287    0.097448    0.000000  
      2.582555  4.304258  0.897500    -0.078287    0.097448   -0.000000  
      6.025961  4.304258  0.897500    -0.078287    0.097448    0.000000  
      2.582555  0.860852  4.487499    -0.078287    0.097448   -0.000000  
      6.025961  0.860852  4.487499    -0.078287    0.097448    0.000000  
      2.582555  4.304258  4.487499    -0.078287    0.097448   -0.000000  
      6.025961  4.304258  4.487499    -0.078287    0.097448   -0.000000  
      1.721703  1.721703  1.795000    -0.078287    0.097448    0.000000  
      5.165109  1.721703  1.795000    -0.078287    0.097448    0.000000  
      1.721703  5.165109  1.795000    -0.078287    0.097448    0.000000  
      5.165109  5.165109  1.795000    -0.078287    0.097448    0.000000  
      1.721703  1.721703  5.384999    -0.078287    0.097448    0.000000  
      5.165109  1.721703  5.384999    -0.078287    0.097448    0.000000  
      1.721703  5.165109  5.384999    -0.078287    0.097448    0.000000  
      5.165109  5.165109  5.384999    -0.078287    0.097448    0.000000  
 
 192 f/i=    0.000003 THz     0.000016 2PiTHz    0.000087 cm-1     0.000011 meV
             X         Y         Z           dx          dy          dz
      0.860852  2.582555  0.897500    -0.000000    0.000000   -0.125000  
      4.304258  2.582555  0.897500    -0.000000   -0.000000   -0.125000  
      0.860852  6.025961  0.897500    -0.000000   -0.000000   -0.125000  
      4.304258  6.025961  0.897500    -0.000000   -0.000000   -0.125000  
      0.860852  2.582555  4.487499    -0.000000   -0.000000   -0.125000  
      4.304258  2.582555  4.487499    -0.000000   -0.000000   -0.125000  
      0.860852  6.025961  4.487499    -0.000000   -0.000000   -0.125000  
      4.304258  6.025961  4.487499    -0.000000    0.000000   -0.125000  
      0.000000  0.000000  1.795000    -0.000000   -0.000000   -0.125000  
      3.443406  0.000000  1.795000    -0.000000   -0.000000   -0.125000  
      0.000000  3.443406  1.795000    -0.000000   -0.000000   -0.125000  
      3.443406  3.443406  1.795000    -0.000000   -0.000000   -0.125000  
      0.000000  0.000000  5.384999    -0.000000   -0.000000   -0.125000  
      3.443406  0.000000  5.384999    -0.000000    0.000000   -0.125000  
      0.000000  3.443406  5.384999    -0.000000   -0.000000   -0.125000  
      3.443406  3.443406  5.384999    -0.000000   -0.000000   -0.125000  
      0.860852  0.860852  2.692500    -0.000000    0.000000   -0.125000  
      4.304258  0.860852  2.692500    -0.000000   -0.000000   -0.125000  
      0.860852  4.304258  2.692500    -0.000000   -0.000000   -0.125000  
      4.304258  4.304258  2.692500    -0.000000   -0.000000   -0.125000  
      0.860852  0.860852  6.282499    -0.000000   -0.000000   -0.125000  
      4.304258  0.860852  6.282499    -0.000000    0.000000   -0.125000  
      0.860852  4.304258  6.282499    -0.000000   -0.000000   -0.125000  
      4.304258  4.304258  6.282499    -0.000000   -0.000000   -0.125000  
      0.000000  1.721703  0.000000    -0.000000   -0.000000   -0.125000  
      3.443406  1.721703  0.000000    -0.000000   -0.000000   -0.125000  
      0.000000  5.165109  0.000000    -0.000000    0.000000   -0.125000  
      3.443406  5.165109  0.000000    -0.000000   -0.000000   -0.125000  
      0.000000  1.721703  3.589999    -0.000000   -0.000000   -0.125000  
      3.443406  1.721703  3.589999    -0.000000   -0.000000   -0.125000  
      0.000000  5.165109  3.589999    -0.000000   -0.000000   -0.125000  
      3.443406  5.165109  3.589999    -0.000000   -0.000000   -0.125000  
      2.582555  2.582555  2.692500    -0.000000   -0.000000   -0.125000  
      6.025961  2.582555  2.692500    -0.000000    0.000000   -0.125000  
      2.582555  6.025961  2.692500    -0.000000   -0.000000   -0.125000  
      6.025961  6.025961  2.692500    -0.000000   -0.000000   -0.125000  
      2.582555  2.582555  6.282499    -0.000000    0.000000   -0.125000  
      6.025961  2.582555  6.282499    -0.000000   -0.000000   -0.125000  
      2.582555  6.025961  6.282499    -0.000000    0.000000   -0.125000  
      6.025961  6.025961  6.282499    -0.000000   -0.000000   -0.125000  
      1.721703  0.000000  0.000000    -0.000000   -0.000000   -0.125000  
      5.165109  0.000000  0.000000    -0.000000   -0.000000   -0.125000  
      1.721703  3.443406  0.000000    -0.000000   -0.000000   -0.125000  
      5.165109  3.443406  0.000000    -0.000000   -0.000000   -0.125000  
      1.721703  0.000000  3.589999    -0.000000   -0.000000   -0.125000  
      5.165109  0.000000  3.589999    -0.000000   -0.000000   -0.125000  
      1.721703  3.443406  3.589999    -0.000000   -0.000000   -0.125000  
      5.165109  3.443406  3.589999    -0.000000   -0.000000   -0.125000  
      2.582555  0.860852  0.897500    -0.000000   -0.000000   -0.125000  
      6.025961  0.860852  0.897500    -0.000000    0.000000   -0.125000  
      2.582555  4.304258  0.897500    -0.000000   -0.000000   -0.125000  
      6.025961  4.304258  0.897500    -0.000000   -0.000000   -0.125000  
      2.582555  0.860852  4.487499    -0.000000    0.000000   -0.125000  
      6.025961  0.860852  4.487499    -0.000000   -0.000000   -0.125000  
      2.582555  4.304258  4.487499    -0.000000    0.000000   -0.125000  
      6.025961  4.304258  4.487499    -0.000000   -0.000000   -0.125000  
      1.721703  1.721703  1.795000    -0.000000   -0.000000   -0.125000  
      5.165109  1.721703  1.795000    -0.000000   -0.000000   -0.125000  
      1.721703  5.165109  1.795000    -0.000000   -0.000000   -0.125000  
      5.165109  5.165109  1.795000    -0.000000   -0.000000   -0.125000  
      1.721703  1.721703  5.384999    -0.000000   -0.000000   -0.125000  
      5.165109  1.721703  5.384999    -0.000000   -0.000000   -0.125000  
      1.721703  5.165109  5.384999    -0.000000   -0.000000   -0.125000  
      5.165109  5.165109  5.384999    -0.000000   -0.000000   -0.125000  
 


--------------------------------------------------------------------------------------------------------



 ELASTIC MODULI CONTR FROM IONIC RELAXATION (kBar)
 Direction    XX          YY          ZZ          XY          YZ          ZX
 --------------------------------------------------------------------------------
 XX          -0.0000      0.0000     -0.0000     -0.0000     -0.0000      0.0000
 YY           0.0000     -0.0000      0.0000     -0.0000      0.0000     -0.0000
 ZZ          -0.0000      0.0000     -0.0000     -0.0000      0.0000      0.0000
 XY          -0.0000     -0.0000     -0.0000   -164.4163      0.0000     -0.0000
 YZ          -0.0000      0.0000      0.0000      0.0000   -198.2506     -0.0000
 ZX           0.0000     -0.0000      0.0000      0.0000     -0.0000   -198.2516
 --------------------------------------------------------------------------------



--------------------------------------------------------------------------------------------------------


     LOOP+:  cpu time 1973.2044: real time 1973.8564
    4ORBIT:  cpu time    0.0000: real time    0.0000

 total amount of memory used by VASP MPI-rank0    88830. kBytes
=======================================================================

   base      :      30000. kBytes
   nonl-proj :      22364. kBytes
   fftplans  :       4537. kBytes
   grid      :       5806. kBytes
   one-center:        196. kBytes
   wavefun   :      25927. kBytes
 
  
  
 General timing and accounting informations for this job:
 ========================================================
  
                  Total CPU time used (sec):     1986.975
                            User time (sec):     1975.980
                          System time (sec):       10.995
                         Elapsed time (sec):     1987.769
  
                   Maximum memory used (kb):      465216.
                   Average memory used (kb):           0.
  
                          Minor page faults:        39348
                          Major page faults:           35
                 Voluntary context switches:          867
