# Thermal properties / unit cell (natom)

unit:
  temperature:   K
  free_energy:   kJ/mol
  entropy:       J/K/mol
  heat_capacity: J/K/mol

natom: 8    
cutoff_frequency:    0.000
num_modes: 2654208
num_integrated_modes: 2654208

zero_point_energy:     147.6517497
high_T_entropy:        421.3614349

thermal_properties:
- temperature:         0.0000000
  free_energy:       147.6517497
  entropy:             0.0000000
  heat_capacity:       0.0000000
  energy:            147.6517497

- temperature:         2.0000000
  free_energy:       147.6517497
  entropy:             0.0000000
  heat_capacity:       0.0000000
  energy:            147.6517497

- temperature:         4.0000000
  free_energy:       147.6517497
  entropy:             0.0000065
  heat_capacity:       0.0000423
  energy:            147.6517497

- temperature:         6.0000000
  free_energy:       147.6517497
  entropy:             0.0000572
  heat_capacity:       0.0002532
  energy:            147.6517500

- temperature:         8.0000000
  free_energy:       147.6517494
  entropy:             0.0001805
  heat_capacity:       0.0006588
  energy:            147.6517509

- temperature:        10.0000000
  free_energy:       147.6517489
  entropy:             0.0003921
  heat_capacity:       0.0013080
  energy:            147.6517528

- temperature:        12.0000000
  free_energy:       147.6517478
  entropy:             0.0007103
  heat_capacity:       0.0022694
  energy:            147.6517563

- temperature:        14.0000000
  free_energy:       147.6517460
  entropy:             0.0011556
  heat_capacity:       0.0036102
  energy:            147.6517621

- temperature:        16.0000000
  free_energy:       147.6517431
  entropy:             0.0017489
  heat_capacity:       0.0053969
  energy:            147.6517711

- temperature:        18.0000000
  free_energy:       147.6517389
  entropy:             0.0025120
  heat_capacity:       0.0076961
  energy:            147.6517841

- temperature:        20.0000000
  free_energy:       147.6517329
  entropy:             0.0034665
  heat_capacity:       0.0105750
  energy:            147.6518022

- temperature:        22.0000000
  free_energy:       147.6517248
  entropy:             0.0046344
  heat_capacity:       0.0141019
  energy:            147.6518268

- temperature:        24.0000000
  free_energy:       147.6517142
  entropy:             0.0060379
  heat_capacity:       0.0183462
  energy:            147.6518591

- temperature:        26.0000000
  free_energy:       147.6517005
  entropy:             0.0076996
  heat_capacity:       0.0233788
  energy:            147.6519007

- temperature:        28.0000000
  free_energy:       147.6516832
  entropy:             0.0096423
  heat_capacity:       0.0292722
  energy:            147.6519532

- temperature:        30.0000000
  free_energy:       147.6516617
  entropy:             0.0118892
  heat_capacity:       0.0361008
  energy:            147.6520184

- temperature:        32.0000000
  free_energy:       147.6516355
  entropy:             0.0144637
  heat_capacity:       0.0439411
  energy:            147.6520983

- temperature:        34.0000000
  free_energy:       147.6516037
  entropy:             0.0173899
  heat_capacity:       0.0528719
  energy:            147.6521949

- temperature:        36.0000000
  free_energy:       147.6515656
  entropy:             0.0206921
  heat_capacity:       0.0629750
  energy:            147.6523106

- temperature:        38.0000000
  free_energy:       147.6515206
  entropy:             0.0243955
  heat_capacity:       0.0743352
  energy:            147.6524477

- temperature:        40.0000000
  free_energy:       147.6514678
  entropy:             0.0285255
  heat_capacity:       0.0870408
  energy:            147.6526088

- temperature:        42.0000000
  free_energy:       147.6514062
  entropy:             0.0331085
  heat_capacity:       0.1011848
  energy:            147.6527968

- temperature:        44.0000000
  free_energy:       147.6513350
  entropy:             0.0381713
  heat_capacity:       0.1168647
  energy:            147.6530146

- temperature:        46.0000000
  free_energy:       147.6512532
  entropy:             0.0437420
  heat_capacity:       0.1341838
  energy:            147.6532653

- temperature:        48.0000000
  free_energy:       147.6511597
  entropy:             0.0498493
  heat_capacity:       0.1532517
  energy:            147.6535525

- temperature:        50.0000000
  free_energy:       147.6510534
  entropy:             0.0565231
  heat_capacity:       0.1741850
  energy:            147.6538796

- temperature:        52.0000000
  free_energy:       147.6509332
  entropy:             0.0637946
  heat_capacity:       0.1971084
  energy:            147.6542505

- temperature:        54.0000000
  free_energy:       147.6507978
  entropy:             0.0716963
  heat_capacity:       0.2221546
  energy:            147.6546694

- temperature:        56.0000000
  free_energy:       147.6506460
  entropy:             0.0802621
  heat_capacity:       0.2494654
  energy:            147.6551407

- temperature:        58.0000000
  free_energy:       147.6504763
  entropy:             0.0895274
  heat_capacity:       0.2791916
  energy:            147.6556689

- temperature:        60.0000000
  free_energy:       147.6502874
  entropy:             0.0995294
  heat_capacity:       0.3114935
  energy:            147.6562591

- temperature:        62.0000000
  free_energy:       147.6500777
  entropy:             0.1103069
  heat_capacity:       0.3465401
  energy:            147.6569167

- temperature:        64.0000000
  free_energy:       147.6498456
  entropy:             0.1219007
  heat_capacity:       0.3845097
  energy:            147.6576472

- temperature:        66.0000000
  free_energy:       147.6495895
  entropy:             0.1343532
  heat_capacity:       0.4255887
  energy:            147.6584568

- temperature:        68.0000000
  free_energy:       147.6493076
  entropy:             0.1477090
  heat_capacity:       0.4699709
  energy:            147.6593518

- temperature:        70.0000000
  free_energy:       147.6489980
  entropy:             0.1620143
  heat_capacity:       0.5178569
  energy:            147.6603390

- temperature:        72.0000000
  free_energy:       147.6486589
  entropy:             0.1773172
  heat_capacity:       0.5694528
  energy:            147.6614257

- temperature:        74.0000000
  free_energy:       147.6482881
  entropy:             0.1936675
  heat_capacity:       0.6249691
  energy:            147.6626195

- temperature:        76.0000000
  free_energy:       147.6478835
  entropy:             0.2111167
  heat_capacity:       0.6846195
  energy:            147.6639283

- temperature:        78.0000000
  free_energy:       147.6474428
  entropy:             0.2297180
  heat_capacity:       0.7486192
  energy:            147.6653608

- temperature:        80.0000000
  free_energy:       147.6469638
  entropy:             0.2495259
  heat_capacity:       0.8171840
  energy:            147.6669259

- temperature:        82.0000000
  free_energy:       147.6464439
  entropy:             0.2705960
  heat_capacity:       0.8905286
  energy:            147.6686328

- temperature:        84.0000000
  free_energy:       147.6458805
  entropy:             0.2929854
  heat_capacity:       0.9688653
  energy:            147.6704913

- temperature:        86.0000000
  free_energy:       147.6452710
  entropy:             0.3167519
  heat_capacity:       1.0524030
  energy:            147.6725117

- temperature:        88.0000000
  free_energy:       147.6446126
  entropy:             0.3419540
  heat_capacity:       1.1413457
  energy:            147.6747045

- temperature:        90.0000000
  free_energy:       147.6439022
  entropy:             0.3686510
  heat_capacity:       1.2358915
  energy:            147.6770808

- temperature:        92.0000000
  free_energy:       147.6431369
  entropy:             0.3969024
  heat_capacity:       1.3362316
  energy:            147.6796519

- temperature:        94.0000000
  free_energy:       147.6423135
  entropy:             0.4267680
  heat_capacity:       1.4425492
  energy:            147.6824297

- temperature:        96.0000000
  free_energy:       147.6414287
  entropy:             0.4583074
  heat_capacity:       1.5550191
  energy:            147.6854262

- temperature:        98.0000000
  free_energy:       147.6404791
  entropy:             0.4915802
  heat_capacity:       1.6738069
  energy:            147.6886540

- temperature:       100.0000000
  free_energy:       147.6394612
  entropy:             0.5266457
  heat_capacity:       1.7990682
  energy:            147.6921258

- temperature:       102.0000000
  free_energy:       147.6383713
  entropy:             0.5635624
  heat_capacity:       1.9309485
  energy:            147.6958547

- temperature:       104.0000000
  free_energy:       147.6372057
  entropy:             0.6023884
  heat_capacity:       2.0695830
  energy:            147.6998541

- temperature:       106.0000000
  free_energy:       147.6359605
  entropy:             0.6431807
  heat_capacity:       2.2150959
  energy:            147.7041376

- temperature:       108.0000000
  free_energy:       147.6346316
  entropy:             0.6859954
  heat_capacity:       2.3676009
  energy:            147.7087191

- temperature:       110.0000000
  free_energy:       147.6332151
  entropy:             0.7308877
  heat_capacity:       2.5272008
  energy:            147.7136127

- temperature:       112.0000000
  free_energy:       147.6317067
  entropy:             0.7779114
  heat_capacity:       2.6939876
  energy:            147.7188327

- temperature:       114.0000000
  free_energy:       147.6301020
  entropy:             0.8271188
  heat_capacity:       2.8680432
  energy:            147.7243935

- temperature:       116.0000000
  free_energy:       147.6283967
  entropy:             0.8785612
  heat_capacity:       3.0494389
  energy:            147.7303098

- temperature:       118.0000000
  free_energy:       147.6265862
  entropy:             0.9322882
  heat_capacity:       3.2382360
  energy:            147.7365962

- temperature:       120.0000000
  free_energy:       147.6246660
  entropy:             0.9883477
  heat_capacity:       3.4344863
  energy:            147.7432677

- temperature:       122.0000000
  free_energy:       147.6226312
  entropy:             1.0467863
  heat_capacity:       3.6382321
  energy:            147.7503392

- temperature:       124.0000000
  free_energy:       147.6204772
  entropy:             1.1076487
  heat_capacity:       3.8495069
  energy:            147.7578257

- temperature:       126.0000000
  free_energy:       147.6181990
  entropy:             1.1709780
  heat_capacity:       4.0683358
  energy:            147.7657422

- temperature:       128.0000000
  free_energy:       147.6157916
  entropy:             1.2368157
  heat_capacity:       4.2947356
  energy:            147.7741040

- temperature:       130.0000000
  free_energy:       147.6132500
  entropy:             1.3052014
  heat_capacity:       4.5287156
  energy:            147.7829262

- temperature:       132.0000000
  free_energy:       147.6105691
  entropy:             1.3761732
  heat_capacity:       4.7702780
  energy:            147.7922240

- temperature:       134.0000000
  free_energy:       147.6077436
  entropy:             1.4497671
  heat_capacity:       5.0194181
  energy:            147.8020124

- temperature:       136.0000000
  free_energy:       147.6047683
  entropy:             1.5260177
  heat_capacity:       5.2761248
  energy:            147.8123067

- temperature:       138.0000000
  free_energy:       147.6016377
  entropy:             1.6049579
  heat_capacity:       5.5403812
  energy:            147.8231219

- temperature:       140.0000000
  free_energy:       147.5983466
  entropy:             1.6866186
  heat_capacity:       5.8121650
  energy:            147.8344732

- temperature:       142.0000000
  free_energy:       147.5948894
  entropy:             1.7710293
  heat_capacity:       6.0914486
  energy:            147.8463756

- temperature:       144.0000000
  free_energy:       147.5912606
  entropy:             1.8582177
  heat_capacity:       6.3781995
  energy:            147.8588440

- temperature:       146.0000000
  free_energy:       147.5874547
  entropy:             1.9482099
  heat_capacity:       6.6723811
  energy:            147.8718933

- temperature:       148.0000000
  free_energy:       147.5834659
  entropy:             2.0410305
  heat_capacity:       6.9739525
  energy:            147.8855384

- temperature:       150.0000000
  free_energy:       147.5792887
  entropy:             2.1367025
  heat_capacity:       7.2828692
  energy:            147.8997940

- temperature:       152.0000000
  free_energy:       147.5749172
  entropy:             2.2352473
  heat_capacity:       7.5990828
  energy:            147.9146748

- temperature:       154.0000000
  free_energy:       147.5703458
  entropy:             2.3366848
  heat_capacity:       7.9225421
  energy:            147.9301952

- temperature:       156.0000000
  free_energy:       147.5655685
  entropy:             2.4410335
  heat_capacity:       8.2531926
  energy:            147.9463697

- temperature:       158.0000000
  free_energy:       147.5605797
  entropy:             2.5483106
  heat_capacity:       8.5909773
  energy:            147.9632127

- temperature:       160.0000000
  free_energy:       147.5553733
  entropy:             2.6585316
  heat_capacity:       8.9358363
  energy:            147.9807384

- temperature:       162.0000000
  free_energy:       147.5499436
  entropy:             2.7717110
  heat_capacity:       9.2877074
  energy:            147.9989608

- temperature:       164.0000000
  free_energy:       147.5442845
  entropy:             2.8878619
  heat_capacity:       9.6465264
  energy:            148.0178938

- temperature:       166.0000000
  free_energy:       147.5383901
  entropy:             3.0069959
  heat_capacity:      10.0122267
  energy:            148.0375514

- temperature:       168.0000000
  free_energy:       147.5322545
  entropy:             3.1291237
  heat_capacity:      10.3847400
  energy:            148.0579473

- temperature:       170.0000000
  free_energy:       147.5258716
  entropy:             3.2542545
  heat_capacity:      10.7639959
  energy:            148.0790949

- temperature:       172.0000000
  free_energy:       147.5192355
  entropy:             3.3823967
  heat_capacity:      11.1499225
  energy:            148.1010077

- temperature:       174.0000000
  free_energy:       147.5123400
  entropy:             3.5135572
  heat_capacity:      11.5424462
  energy:            148.1236990

- temperature:       176.0000000
  free_energy:       147.5051792
  entropy:             3.6477421
  heat_capacity:      11.9414920
  energy:            148.1471818

- temperature:       178.0000000
  free_energy:       147.4977470
  entropy:             3.7849562
  heat_capacity:      12.3469831
  energy:            148.1714693

- temperature:       180.0000000
  free_energy:       147.4900374
  entropy:             3.9252035
  heat_capacity:      12.7588416
  energy:            148.1965740

- temperature:       182.0000000
  free_energy:       147.4820442
  entropy:             4.0684868
  heat_capacity:      13.1769881
  energy:            148.2225088

- temperature:       184.0000000
  free_energy:       147.4737614
  entropy:             4.2148081
  heat_capacity:      13.6013421
  energy:            148.2492861

- temperature:       186.0000000
  free_energy:       147.4651829
  entropy:             4.3641684
  heat_capacity:      14.0318217
  energy:            148.2769183

- temperature:       188.0000000
  free_energy:       147.4563027
  entropy:             4.5165676
  heat_capacity:      14.4683439
  energy:            148.3054174

- temperature:       190.0000000
  free_energy:       147.4471147
  entropy:             4.6720050
  heat_capacity:      14.9108244
  energy:            148.3347956

- temperature:       192.0000000
  free_energy:       147.4376127
  entropy:             4.8304790
  heat_capacity:      15.3591781
  energy:            148.3650646

- temperature:       194.0000000
  free_energy:       147.4277907
  entropy:             4.9919869
  heat_capacity:      15.8133186
  energy:            148.3962362

- temperature:       196.0000000
  free_energy:       147.4176427
  entropy:             5.1565256
  heat_capacity:      16.2731584
  energy:            148.4283217

- temperature:       198.0000000
  free_energy:       147.4071626
  entropy:             5.3240907
  heat_capacity:      16.7386092
  energy:            148.4613326

- temperature:       200.0000000
  free_energy:       147.3963443
  entropy:             5.4946775
  heat_capacity:      17.2095817
  energy:            148.4952798

- temperature:       202.0000000
  free_energy:       147.3851819
  entropy:             5.6682803
  heat_capacity:      17.6859855
  energy:            148.5301745

- temperature:       204.0000000
  free_energy:       147.3736692
  entropy:             5.8448928
  heat_capacity:      18.1677296
  energy:            148.5660273

- temperature:       206.0000000
  free_energy:       147.3618003
  entropy:             6.0245079
  heat_capacity:      18.6547218
  energy:            148.6028489

- temperature:       208.0000000
  free_energy:       147.3495692
  entropy:             6.2071177
  heat_capacity:      19.1468692
  energy:            148.6406497

- temperature:       210.0000000
  free_energy:       147.3369698
  entropy:             6.3927140
  heat_capacity:      19.6440782
  energy:            148.6794398

- temperature:       212.0000000
  free_energy:       147.3239963
  entropy:             6.5812875
  heat_capacity:      20.1462545
  energy:            148.7192293

- temperature:       214.0000000
  free_energy:       147.3106427
  entropy:             6.7728286
  heat_capacity:      20.6533027
  energy:            148.7600280

- temperature:       216.0000000
  free_energy:       147.2969030
  entropy:             6.9673270
  heat_capacity:      21.1651270
  energy:            148.8018457

- temperature:       218.0000000
  free_energy:       147.2827714
  entropy:             7.1647717
  heat_capacity:      21.6816311
  energy:            148.8446917

- temperature:       220.0000000
  free_energy:       147.2682420
  entropy:             7.3651512
  heat_capacity:      22.2027177
  energy:            148.8885753

- temperature:       222.0000000
  free_energy:       147.2533089
  entropy:             7.5684533
  heat_capacity:      22.7282893
  energy:            148.9335055

- temperature:       224.0000000
  free_energy:       147.2379663
  entropy:             7.7746656
  heat_capacity:      23.2582477
  energy:            148.9794913

- temperature:       226.0000000
  free_energy:       147.2222083
  entropy:             7.9837747
  heat_capacity:      23.7924942
  energy:            149.0265414

- temperature:       228.0000000
  free_energy:       147.2060292
  entropy:             8.1957670
  heat_capacity:      24.3309297
  energy:            149.0746641

- temperature:       230.0000000
  free_energy:       147.1894233
  entropy:             8.4106283
  heat_capacity:      24.8734549
  energy:            149.1238678

- temperature:       232.0000000
  free_energy:       147.1723848
  entropy:             8.6283439
  heat_capacity:      25.4199698
  energy:            149.1741606

- temperature:       234.0000000
  free_energy:       147.1549080
  entropy:             8.8488985
  heat_capacity:      25.9703745
  energy:            149.2255503

- temperature:       236.0000000
  free_energy:       147.1369873
  entropy:             9.0722766
  heat_capacity:      26.5245687
  energy:            149.2780446

- temperature:       238.0000000
  free_energy:       147.1186171
  entropy:             9.2984620
  heat_capacity:      27.0824517
  energy:            149.3316510

- temperature:       240.0000000
  free_energy:       147.0997916
  entropy:             9.5274383
  heat_capacity:      27.6439231
  energy:            149.3863768

- temperature:       242.0000000
  free_energy:       147.0805055
  entropy:             9.7591884
  heat_capacity:      28.2088819
  energy:            149.4422290

- temperature:       244.0000000
  free_energy:       147.0607530
  entropy:             9.9936949
  heat_capacity:      28.7772276
  energy:            149.4992146

- temperature:       246.0000000
  free_energy:       147.0405289
  entropy:            10.2309402
  heat_capacity:      29.3488593
  energy:            149.5573401

- temperature:       248.0000000
  free_energy:       147.0198275
  entropy:            10.4709060
  heat_capacity:      29.9236763
  energy:            149.6166122

- temperature:       250.0000000
  free_energy:       146.9986434
  entropy:            10.7135739
  heat_capacity:      30.5015780
  energy:            149.6770369

- temperature:       252.0000000
  free_energy:       146.9769714
  entropy:            10.9589249
  heat_capacity:      31.0824640
  energy:            149.7386205

- temperature:       254.0000000
  free_energy:       146.9548060
  entropy:            11.2069399
  heat_capacity:      31.6662342
  energy:            149.8013687

- temperature:       256.0000000
  free_energy:       146.9321419
  entropy:            11.4575992
  heat_capacity:      32.2527884
  energy:            149.8652873

- temperature:       258.0000000
  free_energy:       146.9089738
  entropy:            11.7108830
  heat_capacity:      32.8420272
  energy:            149.9303816

- temperature:       260.0000000
  free_energy:       146.8852966
  entropy:            11.9667711
  heat_capacity:      33.4338511
  energy:            149.9966571

- temperature:       262.0000000
  free_energy:       146.8611050
  entropy:            12.2252431
  heat_capacity:      34.0281614
  energy:            150.0641187

- temperature:       264.0000000
  free_energy:       146.8363939
  entropy:            12.4862781
  heat_capacity:      34.6248595
  energy:            150.1327713

- temperature:       266.0000000
  free_energy:       146.8111582
  entropy:            12.7498551
  heat_capacity:      35.2238476
  energy:            150.2026197

- temperature:       268.0000000
  free_energy:       146.7853928
  entropy:            13.0159529
  heat_capacity:      35.8250282
  energy:            150.2736682

- temperature:       270.0000000
  free_energy:       146.7590927
  entropy:            13.2845498
  heat_capacity:      36.4283044
  energy:            150.3459212

- temperature:       272.0000000
  free_energy:       146.7322530
  entropy:            13.5556242
  heat_capacity:      37.0335802
  energy:            150.4193827

- temperature:       274.0000000
  free_energy:       146.7048686
  entropy:            13.8291539
  heat_capacity:      37.6407599
  energy:            150.4940568

- temperature:       276.0000000
  free_energy:       146.6769347
  entropy:            14.1051169
  heat_capacity:      38.2497488
  energy:            150.5699470

- temperature:       278.0000000
  free_energy:       146.6484465
  entropy:            14.3834906
  heat_capacity:      38.8604527
  energy:            150.6470569

- temperature:       280.0000000
  free_energy:       146.6193992
  entropy:            14.6642525
  heat_capacity:      39.4727782
  energy:            150.7253899

- temperature:       282.0000000
  free_energy:       146.5897879
  entropy:            14.9473798
  heat_capacity:      40.0866330
  energy:            150.8049490

- temperature:       284.0000000
  free_energy:       146.5596081
  entropy:            15.2328496
  heat_capacity:      40.7019254
  energy:            150.8857374

- temperature:       286.0000000
  free_energy:       146.5288550
  entropy:            15.5206386
  heat_capacity:      41.3185645
  energy:            150.9677576

- temperature:       288.0000000
  free_energy:       146.4975240
  entropy:            15.8107238
  heat_capacity:      41.9364605
  energy:            151.0510125

- temperature:       290.0000000
  free_energy:       146.4656106
  entropy:            16.1030817
  heat_capacity:      42.5555245
  energy:            151.1355042

- temperature:       292.0000000
  free_energy:       146.4331102
  entropy:            16.3976887
  heat_capacity:      43.1756685
  energy:            151.2212353

- temperature:       294.0000000
  free_energy:       146.4000183
  entropy:            16.6945213
  heat_capacity:      43.7968056
  energy:            151.3082076

- temperature:       296.0000000
  free_energy:       146.3663306
  entropy:            16.9935557
  heat_capacity:      44.4188498
  energy:            151.3964231

- temperature:       298.0000000
  free_energy:       146.3320427
  entropy:            17.2947680
  heat_capacity:      45.0417163
  energy:            151.4858835

- temperature:       300.0000000
  free_energy:       146.2971501
  entropy:            17.5981345
  heat_capacity:      45.6653212
  energy:            151.5765905

- temperature:       302.0000000
  free_energy:       146.2616487
  entropy:            17.9036310
  heat_capacity:      46.2895817
  energy:            151.6685453

- temperature:       304.0000000
  free_energy:       146.2255342
  entropy:            18.2112335
  heat_capacity:      46.9144163
  energy:            151.7617492

- temperature:       306.0000000
  free_energy:       146.1888024
  entropy:            18.5209179
  heat_capacity:      47.5397445
  energy:            151.8562032

- temperature:       308.0000000
  free_energy:       146.1514491
  entropy:            18.8326600
  heat_capacity:      48.1654868
  energy:            151.9519084

- temperature:       310.0000000
  free_energy:       146.1134704
  entropy:            19.1464356
  heat_capacity:      48.7915652
  energy:            152.0488654

- temperature:       312.0000000
  free_energy:       146.0748621
  entropy:            19.4622205
  heat_capacity:      49.4179025
  energy:            152.1470748

- temperature:       314.0000000
  free_energy:       146.0356202
  entropy:            19.7799904
  heat_capacity:      50.0444229
  energy:            152.2465372

- temperature:       316.0000000
  free_energy:       145.9957408
  entropy:            20.0997210
  heat_capacity:      50.6710519
  energy:            152.3472526

- temperature:       318.0000000
  free_energy:       145.9552200
  entropy:            20.4213880
  heat_capacity:      51.2977158
  energy:            152.4492214

- temperature:       320.0000000
  free_energy:       145.9140540
  entropy:            20.7449672
  heat_capacity:      51.9243426
  energy:            152.5524435

- temperature:       322.0000000
  free_energy:       145.8722389
  entropy:            21.0704342
  heat_capacity:      52.5508612
  energy:            152.6569187

- temperature:       324.0000000
  free_energy:       145.8297710
  entropy:            21.3977648
  heat_capacity:      53.1772018
  energy:            152.7626468

- temperature:       326.0000000
  free_energy:       145.7866466
  entropy:            21.7269348
  heat_capacity:      53.8032960
  energy:            152.8696273

- temperature:       328.0000000
  free_energy:       145.7428620
  entropy:            22.0579199
  heat_capacity:      54.4290764
  energy:            152.9778598

- temperature:       330.0000000
  free_energy:       145.6984137
  entropy:            22.3906959
  heat_capacity:      55.0544770
  energy:            153.0873434

- temperature:       332.0000000
  free_energy:       145.6532981
  entropy:            22.7252388
  heat_capacity:      55.6794329
  energy:            153.1980774

- temperature:       334.0000000
  free_energy:       145.6075116
  entropy:            23.0615245
  heat_capacity:      56.3038807
  energy:            153.3100608

- temperature:       336.0000000
  free_energy:       145.5610508
  entropy:            23.3995288
  heat_capacity:      56.9277579
  energy:            153.4232925

- temperature:       338.0000000
  free_energy:       145.5139124
  entropy:            23.7392279
  heat_capacity:      57.5510036
  energy:            153.5377714

- temperature:       340.0000000
  free_energy:       145.4660928
  entropy:            24.0805978
  heat_capacity:      58.1735579
  energy:            153.6534961

- temperature:       342.0000000
  free_energy:       145.4175889
  entropy:            24.4236148
  heat_capacity:      58.7953622
  energy:            153.7704651

- temperature:       344.0000000
  free_energy:       145.3683973
  entropy:            24.7682550
  heat_capacity:      59.4163592
  energy:            153.8886770

- temperature:       346.0000000
  free_energy:       145.3185148
  entropy:            25.1144948
  heat_capacity:      60.0364928
  energy:            154.0081300

- temperature:       348.0000000
  free_energy:       145.2679382
  entropy:            25.4623106
  heat_capacity:      60.6557080
  energy:            154.1288223

- temperature:       350.0000000
  free_energy:       145.2166645
  entropy:            25.8116790
  heat_capacity:      61.2739513
  energy:            154.2507522

- temperature:       352.0000000
  free_energy:       145.1646905
  entropy:            26.1625766
  heat_capacity:      61.8911702
  energy:            154.3739175

- temperature:       354.0000000
  free_energy:       145.1120132
  entropy:            26.5149800
  heat_capacity:      62.5073134
  energy:            154.4983161

- temperature:       356.0000000
  free_energy:       145.0586296
  entropy:            26.8688662