<?xml version="1.0" encoding="ISO-8859-1"?>
<modeling>
 <generator>
  <i name="program" type="string">vasp </i>
  <i name="version" type="string">5.4.4.18Apr17-6-g9f103f2a35  </i>
  <i name="subversion" type="string">(build Mar 12 2022 03:36:41) complex            parallel </i>
  <i name="platform" type="string">IFC19.0.3.199_CrayMPICH7.7.19 </i>
  <i name="date" type="string">2022 12 02 </i>
  <i name="time" type="string">01:40:42 </i>
 </generator>
 <incar>
  <i type="string" name="PREC">accurate</i>
  <i type="int" name="IALGO">    38</i>
  <i type="logical" name="ADDGRID"> T  </i>
  <i type="int" name="IBRION">     8</i>
  <i name="EDIFF">      0.00000001</i>
  <i type="logical" name="LREAL"> F  </i>
  <i type="int" name="ISMEAR">     0</i>
  <i name="SIGMA">      0.06000000</i>
  <i type="logical" name="LWAVE"> F  </i>
  <i type="logical" name="LCHARG"> F  </i>
  <v type="int" name="KPOINT_BSE">    -1     0     0     0</v>
 </incar>
 <structure name="primitive_cell" >
  <crystal>
   <varray name="basis" >
    <v>       0.00000000      -1.72170310       1.79499968 </v>
    <v>       0.00000000       1.72170310       1.79499968 </v>
    <v>      -1.72170310       0.00000000      -1.79499968 </v>
   </varray>
   <i name="volume">     10.64169714 </i>
   <varray name="rec_basis" >
    <v>      -0.29041012      -0.29041012       0.27855158 </v>
    <v>      -0.29041012       0.29041012       0.27855158 </v>
    <v>      -0.58082023       0.00000000       0.00000000 </v>
   </varray>
  </crystal>
  <varray name="positions" >
   <v>       0.25000000      -0.25000000      -0.50000000 </v>
   <v>      -0.50000000      -0.50000000       0.00000000 </v>
  </varray>
 </structure>
 <varray name="primitive_index" >
  <v type="int" >        1 </v>
  <v type="int" >       11 </v>
 </varray>
 <kpoints>
  <generation param="Gamma">
   <v type="int" name="divisions">       6        6        6 </v>
   <v name="usershift">      0.00000000       0.00000000       0.00000000 </v>
   <v name="genvec1">      0.16666667       0.00000000       0.00000000 </v>
   <v name="genvec2">      0.00000000       0.16666667       0.00000000 </v>
   <v name="genvec3">      0.00000000       0.00000000       0.16666667 </v>
   <v name="shift">      0.00000000       0.00000000       0.00000000 </v>
  </generation>
  <varray name="kpointlist" >
   <v>       0.00000000       0.00000000       0.00000000 </v>
   <v>       0.16666667       0.00000000       0.00000000 </v>
   <v>       0.33333333       0.00000000       0.00000000 </v>
   <v>       0.50000000       0.00000000       0.00000000 </v>
   <v>       0.16666667       0.16666667       0.00000000 </v>
   <v>       0.33333333       0.16666667       0.00000000 </v>
   <v>       0.50000000       0.16666667       0.00000000 </v>
   <v>       0.33333333       0.33333333       0.00000000 </v>
   <v>       0.50000000       0.33333333       0.00000000 </v>
   <v>       0.50000000       0.50000000       0.00000000 </v>
   <v>       0.00000000       0.00000000       0.16666667 </v>
   <v>       0.16666667       0.00000000       0.16666667 </v>
   <v>       0.33333333       0.00000000       0.16666667 </v>
   <v>       0.50000000       0.00000000       0.16666667 </v>
   <v>       0.16666667       0.16666667       0.16666667 </v>
   <v>       0.33333333       0.16666667       0.16666667 </v>
   <v>       0.50000000       0.16666667       0.16666667 </v>
   <v>       0.33333333       0.33333333       0.16666667 </v>
   <v>       0.50000000       0.33333333       0.16666667 </v>
   <v>       0.50000000       0.50000000       0.16666667 </v>
   <v>       0.00000000       0.00000000       0.33333333 </v>
   <v>       0.16666667       0.00000000       0.33333333 </v>
   <v>       0.33333333       0.00000000       0.33333333 </v>
   <v>       0.50000000       0.00000000       0.33333333 </v>
   <v>       0.16666667       0.16666667       0.33333333 </v>
   <v>       0.33333333       0.16666667       0.33333333 </v>
   <v>       0.50000000       0.16666667       0.33333333 </v>
   <v>       0.33333333       0.33333333       0.33333333 </v>
   <v>       0.50000000       0.33333333       0.33333333 </v>
   <v>       0.50000000       0.50000000       0.33333333 </v>
   <v>       0.00000000       0.00000000       0.50000000 </v>
   <v>       0.16666667       0.00000000       0.50000000 </v>
   <v>       0.33333333       0.00000000       0.50000000 </v>
   <v>       0.50000000       0.00000000       0.50000000 </v>
   <v>       0.16666667       0.16666667       0.50000000 </v>
   <v>       0.33333333       0.16666667       0.50000000 </v>
   <v>       0.50000000       0.16666667       0.50000000 </v>
   <v>       0.33333333       0.33333333       0.50000000 </v>
   <v>       0.50000000       0.33333333       0.50000000 </v>
   <v>       0.50000000       0.50000000       0.50000000 </v>
  </varray>
  <varray name="weights" >
   <v>       0.00462963 </v>
   <v>       0.01851852 </v>
   <v>       0.01851852 </v>
   <v>       0.00925926 </v>
   <v>       0.01851852 </v>
   <v>       0.03703704 </v>
   <v>       0.01851852 </v>
   <v>       0.01851852 </v>
   <v>       0.01851852 </v>
   <v>       0.00462963 </v>
   <v>       0.00925926 </v>
   <v>       0.03703704 </v>
   <v>       0.03703704 </v>
   <v>       0.01851852 </v>
   <v>       0.03703704 </v>
   <v>       0.07407407 </v>
   <v>       0.03703704 </v>
   <v>       0.03703704 </v>
   <v>       0.03703704 </v>
   <v>       0.00925926 </v>
   <v>       0.00925926 </v>
   <v>       0.03703704 </v>
   <v>       0.03703704 </v>
   <v>       0.01851852 </v>
   <v>       0.03703704 </v>
   <v>       0.07407407 </v>
   <v>       0.03703704 </v>
   <v>       0.03703704 </v>
   <v>       0.03703704 </v>
   <v>       0.00925926 </v>
   <v>       0.00462963 </v>
   <v>       0.01851852 </v>
   <v>       0.01851852 </v>
   <v>       0.00925926 </v>
   <v>       0.01851852 </v>
   <v>       0.03703704 </v>
   <v>       0.01851852 </v>
   <v>       0.01851852 </v>
   <v>       0.01851852 </v>
   <v>       0.00462963 </v>
  </varray>
 </kpoints>
 <parameters>
  <separator name="general" >
   <i type="string" name="SYSTEM">unknown system</i>
   <i type="logical" name="LCOMPAT"> F  </i>
  </separator>
  <separator name="electronic" >
   <i type="string" name="PREC">accura</i>
   <i name="ENMAX">    400.00000000</i>
   <i name="ENAUG">    644.87300000</i>
   <i name="EDIFF">      0.00000001</i>
   <i type="int" name="IALGO">    38</i>
   <i type="int" name="IWAVPR">    11</i>
   <i type="int" name="NBANDS">   192</i>
   <i name="NELECT">    256.00000000</i>
   <i type="int" name="TURBO">     0</i>
   <i type="int" name="IRESTART">     0</i>
   <i type="int" name="NREBOOT">     0</i>
   <i type="int" name="NMIN">     0</i>
   <i name="EREF">      0.00000000</i>
   <separator name="electronic smearing" >
    <i type="int" name="ISMEAR">     0</i>
    <i name="SIGMA">      0.06000000</i>
    <i name="KSPACING">      0.50000000</i>
    <i type="logical" name="KGAMMA"> T  </i>
   </separator>
   <separator name="electronic projectors" >
    <i type="logical" name="LREAL"> F  </i>
    <v name="ROPT">      0.00000000</v>
    <i type="int" name="LMAXPAW">  -100</i>
    <i type="int" name="LMAXMIX">     2</i>
    <i type="logical" name="NLSPLINE"> F  </i>
   </separator>
   <separator name="electronic startup" >
    <i type="int" name="ISTART">     0</i>
    <i type="int" name="ICHARG">     2</i>
    <i type="int" name="INIWAV">     1</i>
   </separator>
   <separator name="electronic spin" >
    <i type="int" name="ISPIN">     1</i>
    <i type="logical" name="LNONCOLLINEAR"> F  </i>
    <v name="MAGMOM">      1.00000000      1.00000000      1.00000000      1.00000000      1.00000000      1.00000000      1.00000000      1.00000000      1.00000000      1.00000000      1.00000000      1.00000000      1.00000000      1.00000000      1.00000000      1.00000000      1.00000000      1.00000000      1.00000000      1.00000000
      1.00000000      1.00000000      1.00000000      1.00000000      1.00000000      1.00000000      1.00000000      1.00000000      1.00000000      1.00000000      1.00000000      1.00000000      1.00000000      1.00000000      1.00000000      1.00000000      1.00000000      1.00000000      1.00000000      1.00000000
      1.00000000      1.00000000      1.00000000      1.00000000      1.00000000      1.00000000      1.00000000      1.00000000      1.00000000      1.00000000      1.00000000      1.00000000      1.00000000      1.00000000      1.00000000      1.00000000      1.00000000      1.00000000      1.00000000      1.00000000
      1.00000000      1.00000000      1.00000000      1.00000000</v>
    <i name="NUPDOWN">     -1.00000000</i>
    <i type="logical" name="LSORBIT"> F  </i>
    <v name="SAXIS">      0.00000000      0.00000000      1.00000000</v>
    <i type="logical" name="LSPIRAL"> F  </i>
    <v name="QSPIRAL">      0.00000000      0.00000000      0.00000000</v>
    <i type="logical" name="LZEROZ"> F  </i>
   </separator>
   <separator name="electronic exchange-correlation" >
    <i type="logical" name="LASPH"> F  </i>
    <i type="logical" name="LMETAGGA"> F  </i>
   </separator>
   <separator name="electronic convergence" >
    <i type="int" name="NELM">    60</i>
    <i type="int" name="NELMDL">    -5</i>
    <i type="int" name="NELMIN">     2</i>
    <i name="ENINI">    400.00000000</i>
    <separator name="electronic convergence detail" >
     <i type="logical" name="LDIAG"> T  </i>
     <i type="logical" name="LSUBROT"> F  </i>
     <i name="WEIMIN">      0.00100000</i>
     <i name="EBREAK">      0.00000000</i>
     <i name="DEPER">      0.30000000</i>
     <i type="int" name="NRMM">     4</i>
     <i name="TIME">      0.40000000</i>
    </separator>
   </separator>
   <separator name="electronic mixer" >
    <i name="AMIX">      0.40000000</i>
    <i name="BMIX">      1.00000000</i>
    <i name="AMIN">      0.10000000</i>
    <i name="AMIX_MAG">      1.60000000</i>
    <i name="BMIX_MAG">      1.00000000</i>
    <separator name="electronic mixer details" >
     <i type="int" name="IMIX">     4</i>
     <i type="logical" name="MIXFIRST"> F  </i>
     <i type="int" name="MAXMIX">   -45</i>
     <i name="WC">    100.00000000</i>
     <i type="int" name="INIMIX">     1</i>
     <i type="int" name="MIXPRE">     1</i>
     <i type="int" name="MREMOVE">     5</i>
    </separator>
   </separator>
   <separator name="electronic dipolcorrection" >
    <i type="logical" name="LDIPOL"> F  </i>
    <i type="logical" name="LMONO"> F  </i>
    <i type="int" name="IDIPOL">     0</i>
    <i name="EPSILON">      1.00000000</i>
    <v name="DIPOL">   -100.00000000   -100.00000000   -100.00000000</v>
    <i name="EFIELD">      0.00000000</i>
   </separator>
  </separator>
  <separator name="grids" >
   <i type="int" name="NGX">    48</i>
   <i type="int" name="NGY">    48</i>
   <i type="int" name="NGZ">    48</i>
   <i type="int" name="NGXF">    96</i>
   <i type="int" name="NGYF">    96</i>
   <i type="int" name="NGZF">    96</i>
   <i type="logical" name="ADDGRID"> T  </i>
  </separator>
  <separator name="ionic" >
   <i type="int" name="NSW">     1</i>
   <i type="int" name="IBRION">     8</i>
   <i type="int" name="MDALGO">     0</i>
   <i type="int" name="ISIF">     2</i>
   <i name="PSTRESS">      0.00000000</i>
   <i name="EDIFFG">      0.00000010</i>
   <i type="int" name="NFREE">     0</i>
   <i name="POTIM">      0.50000000</i>
   <i name="SMASS">     -3.00000000</i>
   <i name="SCALEE">      1.00000000</i>
  </separator>
  <separator name="ionic md" >
   <i name="TEBEG">      0.00010000</i>
   <i name="TEEND">      0.00010000</i>
   <i type="int" name="NBLOCK">     1</i>
   <i type="int" name="KBLOCK">     1</i>
   <i type="int" name="NPACO">   256</i>
   <i name="APACO">     16.00000000</i>
  </separator>
  <separator name="symmetry" >
   <i type="int" name="ISYM">     2</i>
   <i name="SYMPREC">      0.00001000</i>
  </separator>
  <separator name="dos" >
   <i type="int" name="LORBIT">     0</i>
   <v name="RWIGS">     -1.00000000</v>
   <i type="int" name="NEDOS">   301</i>
   <i name="EMIN">     10.00000000</i>
   <i name="EMAX">    -10.00000000</i>
   <i name="EFERMI">      0.00000000</i>
  </separator>
  <separator name="writing" >
   <i type="int" name="NWRITE">     2</i>
   <i type="logical" name="LWAVE"> F  </i>
   <i type="logical" name="LDOWNSAMPLE"> F  </i>
   <i type="logical" name="LCHARG"> F  </i>
   <i type="logical" name="LPARD"> F  </i>
   <i type="logical" name="LVTOT"> F  </i>
   <i type="logical" name="LVHAR"> F  </i>
   <i type="logical" name="LELF"> F  </i>
   <i type="logical" name="LOPTICS"> F  </i>
   <v name="STM">      0.00000000      0.00000000      0.00000000      0.00000000      0.00000000      0.00000000      0.00000000</v>
  </separator>
  <separator name="performance" >
   <i type="int" name="NPAR">    32</i>
   <i type="int" name="NSIM">     4</i>
   <i type="int" name="NBLK">    -1</i>
   <i type="logical" name="LPLANE"> T  </i>
   <i type="logical" name="LSCALAPACK"> T  </i>
   <i type="logical" name="LSCAAWARE"> F  </i>
   <i type="logical" name="LSCALU"> F  </i>
   <i type="logical" name="LASYNC"> F  </i>
   <i type="logical" name="LORBITALREAL"> F  </i>
  </separator>
  <separator name="miscellaneous" >
   <i type="int" name="IDIOT">     3</i>
   <i type="int" name="ISPECIAL">     0</i>
   <i type="logical" name="LMUSIC"> F  </i>
   <v name="POMASS">     12.01100000</v>
   <v name="DARWINR">      0.00000000</v>
   <v name="DARWINV">      1.00000000</v>
   <i type="logical" name="LCORR"> T  </i>
  </separator>
  <i type="logical" name="GGA_COMPAT"> T  </i>
  <i type="logical" name="LBERRY"> F  </i>
  <i type="int" name="ICORELEVEL">     0</i>
  <i type="logical" name="LDAU"> F  </i>
  <i type="int" name="I_CONSTRAINED_M">     0</i>
  <separator name="electronic exchange-correlation" >
   <i type="string" name="GGA">--</i>
   <i type="int" name="VOSKOWN">     0</i>
   <i type="logical" name="LHFCALC"> F  </i>
   <i type="string" name="PRECFOCK"></i>
   <i type="logical" name="LSYMGRAD"> F  </i>
   <i type="logical" name="LHFONE"> F  </i>
   <i type="logical" name="LRHFCALC"> F  </i>
   <i type="logical" name="LTHOMAS"> F  </i>
   <i type="logical" name="LMODELHF"> F  </i>
   <i name="ENCUT4O">     -1.00000000</i>
   <i type="int" name="EXXOEP">     0</i>
   <i type="int" name="FOURORBIT">     0</i>
   <i name="AEXX">      0.00000000</i>
   <i name="HFALPHA">      0.00000000</i>
   <i name="MCALPHA">      0.00000000</i>
   <i name="ALDAX">      1.00000000</i>
   <i name="AGGAX">      1.00000000</i>
   <i name="ALDAC">      1.00000000</i>
   <i name="AGGAC">      1.00000000</i>
   <i type="int" name="NKREDX">     1</i>
   <i type="int" name="NKREDY">     1</i>
   <i type="int" name="NKREDZ">     1</i>
   <i type="logical" name="SHIFTRED"> F  </i>
   <i type="logical" name="ODDONLY"> F  </i>
   <i type="logical" name="EVENONLY"> F  </i>
   <i type="int" name="LMAXFOCK">     0</i>
   <i type="int" name="NMAXFOCKAE">     0</i>
   <i type="logical" name="LFOCKAEDFT"> F  </i>
   <i name="HFSCREEN">      0.00000000</i>
   <i name="HFSCREENC">      0.00000000</i>
   <i type="int" name="NBANDSGWLOW">     0</i>
  </separator>
  <separator name="vdW DFT" >
   <i type="logical" name="LUSE_VDW"> F  </i>
   <i name="Zab_VDW">     -0.84910000</i>
   <i name="PARAM1">      0.12340000</i>
   <i name="PARAM2">      1.00000000</i>
   <i name="PARAM3">      0.00000000</i>
  </separator>
  <separator name="model GW" >
   <i type="int" name="MODEL_GW">     0</i>
   <i name="MODEL_EPS0">      3.19250914</i>
   <i name="MODEL_ALPHA">      1.00000000</i>
  </separator>
  <separator name="linear response parameters" >
   <i type="logical" name="LEPSILON"> F  </i>
   <i type="logical" name="LRPA"> F  </i>
   <i type="logical" name="LNABLA"> F  </i>
   <i type="logical" name="LVEL"> F  </i>
   <i type="int" name="KINTER">     0</i>
   <i name="CSHIFT">      0.10000000</i>
   <i name="OMEGAMAX">     -1.00000000</i>
   <i name="DEG_THRESHOLD">      0.00200000</i>
   <i name="RTIME">     -0.10000000</i>
   <i name="WPLASMAI">      0.00000000</i>
   <v name="DFIELD">      0.00000000      0.00000000      0.00000000</v>
   <v name="WPLASMA">      0.00000000      0.00000000      0.00000000      0.00000000      0.00000000      0.00000000      0.00000000      0.00000000      0.00000000</v>
  </separator>
  <separator name="orbital magnetization" >
   <i type="logical" name="NUCIND"> F  </i>
   <v name="MAGPOS">      0.00000000      0.00000000      0.00000000</v>
   <i type="logical" name="LNICSALL"> T  </i>
   <i type="logical" name="ORBITALMAG"> F  </i>
   <i type="logical" name="LMAGBLOCH"> F  </i>
   <i type="logical" name="LCHIMAG"> F  </i>
   <i type="logical" name="LGAUGE"> T  </i>
   <i type="int" name="MAGATOM">     0</i>
   <v name="MAGDIPOL">      0.00000000      0.00000000      0.00000000</v>
   <v name="AVECCONST">      0.00000000      0.00000000      0.00000000</v>
  </separator>
  <separator name="response functions" >
   <i type="logical" name="LADDER"> F  </i>
   <i type="logical" name="LRPAFORCE"> F  </i>
   <i type="logical" name="LFXC"> F  </i>
   <i type="logical" name="LHARTREE"> T  </i>
   <i type="int" name="IBSE">     0</i>
   <v type="int" name="KPOINT">    -1     0     0     0</v>
   <i type="logical" name="LTCTE"> F  </i>
   <i type="logical" name="LTETE"> F  </i>
   <i type="logical" name="LTRIPLET"> F  </i>
   <i type="logical" name="LFXCEPS"> F  </i>
   <i type="logical" name="LFXHEG"> F  </i>
   <i type="int" name="NATURALO">     2</i>
   <i type="logical" name="L2ORDER"> F  </i>
   <i type="logical" name="LMP2LT"> F  </i>
   <i type="logical" name="LUSEW"> F  </i>
   <i name="ENCUTGW">     -2.00000000</i>
   <i name="ENCUTGWSOFT">     -2.00000000</i>
   <i name="ENCUTLF">     -1.00000000</i>
   <i type="int" name="LMAXMP2">    -1</i>
   <i name="SCISSOR">      0.00000000</i>
   <i type="int" name="NOMEGA">     0</i>
   <i type="int" name="NOMEGAR">     0</i>
   <i type="int" name="NBANDSGW">    -1</i>
   <i type="int" name="NBANDSO">    -1</i>
   <i type="int" name="NBANDSV">    -1</i>
   <i type="int" name="NELM">     1</i>
   <i type="int" name="NELMHF">     1</i>
   <i type="int" name="DIM">     3</i>
   <i type="int" name="ANTIRES">     0</i>
   <i name="OMEGAMAX">    -30.00000000</i>
   <i name="OMEGAMIN">    -30.00000000</i>
   <i name="OMEGATL">   -200.00000000</i>
   <i type="int" name="OMEGAGRID">   140</i>
   <i name="CSHIFT">     -0.10000000</i>
   <i type="logical" name="SELFENERGY"> F  </i>
   <i type="logical" name="LSPECTRAL"> F  </i>
   <i type="logical" name="LSPECTRALGW"> F  </i>
   <i type="logical" name="LSINGLES"> F  </i>
   <i type="logical" name="LFERMIGW"> F  </i>
   <i type="logical" name="ODDONLYGW"> F  </i>
   <i type="logical" name="EVENONLYGW"> F  </i>
   <i type="int" name="NKREDLFX">     1</i>
   <i type="int" name="NKREDLFY">     1</i>
   <i type="int" name="NKREDLFZ">     1</i>
   <i type="int" name="MAXMEM">  2800</i>
   <i type="int" name="TELESCOPE">     0</i>
   <i type="int" name="TAUPAR">     1</i>
   <i type="int" name="OMEGAPAR">    -1</i>
   <i name="LAMBDA">      1.00000000</i>
  </separator>
  <separator name="External order field" >
   <i name="OFIELD_KAPPA">      0.00000000</i>
   <v name="OFIELD_K">      0.00000000      0.00000000      0.00000000</v>
   <i name="OFIELD_Q6_NEAR">      0.00000000</i>
   <i name="OFIELD_Q6_FAR">      0.00000000</i>
   <i name="OFIELD_A">      0.00000000</i>
  </separator>
 </parameters>
 <atominfo>
  <atoms>      64 </atoms>
  <types>       1 </types>
  <array name="atoms" >
   <dimension dim="1">ion</dimension>
   <field type="string">element</field>
   <field type="int">atomtype</field>
   <set>
    <rc><c>C </c><c>   1</c></rc>
    <rc><c>C </c><c>   1</c></rc>
    <rc><c>C </c><c>   1</c></rc>
    <rc><c>C </c><c>   1</c></rc>
    <rc><c>C </c><c>   1</c></rc>
    <rc><c>C </c><c>   1</c></rc>
    <rc><c>C </c><c>   1</c></rc>
    <rc><c>C </c><c>   1</c></rc>
    <rc><c>C </c><c>   1</c></rc>
    <rc><c>C </c><c>   1</c></rc>
    <rc><c>C </c><c>   1</c></rc>
    <rc><c>C </c><c>   1</c></rc>
    <rc><c>C </c><c>   1</c></rc>
    <rc><c>C </c><c>   1</c></rc>
    <rc><c>C </c><c>   1</c></rc>
    <rc><c>C </c><c>   1</c></rc>
    <rc><c>C </c><c>   1</c></rc>
    <rc><c>C </c><c>   1</c></rc>
    <rc><c>C </c><c>   1</c></rc>
    <rc><c>C </c><c>   1</c></rc>
    <rc><c>C </c><c>   1</c></rc>
    <rc><c>C </c><c>   1</c></rc>
    <rc><c>C </c><c>   1</c></rc>
    <rc><c>C </c><c>   1</c></rc>
    <rc><c>C </c><c>   1</c></rc>
    <rc><c>C </c><c>   1</c></rc>
    <rc><c>C </c><c>   1</c></rc>
    <rc><c>C </c><c>   1</c></rc>
    <rc><c>C </c><c>   1</c></rc>
    <rc><c>C </c><c>   1</c></rc>
    <rc><c>C </c><c>   1</c></rc>
    <rc><c>C </c><c>   1</c></rc>
    <rc><c>C </c><c>   1</c></rc>
    <rc><c>C </c><c>   1</c></rc>
    <rc><c>C </c><c>   1</c></rc>
    <rc><c>C </c><c>   1</c></rc>
    <rc><c>C </c><c>   1</c></rc>
    <rc><c>C </c><c>   1</c></rc>
    <rc><c>C </c><c>   1</c></rc>
    <rc><c>C </c><c>   1</c></rc>
    <rc><c>C </c><c>   1</c></rc>
    <rc><c>C </c><c>   1</c></rc>
    <rc><c>C </c><c>   1</c></rc>
    <rc><c>C </c><c>   1</c></rc>
    <rc><c>C </c><c>   1</c></rc>
    <rc><c>C </c><c>   1</c></rc>
    <rc><c>C </c><c>   1</c></rc>
    <rc><c>C </c><c>   1</c></rc>
    <rc><c>C </c><c>   1</c></rc>
    <rc><c>C </c><c>   1</c></rc>
    <rc><c>C </c><c>   1</c></rc>
    <rc><c>C </c><c>   1</c></rc>
    <rc><c>C </c><c>   1</c></rc>
    <rc><c>C </c><c>   1</c></rc>
    <rc><c>C </c><c>   1</c></rc>
    <rc><c>C </c><c>   1</c></rc>
    <rc><c>C </c><c>   1</c></rc>
    <rc><c>C </c><c>   1</c></rc>
    <rc><c>C </c><c>   1</c></rc>
    <rc><c>C </c><c>   1</c></rc>
    <rc><c>C </c><c>   1</c></rc>
    <rc><c>C </c><c>   1</c></rc>
    <rc><c>C </c><c>   1</c></rc>
    <rc><c>C </c><c>   1</c></rc>
   </set>
  </array>
  <array name="atomtypes" >
   <dimension dim="1">type</dimension>
   <field type="int">atomspertype</field>
   <field type="string">element</field>
   <field>mass</field>
   <field>valence</field>
   <field type="string">pseudopotential</field>
   <set>
    <rc><c>  64</c><c>C </c><c>     12.01100000</c><c>      4.00000000</c><c> PAW_PBE C 08Apr2002                    </c></rc>
   </set>
  </array>
 </atominfo>
 <structure name="initialpos" >
  <crystal>
   <varray name="basis" >
    <v>       6.88681241       0.00000000       0.00000000 </v>
    <v>       0.00000000       6.88681241       0.00000000 </v>
    <v>       0.00000000       0.00000000       7.17999872 </v>
   </varray>
   <i name="volume">    340.53430838 </i>
   <varray name="rec_basis" >
    <v>       0.14520506       0.00000000       0.00000000 </v>
    <v>       0.00000000       0.14520506       0.00000000 </v>
    <v>       0.00000000       0.00000000       0.13927579 </v>
   </varray>
  </crystal>
  <varray name="positions" >
   <v>       0.12500000       0.37500000       0.12500000 </v>
   <v>       0.62500000       0.37500000       0.12500000 </v>
   <v>       0.12500000       0.87500000       0.12500000 </v>
   <v>       0.62500000       0.87500000       0.12500000 </v>
   <v>       0.12500000       0.37500000       0.62500000 </v>
   <v>       0.62500000       0.37500000       0.62500000 </v>
   <v>       0.12500000       0.87500000       0.62500000 </v>
   <v>       0.62500000       0.87500000       0.62500000 </v>
   <v>       0.00000000       0.00000000       0.25000000 </v>
   <v>       0.50000000       0.00000000       0.25000000 </v>
   <v>       0.00000000       0.50000000       0.25000000 </v>
   <v>       0.50000000       0.50000000       0.25000000 </v>
   <v>       0.00000000       0.00000000       0.75000000 </v>
   <v>       0.50000000       0.00000000       0.75000000 </v>
   <v>       0.00000000       0.50000000       0.75000000 </v>
   <v>       0.50000000       0.50000000       0.75000000 </v>
   <v>       0.12500000       0.12500000       0.37500000 </v>
   <v>       0.62500000       0.12500000       0.37500000 </v>
   <v>       0.12500000       0.62500000       0.37500000 </v>
   <v>       0.62500000       0.62500000       0.37500000 </v>
   <v>       0.12500000       0.12500000       0.87500000 </v>
   <v>       0.62500000       0.12500000       0.87500000 </v>
   <v>       0.12500000       0.62500000       0.87500000 </v>
   <v>       0.62500000       0.62500000       0.87500000 </v>
   <v>       0.00000000       0.25000000       0.00000000 </v>
   <v>       0.50000000       0.25000000       0.00000000 </v>
   <v>       0.00000000       0.75000000       0.00000000 </v>
   <v>       0.50000000       0.75000000       0.00000000 </v>
   <v>       0.00000000       0.25000000       0.50000000 </v>
   <v>       0.50000000       0.25000000       0.50000000 </v>
   <v>       0.00000000       0.75000000       0.50000000 </v>
   <v>       0.50000000       0.75000000       0.50000000 </v>
   <v>       0.37500000       0.37500000       0.37500000 </v>
   <v>       0.87500000       0.37500000       0.37500000 </v>
   <v>       0.37500000       0.87500000       0.37500000 </v>
   <v>       0.87500000       0.87500000       0.37500000 </v>
   <v>       0.37500000       0.37500000       0.87500000 </v>
   <v>       0.87500000       0.37500000       0.87500000 </v>
   <v>       0.37500000       0.87500000       0.87500000 </v>
   <v>       0.87500000       0.87500000       0.87500000 </v>
   <v>       0.25000000       0.00000000       0.00000000 </v>
   <v>       0.75000000       0.00000000       0.00000000 </v>
   <v>       0.25000000       0.50000000       0.00000000 </v>
   <v>       0.75000000       0.50000000       0.00000000 </v>
   <v>       0.25000000       0.00000000       0.50000000 </v>
   <v>       0.75000000       0.00000000       0.50000000 </v>
   <v>       0.25000000       0.50000000       0.50000000 </v>
   <v>       0.75000000       0.50000000       0.50000000 </v>
   <v>       0.37500000       0.12500000       0.12500000 </v>
   <v>       0.87500000       0.12500000       0.12500000 </v>
   <v>       0.37500000       0.62500000       0.12500000 </v>
   <v>       0.87500000       0.62500000       0.12500000 </v>
   <v>       0.37500000       0.12500000       0.62500000 </v>
   <v>       0.87500000       0.12500000       0.62500000 </v>
   <v>       0.37500000       0.62500000       0.62500000 </v>
   <v>       0.87500000       0.62500000       0.62500000 </v>
   <v>       0.25000000       0.25000000       0.25000000 </v>
   <v>       0.75000000       0.25000000       0.25000000 </v>
   <v>       0.25000000       0.75000000       0.25000000 </v>
   <v>       0.75000000       0.75000000       0.25000000 </v>
   <v>       0.25000000       0.25000000       0.75000000 </v>
   <v>       0.75000000       0.25000000       0.75000000 </v>
   <v>       0.25000000       0.75000000       0.75000000 </v>
   <v>       0.75000000       0.75000000       0.75000000 </v>
  </varray>
 </structure>
 <calculation>
  <scstep>
   <time name="dav">   25.83   25.85</time>
   <time name="total">   25.95   25.97</time>
   <energy>
    <i name="alphaZ">    980.05617506 </i>
    <i name="ewald"> -11377.53803955 </i>
    <i name="hartreedc">   -518.53330460 </i>
    <i name="XCdc">    928.28937583 </i>
    <i name="pawpsdc">   2421.21235816 </i>
    <i name="pawaedc">  -2494.84305711 </i>
    <i name="eentropy">     -0.01056794 </i>
    <i name="bandstr">   1162.84119844 </i>
    <i name="atom">   9416.14232778 </i>
    <i name="e_fr_energy">    517.61646606 </i>
    <i name="e_wo_entrp">    517.62703401 </i>
    <i name="e_0_energy">    517.62175003 </i>
   </energy>
  </scstep>
  <scstep>
   <time name="dav">   31.69   31.69</time>
   <time name="total">   31.69   31.70</time>
   <energy>
    <i name="e_fr_energy">   -562.57472002 </i>
    <i name="e_wo_entrp">   -562.57472002 </i>
    <i name="e_0_energy">   -562.57472002 </i>
   </energy>
  </scstep>
  <scstep>
   <time name="dav">   33.00   33.00</time>
   <time name="total">   33.00   33.01</time>
   <energy>
    <i name="e_fr_energy">   -602.29841035 </i>
    <i name="e_wo_entrp">   -602.29841035 </i>
    <i name="e_0_energy">   -602.29841035 </i>
   </energy>
  </scstep>
  <scstep>
   <time name="dav">   32.55   32.55</time>
   <time name="total">   32.55   32.56</time>
   <energy>
    <i name="e_fr_energy">   -602.68389202 </i>
    <i name="e_wo_entrp">   -602.68389202 </i>
    <i name="e_0_energy">   -602.68389202 </i>
   </energy>
  </scstep>
  <scstep>
   <time name="dav">   30.57   30.58</time>
   <time name="total">   31.35   31.35</time>
   <energy>
    <i name="e_fr_energy">   -602.69147909 </i>
    <i name="e_wo_entrp">   -602.69147909 </i>
    <i name="e_0_energy">   -602.69147909 </i>
   </energy>
  </scstep>
  <scstep>
   <time name="dav">   29.88   29.88</time>
   <time name="total">   30.77   30.77</time>
   <energy>
    <i name="e_fr_energy">   -584.40413750 </i>
    <i name="e_wo_entrp">   -584.40413750 </i>
    <i name="e_0_energy">   -584.40413750 </i>
   </energy>
  </scstep>
  <scstep>
   <time name="dav">   30.59   30.59</time>
   <time name="total">   31.46   31.53</time>
   <energy>
    <i name="e_fr_energy">   -578.24318498 </i>
    <i name="e_wo_entrp">   -578.24318498 </i>
    <i name="e_0_energy">   -578.24318498 </i>
   </energy>
  </scstep>
  <scstep>
   <time name="dav">   30.96   30.96</time>
   <time name="total">   31.84   31.84</time>
   <energy>
    <i name="e_fr_energy">   -578.31061881 </i>
    <i name="e_wo_entrp">   -578.31061881 </i>
    <i name="e_0_energy">   -578.31061881 </i>
   </energy>
  </scstep>
  <scstep>
   <time name="dav">   32.11   32.11</time>
   <time name="total">   32.98   32.98</time>
   <energy>
    <i name="e_fr_energy">   -578.31267074 </i>
    <i name="e_wo_entrp">   -578.31267074 </i>
    <i name="e_0_energy">   -578.31267074 </i>
   </energy>
  </scstep>
  <scstep>
   <time name="dav">   30.87   30.88</time>
   <time name="total">   31.74   31.75</time>
   <energy>
    <i name="e_fr_energy">   -578.31309265 </i>
    <i name="e_wo_entrp">   -578.31309265 </i>
    <i name="e_0_energy">   -578.31309265 </i>
   </energy>
  </scstep>
  <scstep>
   <time name="dav">   32.51   32.51</time>
   <time name="total">   33.39   33.39</time>
   <energy>
    <i name="e_fr_energy">   -578.31309929 </i>
    <i name="e_wo_entrp">   -578.31309929 </i>
    <i name="e_0_energy">   -578.31309929 </i>
   </energy>
  </scstep>
  <scstep>
   <time name="dav">   30.89   30.89</time>
   <time name="total">   31.77   31.77</time>
   <energy>
    <i name="e_fr_energy">   -578.31309901 </i>
    <i name="e_wo_entrp">   -578.31309901 </i>
    <i name="e_0_energy">   -578.31309901 </i>
   </energy>
  </scstep>
  <scstep>
   <time name="dav">   26.74   26.74</time>
   <time name="total">   27.61   27.62</time>
   <energy>
    <i name="e_fr_energy">   -578.31309904 </i>
    <i name="e_wo_entrp">   -578.31309904 </i>
    <i name="e_0_energy">   -578.31309904 </i>
   </energy>
  </scstep>
  <scstep>
   <time name="dav">   23.64   23.65</time>
   <time name="total">   24.52   24.53</time>
   <energy>
    <i name="e_fr_energy">   -578.31309906 </i>
    <i name="e_wo_entrp">   -578.31309906 </i>
    <i name="e_0_energy">   -578.31309906 </i>
   </energy>
  </scstep>
  <scstep>
   <time name="dav">   22.39   22.39</time>
   <time name="total">   22.50   22.50</time>
   <energy>
    <i name="alphaZ">    980.05617506 </i>
    <i name="ewald"> -11377.53803955 </i>
    <i name="hartreedc">   -813.41154284 </i>
    <i name="XCdc">    956.27194591 </i>
    <i name="pawpsdc">   4490.58871648 </i>
    <i name="pawaedc">  -4572.93405972 </i>
    <i name="eentropy">     -0.00000000 </i>
    <i name="bandstr">    342.51137782 </i>
    <i name="atom">   9416.14232778 </i>
    <i name="e_fr_energy">   -578.31309907 </i>
    <i name="e_wo_entrp">   -578.31309907 </i>
    <i name="e_0_energy">   -578.31309907 </i>
   </energy>
  </scstep>
  <structure>
   <crystal>
    <varray name="basis" >
     <v>       6.88681241       0.00000000       0.00000000 </v>
     <v>       0.00000000       6.88681241       0.00000000 </v>
     <v>       0.00000000       0.00000000       7.17999872 </v>
    </varray>
    <i name="volume">    340.53430838 </i>
    <varray name="rec_basis" >
     <v>       0.14520506       0.00000000       0.00000000 </v>
     <v>       0.00000000       0.14520506       0.00000000 </v>
     <v>       0.00000000       0.00000000       0.13927579 </v>
    </varray>
   </crystal>
   <varray name="positions" >
    <v>       0.12500000       0.37500000       0.12500000 </v>
    <v>       0.62500000       0.37500000       0.12500000 </v>
    <v>       0.12500000       0.87500000       0.12500000 </v>
    <v>       0.62500000       0.87500000       0.12500000 </v>
    <v>       0.12500000       0.37500000       0.62500000 </v>
    <v>       0.62500000       0.37500000       0.62500000 </v>
    <v>       0.12500000       0.87500000       0.62500000 </v>
    <v>       0.62500000       0.87500000       0.62500000 </v>
    <v>       0.00000000       0.00000000       0.25000000 </v>
    <v>       0.50000000       0.00000000       0.25000000 </v>
    <v>       0.00000000       0.50000000       0.25000000 </v>
    <v>       0.50000000       0.50000000       0.25000000 </v>
    <v>       0.00000000       0.00000000       0.75000000 </v>
    <v>       0.50000000       0.00000000       0.75000000 </v>
    <v>       0.00000000       0.50000000       0.75000000 </v>
    <v>       0.50000000       0.50000000       0.75000000 </v>
    <v>       0.12500000       0.12500000       0.37500000 </v>
    <v>       0.62500000       0.12500000       0.37500000 </v>
    <v>       0.12500000       0.62500000       0.37500000 </v>
    <v>       0.62500000       0.62500000       0.37500000 </v>
    <v>       0.12500000       0.12500000       0.87500000 </v>
    <v>       0.62500000       0.12500000       0.87500000 </v>
    <v>       0.12500000       0.62500000       0.87500000 </v>
    <v>       0.62500000       0.62500000       0.87500000 </v>
    <v>       0.00000000       0.25000000       0.00000000 </v>
    <v>       0.50000000       0.25000000       0.00000000 </v>
    <v>       0.00000000       0.75000000       0.00000000 </v>
    <v>       0.50000000       0.75000000       0.00000000 </v>
    <v>       0.00000000       0.25000000       0.50000000 </v>
    <v>       0.50000000       0.25000000       0.50000000 </v>
    <v>       0.00000000       0.75000000       0.50000000 </v>
    <v>       0.50000000       0.75000000       0.50000000 </v>
    <v>       0.37500000       0.37500000       0.37500000 </v>
    <v>       0.87500000       0.37500000       0.37500000 </v>
    <v>       0.37500000       0.87500000       0.37500000 </v>
    <v>       0.87500000       0.87500000       0.37500000 </v>
    <v>       0.37500000       0.37500000       0.87500000 </v>
    <v>       0.87500000       0.37500000       0.87500000 </v>
    <v>       0.37500000       0.87500000       0.87500000 </v>
    <v>       0.87500000       0.87500000       0.87500000 </v>
    <v>       0.25000000       0.00000000       0.00000000 </v>
    <v>       0.75000000       0.00000000       0.00000000 </v>
    <v>       0.25000000       0.50000000       0.00000000 </v>
    <v>       0.75000000       0.50000000       0.00000000 </v>
    <v>       0.25000000       0.00000000       0.50000000 </v>
    <v>       0.75000000       0.00000000       0.50000000 </v>
    <v>       0.25000000       0.50000000       0.50000000 </v>
    <v>       0.75000000       0.50000000       0.50000000 </v>
    <v>       0.37500000       0.12500000       0.12500000 </v>
    <v>       0.87500000       0.12500000       0.12500000 </v>
    <v>       0.37500000       0.62500000       0.12500000 </v>
    <v>       0.87500000       0.62500000       0.12500000 </v>
    <v>       0.37500000       0.12500000       0.62500000 </v>
    <v>       0.87500000       0.12500000       0.62500000 </v>
    <v>       0.37500000       0.62500000       0.62500000 </v>
    <v>       0.87500000       0.62500000       0.62500000 </v>
    <v>       0.25000000       0.25000000       0.25000000 </v>
    <v>       0.75000000       0.25000000       0.25000000 </v>
    <v>       0.25000000       0.75000000       0.25000000 </v>
    <v>       0.75000000       0.75000000       0.25000000 </v>
    <v>       0.25000000       0.25000000       0.75000000 </v>
    <v>       0.75000000       0.25000000       0.75000000 </v>
    <v>       0.25000000       0.75000000       0.75000000 </v>
    <v>       0.75000000       0.75000000       0.75000000 </v>
   </varray>
  </structure>
  <varray name="forces" >
   <v>      -0.00000000      -0.00000000       0.00000000 </v>
   <v>       0.00000000       0.00000000      -0.00000000 </v>
   <v>       0.00000000      -0.00000000       0.00000000 </v>
   <v>       0.00000000       0.00000000       0.00000000 </v>
   <v>      -0.00000000       0.00000000      -0.00000000 </v>
   <v>       0.00000000       0.00000000       0.00000000 </v>
   <v>       0.00000000      -0.00000000       0.00000000 </v>
   <v>       0.00000000       0.00000000      -0.00000000 </v>
   <v>      -0.00000000      -0.00000000      -0.00000000 </v>
   <v>       0.00000000       0.00000000       0.00000000 </v>
   <v>      -0.00000000       0.00000000       0.00000000 </v>
   <v>       0.00000000      -0.00000000      -0.00000000 </v>
   <v>      -0.00000000      -0.00000000       0.00000000 </v>
   <v>       0.00000000      -0.00000000       0.00000000 </v>
   <v>       0.00000000      -0.00000000      -0.00000000 </v>
   <v>       0.00000000      -0.00000000       0.00000000 </v>
   <v>      -0.00000000      -0.00000000      -0.00000000 </v>
   <v>       0.00000000       0.00000000      -0.00000000 </v>
   <v>      -0.00000000      -0.00000000      -0.00000000 </v>
   <v>       0.00000000       0.00000000       0.00000000 </v>
   <v>      -0.00000000      -0.00000000       0.00000000 </v>
   <v>       0.00000000       0.00000000      -0.00000000 </v>
   <v>      -0.00000000       0.00000000       0.00000000 </v>
   <v>       0.00000000      -0.00000000      -0.00000000 </v>
   <v>       0.00000000       0.00000000       0.00000000 </v>
   <v>       0.00000000       0.00000000      -0.00000000 </v>
   <v>      -0.00000000      -0.00000000       0.00000000 </v>
   <v>       0.00000000      -0.00000000      -0.00000000 </v>
   <v>      -0.00000000      -0.00000000       0.00000000 </v>
   <v>       0.00000000      -0.00000000      -0.00000000 </v>
   <v>       0.00000000      -0.00000000      -0.00000000 </v>
   <v>       0.00000000       0.00000000       0.00000000 </v>
   <v>       0.00000000       0.00000000      -0.00000000 </v>
   <v>      -0.00000000       0.00000000       0.00000000 </v>
   <v>       0.00000000       0.00000000       0.00000000 </v>
   <v>      -0.00000000      -0.00000000      -0.00000000 </v>
   <v>      -0.00000000       0.00000000       0.00000000 </v>
   <v>      -0.00000000       0.00000000      -0.00000000 </v>
   <v>      -0.00000000       0.00000000      -0.00000000 </v>
   <v>      -0.00000000      -0.00000000       0.00000000 </v>
   <v>       0.00000000      -0.00000000       0.00000000 </v>
   <v>      -0.00000000       0.00000000      -0.00000000 </v>
   <v>      -0.00000000       0.00000000       0.00000000 </v>
   <v>      -0.00000000       0.00000000      -0.00000000 </v>
   <v>      -0.00000000      -0.00000000      -0.00000000 </v>
   <v>      -0.00000000       0.00000000      -0.00000000 </v>
   <v>       0.00000000      -0.00000000      -0.00000000 </v>
   <v>      -0.00000000      -0.00000000      -0.00000000 </v>
   <v>      -0.00000000      -0.00000000       0.00000000 </v>
   <v>      -0.00000000      -0.00000000       0.00000000 </v>
   <v>       0.00000000      -0.00000000      -0.00000000 </v>
   <v>      -0.00000000      -0.00000000      -0.00000000 </v>
   <v>       0.00000000      -0.00000000       0.00000000 </v>
   <v>      -0.00000000      -0.00000000       0.00000000 </v>
   <v>       0.00000000       0.00000000      -0.00000000 </v>
   <v>      -0.00000000      -0.00000000       0.00000000 </v>
   <v>       0.00000000       0.00000000       0.00000000 </v>
   <v>      -0.00000000      -0.00000000       0.00000000 </v>
   <v>       0.00000000      -0.00000000       0.00000000 </v>
   <v>      -0.00000000       0.00000000       0.00000000 </v>
   <v>       0.00000000      -0.00000000      -0.00000000 </v>
   <v>      -0.00000000      -0.00000000       0.00000000 </v>
   <v>       0.00000000      -0.00000000      -0.00000000 </v>
   <v>      -0.00000000       0.00000000      -0.00000000 </v>
  </varray>
  <varray name="stress" >
   <v>     445.74616815       0.00000000       0.00000000 </v>
   <v>       0.00000000     445.74616815       0.00000000 </v>
   <v>       0.00000000       0.00000000      12.96903195 </v>
  </varray>
  <energy>
   <i name="e_fr_energy">   -578.31309907 </i>
   <i name="e_wo_entrp">   -578.31309907 </i>
   <i name="e_0_energy">     -0.00000000 </i>
  </energy>
  <kpoints>
   <generation param="Gamma">
    <v type="int" name="divisions">       6        6        6 </v>
    <v name="usershift">      0.00000000       0.00000000       0.00000000 </v>
    <v name="genvec1">      0.16666667       0.00000000       0.00000000 </v>
    <v name="genvec2">      0.00000000       0.16666667       0.00000000 </v>
    <v name="genvec3">      0.00000000       0.00000000       0.16666667 </v>
    <v name="shift">      0.00000000       0.00000000       0.00000000 </v>
   </generation>
   <varray name="kpointlist" >
    <v>       0.00000000       0.00000000       0.00000000 </v>
    <v>       0.16666667       0.00000000       0.00000000 </v>
    <v>       0.33333333       0.00000000       0.00000000 </v>
    <v>       0.50000000       0.00000000       0.00000000 </v>
    <v>       0.00000000       0.16666667       0.00000000 </v>
    <v>       0.16666667       0.16666667       0.00000000 </v>
    <v>       0.33333333       0.16666667       0.00000000 </v>
    <v>       0.50000000       0.16666667       0.00000000 </v>
    <v>       0.00000000       0.33333333       0.00000000 </v>
    <v>       0.16666667       0.33333333       0.00000000 </v>
    <v>       0.33333333       0.33333333       0.00000000 </v>
    <v>       0.50000000       0.33333333       0.00000000 </v>
    <v>       0.00000000       0.50000000       0.00000000 </v>
    <v>       0.16666667       0.50000000       0.00000000 </v>
    <v>       0.33333333       0.50000000       0.00000000 </v>
    <v>       0.50000000       0.50000000       0.00000000 </v>
    <v>       0.00000000       0.00000000       0.16666667 </v>
    <v>       0.16666667       0.00000000       0.16666667 </v>
    <v>       0.33333333       0.00000000       0.16666667 </v>
    <v>       0.50000000       0.00000000       0.16666667 </v>
    <v>       0.00000000       0.16666667       0.16666667 </v>
    <v>       0.16666667       0.16666667       0.16666667 </v>
    <v>       0.33333333       0.16666667       0.16666667 </v>
    <v>       0.50000000       0.16666667       0.16666667 </v>
    <v>       0.00000000       0.33333333       0.16666667 </v>
    <v>       0.16666667       0.33333333       0.16666667 </v>
    <v>       0.33333333       0.33333333       0.16666667 </v>
    <v>       0.50000000       0.33333333       0.16666667 </v>
    <v>       0.00000000       0.50000000       0.16666667 </v>
    <v>       0.16666667       0.50000000       0.16666667 </v>
    <v>       0.33333333       0.50000000       0.16666667 </v>
    <v>       0.50000000       0.50000000       0.16666667 </v>
    <v>       0.00000000      -0.33333333       0.16666667 </v>
    <v>       0.16666667      -0.33333333       0.16666667 </v>
    <v>       0.33333333      -0.33333333       0.16666667 </v>
    <v>       0.50000000      -0.33333333       0.16666667 </v>
    <v>       0.00000000      -0.16666667       0.16666667 </v>
    <v>       0.16666667      -0.16666667       0.16666667 </v>
    <v>       0.33333333      -0.16666667       0.16666667 </v>
    <v>       0.50000000      -0.16666667       0.16666667 </v>
    <v>       0.00000000       0.00000000       0.33333333 </v>
    <v>       0.16666667       0.00000000       0.33333333 </v>
    <v>       0.33333333       0.00000000       0.33333333 </v>
    <v>       0.50000000       0.00000000       0.33333333 </v>
    <v>       0.00000000       0.16666667       0.33333333 </v>
    <v>       0.16666667       0.16666667       0.33333333 </v>
    <v>       0.33333333       0.16666667       0.33333333 </v>
    <v>       0.50000000       0.16666667       0.33333333 </v>
    <v>       0.00000000       0.33333333       0.33333333 </v>
    <v>       0.16666667       0.33333333       0.33333333 </v>
    <v>       0.33333333       0.33333333       0.33333333 </v>
    <v>       0.50000000       0.33333333       0.33333333 </v>
    <v>       0.00000000       0.50000000       0.33333333 </v>
    <v>       0.16666667       0.50000000       0.33333333 </v>
    <v>       0.33333333       0.50000000       0.33333333 </v>
    <v>       0.50000000       0.50000000       0.33333333 </v>
    <v>       0.00000000      -0.33333333       0.33333333 </v>
    <v>       0.16666667      -0.33333333       0.33333333 </v>
    <v>       0.33333333      -0.33333333       0.33333333 </v>
    <v>       0.50000000      -0.33333333       0.33333333 </v>
    <v>       0.00000000      -0.16666667       0.33333333 </v>
    <v>       0.16666667      -0.16666667       0.33333333 </v>
    <v>       0.33333333      -0.16666667       0.33333333 </v>
    <v>       0.50000000      -0.16666667       0.33333333 </v>
    <v>       0.00000000       0.00000000       0.50000000 </v>
    <v>       0.16666667       0.00000000       0.50000000 </v>
    <v>       0.33333333       0.00000000       0.50000000 </v>
    <v>       0.50000000       0.00000000       0.50000000 </v>
    <v>       0.00000000       0.16666667       0.50000000 </v>
    <v>       0.16666667       0.16666667       0.50000000 </v>
    <v>       0.33333333       0.16666667       0.50000000 </v>
    <v>       0.50000000       0.16666667       0.50000000 </v>
    <v>       0.00000000       0.33333333       0.50000000 </v>
    <v>       0.16666667       0.33333333       0.50000000 </v>
    <v>       0.33333333       0.33333333       0.50000000 </v>
    <v>       0.50000000       0.33333333       0.50000000 </v>
    <v>       0.00000000       0.50000000       0.50000000 </v>
    <v>       0.16666667       0.50000000       0.50000000 </v>
    <v>       0.33333333       0.50000000       0.50000000 </v>
    <v>       0.50000000       0.50000000       0.50000000 </v>
   </varray>
   <varray name="weights" >
    <v>       0.00462963 </v>
    <v>       0.00925926 </v>
    <v>       0.00925926 </v>
    <v>       0.00462963 </v>
    <v>       0.00925926 </v>
    <v>       0.01851852 </v>
    <v>       0.01851852 </v>
    <v>       0.00925926 </v>
    <v>       0.00925926 </v>
    <v>       0.01851852 </v>
    <v>       0.01851852 </v>
    <v>       0.00925926 </v>
    <v>       0.00462963 </v>
    <v>       0.00925926 </v>
    <v>       0.00925926 </v>
    <v>       0.00462963 </v>
    <v>       0.00925926 </v>
    <v>       0.01851852 </v>
    <v>       0.01851852 </v>
    <v>       0.00925926 </v>
    <v>       0.00925926 </v>
    <v>       0.01851852 </v>
    <v>       0.01851852 </v>
    <v>       0.00925926 </v>
    <v>       0.00925926 </v>
    <v>       0.01851852 </v>
    <v>       0.01851852 </v>
    <v>       0.00925926 </v>
    <v>       0.00925926 </v>
    <v>       0.01851852 </v>
    <v>       0.01851852 </v>
    <v>       0.00925926 </v>
    <v>       0.00925926 </v>
    <v>       0.01851852 </v>
    <v>       0.01851852 </v>
    <v>       0.00925926 </v>
    <v>       0.00925926 </v>
    <v>       0.01851852 </v>
    <v>       0.01851852 </v>
    <v>       0.00925926 </v>
    <v>       0.00925926 </v>
    <v>       0.01851852 </v>
    <v>       0.01851852 </v>
    <v>       0.00925926 </v>
    <v>       0.00925926 </v>
    <v>       0.01851852 </v>
    <v>       0.01851852 </v>
    <v>       0.00925926 </v>
    <v>       0.00925926 </v>
    <v>       0.01851852 </v>
    <v>       0.01851852 </v>
    <v>       0.00925926 </v>
    <v>       0.00925926 </v>
    <v>       0.01851852 </v>
    <v>       0.01851852 </v>
    <v>       0.00925926 </v>
    <v>       0.00925926 </v>
    <v>       0.01851852 </v>
    <v>       0.01851852 </v>
    <v>       0.00925926 </v>
    <v>       0.00925926 </v>
    <v>       0.01851852 </v>
    <v>       0.01851852 </v>
    <v>       0.00925926 </v>
    <v>       0.00462963 </v>
    <v>       0.00925926 </v>
    <v>       0.00925926 </v>
    <v>       0.00462963 </v>
    <v>       0.00925926 </v>
    <v>       0.01851852 </v>
    <v>       0.01851852 </v>
    <v>       0.00925926 </v>
    <v>       0.00925926 </v>
    <v>       0.01851852 </v>
    <v>       0.01851852 </v>
    <v>       0.00925926 </v>
    <v>       0.00462963 </v>
    <v>       0.00925926 </v>
    <v>       0.00925926 </v>
    <v>       0.00462963 </v>
   </varray>
  </kpoints>
  <scstep>
   <time name="total">   61.40   61.40</time>
   <energy>
    <i name="e_fr_energy">   -375.77689853 </i>
    <i name="e_wo_entrp">   -375.77689853 </i>
    <i name="e_0_energy">   -375.77689853 </i>
   </energy>
  </scstep>
  <scstep>
   <time name="total">   46.10   46.11</time>
   <energy>
    <i name="e_fr_energy">   -317.38135122 </i>
    <i name="e_wo_entrp">   -317.38135122 </i>
    <i name="e_0_energy">   -317.38135122 </i>
   </energy>
  </scstep>
  <scstep>
   <time name="total">   46.62   46.62</time>
   <energy>
    <i name="e_fr_energy">   -316.79488445 </i>
    <i name="e_wo_entrp">   -316.79488445 </i>
    <i name="e_0_energy">   -316.79488445 </i>
   </energy>
  </scstep>
  <scstep>
   <time name="total">   47.92   47.92</time>
   <energy>
    <i name="e_fr_energy">   -317.62979107 </i>
    <i name="e_wo_entrp">   -317.62979107 </i>
    <i name="e_0_energy">   -317.62979107 </i>
   </energy>
  </scstep>
  <scstep>
   <time name="total">   47.08   47.09</time>
   <energy>
    <i name="e_fr_energy">   -317.88840407 </i>
    <i name="e_wo_entrp">   -317.88840407 </i>
    <i name="e_0_energy">   -317.88840407 </i>
   </energy>
  </scstep>
  <scstep>
   <time name="total">   47.57   47.57</time>
   <energy>
    <i name="e_fr_energy">   -317.85038604 </i>
    <i name="e_wo_entrp">   -317.85038604 </i>
    <i name="e_0_energy">   -317.85038604 </i>
   </energy>
  </scstep>
  <scstep>
   <time name="total">   50.50   50.50</time>
   <energy>
    <i name="e_fr_energy">   -317.82952364 </i>
    <i name="e_wo_entrp">   -317.82952364 </i>
    <i name="e_0_energy">   -317.82952364 </i>
   </energy>
  </scstep>
  <scstep>
   <time name="total">   49.43   49.43</time>
   <energy>
    <i name="e_fr_energy">   -317.82801048 </i>
    <i name="e_wo_entrp">   -317.82801048 </i>
    <i name="e_0_energy">   -317.82801048 </i>
   </energy>
  </scstep>
  <scstep>
   <time name="total">   49.23   49.23</time>
   <energy>
    <i name="e_fr_energy">   -317.82741452 </i>
    <i name="e_wo_entrp">   -317.82741452 </i>
    <i name="e_0_energy">   -317.82741452 </i>
   </energy>
  </scstep>
  <scstep>
   <time name="total">   49.82   49.82</time>
   <energy>
    <i name="e_fr_energy">   -317.82755414 </i>
    <i name="e_wo_entrp">   -317.82755414 </i>
    <i name="e_0_energy">   -317.82755414 </i>
   </energy>
  </scstep>
  <scstep>
   <time name="total">   49.77   49.77</time>
   <energy>
    <i name="e_fr_energy">   -317.82756001 </i>
    <i name="e_wo_entrp">   -317.82756001 </i>
    <i name="e_0_energy">   -317.82756001 </i>
   </energy>
  </scstep>
  <scstep>
   <time name="total">   51.18   51.18</time>
   <energy>
    <i name="e_fr_energy">   -317.82758450 </i>
    <i name="e_wo_entrp">   -317.82758450 </i>
    <i name="e_0_energy">   -317.82758450 </i>
   </energy>
  </scstep>
  <kpoints>
   <generation param="Gamma">
    <v type="int" name="divisions">       6        6        6 </v>
    <v name="usershift">      0.00000000       0.00000000       0.00000000 </v>
    <v name="genvec1">      0.16666667       0.00000000       0.00000000 </v>
    <v name="genvec2">      0.00000000       0.16666667       0.00000000 </v>
    <v name="genvec3">      0.00000000       0.00000000       0.16666667 </v>
    <v name="shift">      0.00000000       0.00000000       0.00000000 </v>
   </generation>
   <varray name="kpointlist" >
    <v>       0.00000000       0.00000000       0.00000000 </v>
    <v>       0.16666667       0.00000000       0.00000000 </v>
    <v>       0.33333333       0.00000000       0.00000000 </v>
    <v>       0.50000000       0.00000000       0.00000000 </v>
    <v>       0.16666667       0.16666667       0.00000000 </v>
    <v>       0.33333333       0.16666667       0.00000000 </v>
    <v>       0.50000000       0.16666667       0.00000000 </v>
    <v>      -0.33333333       0.16666667       0.00000000 </v>
    <v>      -0.16666667       0.16666667       0.00000000 </v>
    <v>       0.33333333       0.33333333       0.00000000 </v>
    <v>       0.50000000       0.33333333       0.00000000 </v>
    <v>      -0.33333333       0.33333333       0.00000000 </v>
    <v>       0.50000000       0.50000000       0.00000000 </v>
    <v>       0.00000000       0.00000000       0.16666667 </v>
    <v>       0.16666667       0.00000000       0.16666667 </v>
    <v>       0.33333333       0.00000000       0.16666667 </v>
    <v>       0.50000000       0.00000000       0.16666667 </v>
    <v>       0.16666667       0.16666667       0.16666667 </v>
    <v>       0.33333333       0.16666667       0.16666667 </v>
    <v>       0.50000000       0.16666667       0.16666667 </v>
    <v>      -0.33333333       0.16666667       0.16666667 </v>
    <v>      -0.16666667       0.16666667       0.16666667 </v>
    <v>       0.33333333       0.33333333       0.16666667 </v>
    <v>       0.50000000       0.33333333       0.16666667 </v>
    <v>      -0.33333333       0.33333333       0.16666667 </v>
    <v>       0.50000000       0.50000000       0.16666667 </v>
    <v>       0.00000000       0.00000000       0.33333333 </v>
    <v>       0.16666667       0.00000000       0.33333333 </v>
    <v>       0.33333333       0.00000000       0.33333333 </v>
    <v>       0.50000000       0.00000000       0.33333333 </v>
    <v>       0.16666667       0.16666667       0.33333333 </v>
    <v>       0.33333333       0.16666667       0.33333333 </v>
    <v>       0.50000000       0.16666667       0.33333333 </v>
    <v>      -0.33333333       0.16666667       0.33333333 </v>
    <v>      -0.16666667       0.16666667       0.33333333 </v>
    <v>       0.33333333       0.33333333       0.33333333 </v>
    <v>       0.50000000       0.33333333       0.33333333 </v>
    <v>      -0.33333333       0.33333333       0.33333333 </v>
    <v>       0.50000000       0.50000000       0.33333333 </v>
    <v>       0.00000000       0.00000000       0.50000000 </v>
    <v>       0.16666667       0.00000000       0.50000000 </v>
    <v>       0.33333333       0.00000000       0.50000000 </v>
    <v>       0.50000000       0.00000000       0.50000000 </v>
    <v>       0.16666667       0.16666667       0.50000000 </v>
    <v>       0.33333333       0.16666667       0.50000000 </v>
    <v>       0.50000000       0.16666667       0.50000000 </v>
    <v>      -0.33333333       0.16666667       0.50000000 </v>
    <v>      -0.16666667       0.16666667       0.50000000 </v>
    <v>       0.33333333       0.33333333       0.50000000 </v>
    <v>       0.50000000       0.33333333       0.50000000 </v>
    <v>      -0.33333333       0.33333333       0.50000000 </v>
    <v>       0.50000000       0.50000000       0.50000000 </v>
   </varray>
   <varray name="weights" >
    <v>       0.00462963 </v>
    <v>       0.01851852 </v>
    <v>       0.01851852 </v>
    <v>       0.00925926 </v>
    <v>       0.00925926 </v>
    <v>       0.01851852 </v>
    <v>       0.01851852 </v>
    <v>       0.01851852 </v>
    <v>       0.00925926 </v>
    <v>       0.00925926 </v>
    <v>       0.01851852 </v>
    <v>       0.00925926 </v>
    <v>       0.00462963 </v>
    <v>       0.00925926 </v>
    <v>       0.03703704 </v>
    <v>       0.03703704 </v>
    <v>       0.01851852 </v>
    <v>       0.01851852 </v>
    <v>       0.03703704 </v>
    <v>       0.03703704 </v>
    <v>       0.03703704 </v>
    <v>       0.01851852 </v>
    <v>       0.01851852 </v>
    <v>       0.03703704 </v>
    <v>       0.01851852 </v>
    <v>       0.00925926 </v>
    <v>       0.00925926 </v>
    <v>       0.03703704 </v>
    <v>       0.03703704 </v>
    <v>       0.01851852 </v>
    <v>       0.01851852 </v>
    <v>       0.03703704 </v>
    <v>       0.03703704 </v>
    <v>       0.03703704 </v>
    <v>       0.01851852 </v>
    <v>       0.01851852 </v>
    <v>       0.03703704 </v>
    <v>       0.01851852 </v>
    <v>       0.00925926 </v>
    <v>       0.00462963 </v>
    <v>       0.01851852 </v>
    <v>       0.01851852 </v>
    <v>       0.00925926 </v>
    <v>       0.00925926 </v>
    <v>       0.01851852 </v>
    <v>       0.01851852 </v>
    <v>       0.01851852 </v>
    <v>       0.00925926 </v>
    <v>       0.00925926 </v>
    <v>       0.01851852 </v>
    <v>       0.00925926 </v>
    <v>       0.00462963 </v>
   </varray>
  </kpoints>
  <scstep>
   <time name="total">   41.82   41.83</time>
   <energy>
    <i name="e_fr_energy">   -379.44398556 </i>
    <i name="e_wo_entrp">   -379.44398556 </i>
    <i name="e_0_energy">   -379.44398556 </i>
   </energy>
  </scstep>
  <scstep>
   <time name="total">   30.05   30.05</time>
   <energy>
    <i name="e_fr_energy">   -317.08705650 </i>
    <i name="e_wo_entrp">   -317.08705650 </i>
    <i name="e_0_energy">   -317.08705650 </i>
   </energy>
  </scstep>
  <scstep>
   <time name="total">   30.63   30.63</time>
   <energy>
    <i name="e_fr_energy">   -316.30724556 </i>
    <i name="e_wo_entrp">   -316.30724556 </i>
    <i name="e_0_energy">   -316.30724556 </i>
   </energy>
  </scstep>
  <scstep>
   <time name="total">   31.09   31.10</time>
   <energy>
    <i name="e_fr_energy">   -317.10205936 </i>
    <i name="e_wo_entrp">   -317.10205936 </i>
    <i name="e_0_energy">   -317.10205936 </i>
   </energy>
  </scstep>
  <scstep>
   <time name="total">   31.38   31.38</time>
   <energy>
    <i name="e_fr_energy">   -317.38360745 </i>
    <i name="e_wo_entrp">   -317.38360745 </i>
    <i name="e_0_energy">   -317.38360745 </i>
   </energy>
  </scstep>
  <scstep>
   <time name="total">   31.09   31.10</time>
   <energy>
    <i name="e_fr_energy">   -317.34234939 </i>
    <i name="e_wo_entrp">   -317.34234939 </i>
    <i name="e_0_energy">   -317.34234939 </i>
   </energy>
  </scstep>
  <scstep>
   <time name="total">   31.71   31.71</time>
   <energy>
    <i name="e_fr_energy">   -317.32164114 </i>
    <i name="e_wo_entrp">   -317.32164114 </i>
    <i name="e_0_energy">   -317.32164114 </i>
   </energy>
  </scstep>
  <scstep>
   <time name="total">   33.23   33.23</time>
   <energy>
    <i name="e_fr_energy">   -317.32019987 </i>
    <i name="e_wo_entrp">   -317.32019987 </i>
    <i name="e_0_energy">   -317.32019987 </i>
   </energy>
  </scstep>
  <scstep>
   <time name="total">   33.53   33.53</time>
   <energy>
    <i name="e_fr_energy">   -317.31951023 </i>
    <i name="e_wo_entrp">   -317.31951023 </i>
    <i name="e_0_energy">   -317.31951023 </i>
   </energy>
  </scstep>
  <scstep>
   <time name="total">   34.78   34.78</time>
   <energy>
    <i name="e_fr_energy">   -317.31972408 </i>
    <i name="e_wo_entrp">   -317.31972408 </i>
    <i name="e_0_energy">   -317.31972408 </i>
   </energy>
  </scstep>
  <scstep>
   <time name="total">   33.50   33.50</time>
   <energy>
    <i name="e_fr_energy">   -317.31973744 </i>
    <i name="e_wo_entrp">   -317.31973744 </i>
    <i name="e_0_energy">   -317.31973744 </i>
   </energy>
  </scstep>
  <scstep>
   <time name="total">   32.94   32.95</time>
   <energy>
    <i name="e_fr_energy">   -317.31976240 </i>
    <i name="e_wo_entrp">   -317.31976240 </i>
    <i name="e_0_energy">   -317.31976240 </i>
   </energy>
  </scstep>
  <kpoints>
   <generation param="Gamma">
    <v type="int" name="divisions">       6        6        6 </v>
    <v name="usershift">      0.00000000       0.00000000       0.00000000 </v>
    <v name="genvec1">      0.16666667       0.00000000       0.00000000 </v>
    <v name="genvec2">      0.00000000       0.16666667       0.00000000 </v>
    <v name="genvec3">      0.00000000       0.00000000       0.16666667 </v>
    <v name="shift">      0.00000000       0.00000000       0.00000000 </v>
   </generation>
   <varray name="kpointlist" >
    <v>       0.00000000       0.00000000       0.00000000 </v>
    <v>       0.16666667       0.00000000       0.00000000 </v>
    <v>       0.33333333       0.00000000       0.00000000 </v>
    <v>       0.50000000       0.00000000       0.00000000 </v>
    <v>       0.16666667       0.16666667       0.00000000 </v>
    <v>       0.33333333       0.16666667       0.00000000 </v>
    <v>       0.50000000       0.16666667       0.00000000 </v>
    <v>       0.33333333       0.33333333       0.00000000 </v>
    <v>       0.50000000       0.33333333       0.00000000 </v>
    <v>       0.50000000       0.50000000       0.00000000 </v>
    <v>       0.00000000       0.00000000       0.16666667 </v>
    <v>       0.16666667       0.00000000       0.16666667 </v>
    <v>       0.33333333       0.00000000       0.16666667 </v>
    <v>       0.50000000       0.00000000       0.16666667 </v>
    <v>       0.16666667       0.16666667       0.16666667 </v>
    <v>       0.33333333       0.16666667       0.16666667 </v>
    <v>       0.50000000       0.16666667       0.16666667 </v>
    <v>       0.33333333       0.33333333       0.16666667 </v>
    <v>       0.50000000       0.33333333       0.16666667 </v>
    <v>       0.50000000       0.50000000       0.16666667 </v>
    <v>       0.00000000       0.00000000       0.33333333 </v>
    <v>       0.16666667       0.00000000       0.33333333 </v>
    <v>       0.33333333       0.00000000       0.33333333 </v>
    <v>       0.50000000       0.00000000       0.33333333 </v>
    <v>       0.16666667       0.16666667       0.33333333 </v>
    <v>       0.33333333       0.16666667       0.33333333 </v>
    <v>       0.50000000       0.16666667       0.33333333 </v>
    <v>       0.33333333       0.33333333       0.33333333 </v>
    <v>       0.50000000       0.33333333       0.33333333 </v>
    <v>       0.50000000       0.50000000       0.33333333 </v>
    <v>       0.00000000       0.00000000       0.50000000 </v>
    <v>       0.16666667       0.00000000       0.50000000 </v>
    <v>       0.33333333       0.00000000       0.50000000 </v>
    <v>       0.50000000       0.00000000       0.50000000 </v>
    <v>       0.16666667       0.16666667       0.50000000 </v>
    <v>       0.33333333       0.16666667       0.50000000 </v>
    <v>       0.50000000       0.16666667       0.50000000 </v>
    <v>       0.33333333       0.33333333       0.50000000 </v>
    <v>       0.50000000       0.33333333       0.50000000 </v>
    <v>       0.50000000       0.50000000       0.50000000 </v>
   </varray>
   <varray name="weights" >
    <v>       0.00462963 </v>
    <v>       0.01851852 </v>
    <v>       0.01851852 </v>
    <v>       0.00925926 </v>
    <v>       0.01851852 </v>
    <v>       0.03703704 </v>
    <v>       0.01851852 </v>
    <v>       0.01851852 </v>
    <v>       0.01851852 </v>
    <v>       0.00462963 </v>
    <v>       0.00925926 </v>
    <v>       0.03703704 </v>
    <v>       0.03703704 </v>
    <v>       0.01851852 </v>
    <v>       0.03703704 </v>
    <v>       0.07407407 </v>
    <v>       0.03703704 </v>
    <v>       0.03703704 </v>
    <v>       0.03703704 </v>
    <v>       0.00925926 </v>
    <v>       0.00925926 </v>
    <v>       0.03703704 </v>
    <v>       0.03703704 </v>
    <v>       0.01851852 </v>
    <v>       0.03703704 </v>
    <v>       0.07407407 </v>
    <v>       0.03703704 </v>
    <v>       0.03703704 </v>
    <v>       0.03703704 </v>
    <v>       0.00925926 </v>
    <v>       0.00462963 </v>
    <v>       0.01851852 </v>
    <v>       0.01851852 </v>
    <v>       0.00925926 </v>
    <v>       0.01851852 </v>
    <v>       0.03703704 </v>
    <v>       0.01851852 </v>
    <v>       0.01851852 </v>
    <v>       0.01851852 </v>
    <v>       0.00462963 </v>
   </varray>
  </kpoints>
  <dynmat>
   <varray name="hessian" >
    <v>      -4.24306570       0.00000000       0.00000000       0.01468947      -0.00000000       0.00000000       0.00817828       0.00000000       0.00000000       0.01355134       0.00000000       0.00000000       0.00980225       0.00000000      -0.00000000       0.01141830      -0.00000000      -0.00000000      -0.04953856       0.00000000       0.00000000       0.00487112       0.00000000      -0.00000000      -0.01419208      -0.00710839       0.00249664       0.01146082      -0.01474066      -0.02008110       0.87561557      -0.26560297      -0.28412110      -0.00386894      -0.00710839      -0.00651937       0.03045905      -0.01939358      -0.02018787      -0.00281022      -0.00215314      -0.00271011      -0.01461031       0.00569412      -0.01032057       0.00716099      -0.01939358      -0.00863252      -0.12525343       0.06922276      -0.06334464      -0.00649161       0.00330723      -0.00357454      -0.12525343       0.06922276       0.06334464      -0.00649161       0.00330723       0.00357454      -0.12525343      -0.06922276      -0.06334464      -0.00649161      -0.00330723      -0.00357454      -0.12525343      -0.06922276       0.06334464      -0.00649161      -0.00330723       0.00357454       0.87561557       0.26560297       0.28412110      -0.00386894       0.00710839       0.00651937      -0.01419208       0.00710839      -0.00249664       0.01146082       0.01474066       0.02008110      -0.01461031      -0.00569412       0.01032057       0.00716099       0.01939358       0.00863252       0.03045905       0.01939358       0.02018787      -0.00281022       0.00215314       0.00271011       0.13465129      -0.06922276       0.14085202       0.13465129      -0.06922276      -0.14085202       0.00751473      -0.00330723      -0.00628949       0.00751473      -0.00330723       0.00628949       0.13465129       0.06922276      -0.14085202       0.13465129       0.06922276       0.14085202       0.00751473       0.00330723       0.00628949       0.00751473       0.00330723      -0.00628949      -0.01419208       0.00710839       0.00249664       0.01146082       0.01474066      -0.02008110       0.87561557       0.26560297      -0.28412110      -0.00386894       0.00710839      -0.00651937       0.03045905       0.01939358      -0.02018787      -0.00281022       0.00215314      -0.00271011      -0.01461031      -0.00569412      -0.01032057       0.00716099       0.01939358      -0.00863252       0.15101611      -0.16369240       0.06607153       0.15101611       0.16369240       0.06607153       0.15101611       0.16369240      -0.06607153       0.15101611      -0.16369240      -0.06607153       0.00687141       0.00515461       0.00380993       0.00687141      -0.00515461       0.00380993       0.00687141      -0.00515461      -0.00380993       0.00687141       0.00515461      -0.00380993       0.87561557      -0.26560297       0.28412110      -0.00386894      -0.00710839       0.00651937      -0.01419208      -0.00710839      -0.00249664       0.01146082      -0.01474066       0.02008110      -0.01461031       0.00569412       0.01032057       0.00716099      -0.01939358       0.00863252       0.03045905      -0.01939358       0.02018787      -0.00281022      -0.00215314       0.00271011 </v>
    <v>       0.00000000      -4.24306570      -0.00000000      -0.00000000       0.00817828      -0.00000000       0.00000000       0.01468947      -0.00000000       0.00000000       0.01355134      -0.00000000       0.00000000       0.00980225      -0.00000000      -0.00000000      -0.04953856      -0.00000000       0.00000000       0.01141830       0.00000000       0.00000000       0.00487112      -0.00000000      -0.00710839      -0.00386894       0.00651937      -0.01474066       0.01146082       0.02008110      -0.26560297       0.87561557       0.28412110      -0.00710839      -0.01419208      -0.00249664      -0.01939358       0.00716099       0.00863252      -0.00215314      -0.00281022       0.00271011       0.00569412      -0.01461031       0.01032057      -0.01939358       0.03045905       0.02018787      -0.06922276       0.13465129      -0.14085202      -0.00330723       0.00751473       0.00628949      -0.06922276       0.13465129       0.14085202      -0.00330723       0.00751473      -0.00628949       0.06922276       0.13465129       0.14085202       0.00330723       0.00751473      -0.00628949       0.06922276       0.13465129      -0.14085202       0.00330723       0.00751473       0.00628949       0.26560297       0.87561557       0.28412110       0.00710839      -0.01419208      -0.00249664       0.00710839      -0.00386894       0.00651937       0.01474066       0.01146082       0.02008110      -0.00569412      -0.01461031       0.01032057       0.01939358       0.03045905       0.02018787       0.01939358       0.00716099       0.00863252       0.00215314      -0.00281022       0.00271011       0.06922276      -0.12525343       0.06334464       0.06922276      -0.12525343      -0.06334464       0.00330723      -0.00649161       0.00357454       0.00330723      -0.00649161      -0.00357454      -0.06922276      -0.12525343       0.06334464      -0.06922276      -0.12525343      -0.06334464      -0.00330723      -0.00649161       0.00357454      -0.00330723      -0.00649161      -0.00357454       0.00710839      -0.00386894      -0.00651937       0.01474066       0.01146082      -0.02008110       0.26560297       0.87561557      -0.28412110       0.00710839      -0.01419208       0.00249664       0.01939358       0.00716099      -0.00863252       0.00215314      -0.00281022      -0.00271011      -0.00569412      -0.01461031      -0.01032057       0.01939358       0.03045905      -0.02018787      -0.16369240       0.15101611      -0.06607153       0.16369240       0.15101611       0.06607153       0.16369240       0.15101611      -0.06607153      -0.16369240       0.15101611       0.06607153       0.00515461       0.00687141      -0.00380993      -0.00515461       0.00687141       0.00380993      -0.00515461       0.00687141      -0.00380993       0.00515461       0.00687141       0.00380993      -0.26560297       0.87561557      -0.28412110      -0.00710839      -0.01419208       0.00249664      -0.00710839      -0.00386894      -0.00651937      -0.01474066       0.01146082      -0.02008110       0.00569412      -0.01461031      -0.01032057      -0.01939358       0.03045905      -0.02018787      -0.01939358       0.00716099      -0.00863252      -0.00215314      -0.00281022      -0.00271011 </v>
    <v>       0.00000000      -0.00000000      -4.12818442       0.00000000      -0.00000000       0.00611767       0.00000000      -0.00000000       0.00611767       0.00000000      -0.00000000      -0.04705226      -0.00000000      -0.00000000       0.01630471      -0.00000000      -0.00000000       0.01059886       0.00000000       0.00000000       0.01059886      -0.00000000      -0.00000000       0.00450434       0.00249664       0.00651937      -0.01180451      -0.02008110       0.02008110       0.02807459      -0.28412110       0.28412110       0.85546030      -0.00651937      -0.00249664      -0.01180451      -0.02018787       0.00863252       0.00581268      -0.00271011       0.00271011      -0.00278921      -0.01032057       0.01032057      -0.00898963      -0.00863252       0.02018787       0.00581268       0.06334464      -0.14085202       0.14000937       0.00357454       0.00628949       0.00770720      -0.06334464       0.14085202       0.14000937      -0.00357454      -0.00628949       0.00770720       0.06334464       0.14085202       0.14000937       0.00357454      -0.00628949       0.00770720      -0.06334464      -0.14085202       0.14000937      -0.00357454       0.00628949       0.00770720       0.28412110       0.28412110       0.85546030       0.00651937      -0.00249664      -0.01180451      -0.00249664       0.00651937      -0.01180451       0.02008110       0.02008110       0.02807459       0.01032057       0.01032057      -0.00898963       0.00863252       0.02018787       0.00581268       0.02018787       0.00863252       0.00581268       0.00271011       0.00271011      -0.00278921       0.14085202      -0.06334464       0.14000937      -0.14085202       0.06334464       0.14000937      -0.00628949      -0.00357454       0.00770720       0.00628949       0.00357454       0.00770720      -0.14085202      -0.06334464       0.14000937       0.14085202       0.06334464       0.14000937       0.00628949      -0.00357454       0.00770720      -0.00628949       0.00357454       0.00770720       0.00249664      -0.00651937      -0.01180451      -0.02008110      -0.02008110       0.02807459      -0.28412110      -0.28412110       0.85546030      -0.00651937       0.00249664      -0.01180451      -0.02018787      -0.00863252       0.00581268      -0.00271011      -0.00271011      -0.00278921      -0.01032057      -0.01032057      -0.00898963      -0.00863252      -0.02018787       0.00581268      -0.06607153       0.06607153      -0.12078376      -0.06607153      -0.06607153      -0.12078376       0.06607153       0.06607153      -0.12078376       0.06607153      -0.06607153      -0.12078376      -0.00380993       0.00380993      -0.00417313      -0.00380993      -0.00380993      -0.00417313       0.00380993       0.00380993      -0.00417313       0.00380993      -0.00380993      -0.00417313       0.28412110      -0.28412110       0.85546030       0.00651937       0.00249664      -0.01180451      -0.00249664      -0.00651937      -0.01180451       0.02008110      -0.02008110       0.02807459       0.01032057      -0.01032057      -0.00898963       0.00863252      -0.02018787       0.00581268       0.02018787      -0.00863252       0.00581268       0.00271011      -0.00271011      -0.00278921 </v>
    <v>       0.01468947      -0.00000000       0.00000000      -4.24306570       0.00000000       0.00000000       0.01355134       0.00000000       0.00000000       0.00817828       0.00000000       0.00000000       0.01141830      -0.00000000      -0.00000000       0.00980225       0.00000000      -0.00000000       0.00487112       0.00000000      -0.00000000      -0.04953856       0.00000000       0.00000000       0.01146082      -0.01474066      -0.02008110      -0.01419208      -0.00710839       0.00249664      -0.00386894      -0.00710839      -0.00651937       0.87561557      -0.26560297      -0.28412110      -0.00281022      -0.00215314      -0.00271011       0.03045905      -0.01939358      -0.02018787       0.00716099      -0.01939358      -0.00863252      -0.01461031       0.00569412      -0.01032057      -0.00649161       0.00330723      -0.00357454      -0.12525343       0.06922276      -0.06334464      -0.00649161       0.00330723       0.00357454      -0.12525343       0.06922276       0.06334464      -0.00649161      -0.00330723      -0.00357454      -0.12525343      -0.06922276      -0.06334464      -0.00649161      -0.00330723       0.00357454      -0.12525343      -0.06922276       0.06334464      -0.00386894       0.00710839       0.00651937       0.87561557       0.26560297       0.28412110       0.01146082       0.01474066       0.02008110      -0.01419208       0.00710839      -0.00249664       0.00716099       0.01939358       0.00863252      -0.01461031      -0.00569412       0.01032057      -0.00281022       0.00215314       0.00271011       0.03045905       0.01939358       0.02018787       0.13465129      -0.06922276      -0.14085202       0.13465129      -0.06922276       0.14085202       0.00751473      -0.00330723       0.00628949       0.00751473      -0.00330723      -0.00628949       0.13465129       0.06922276       0.14085202       0.13465129       0.06922276      -0.14085202       0.00751473       0.00330723      -0.00628949       0.00751473       0.00330723       0.00628949       0.01146082       0.01474066      -0.02008110      -0.01419208       0.00710839       0.00249664      -0.00386894       0.00710839      -0.00651937       0.87561557       0.26560297      -0.28412110      -0.00281022       0.00215314      -0.00271011       0.03045905       0.01939358      -0.02018787       0.00716099       0.01939358      -0.00863252      -0.01461031      -0.00569412      -0.01032057       0.15101611       0.16369240       0.06607153       0.15101611      -0.16369240       0.06607153       0.15101611      -0.16369240      -0.06607153       0.15101611       0.16369240      -0.06607153       0.00687141      -0.00515461       0.00380993       0.00687141       0.00515461       0.00380993       0.00687141       0.00515461      -0.00380993       0.00687141      -0.00515461      -0.00380993      -0.00386894      -0.00710839       0.00651937       0.87561557      -0.26560297       0.28412110       0.01146082      -0.01474066       0.02008110      -0.01419208      -0.00710839      -0.00249664       0.00716099      -0.01939358       0.00863252      -0.01461031       0.00569412       0.01032057      -0.00281022      -0.00215314       0.00271011       0.03045905      -0.01939358       0.02018787 </v>
[...]
      </set>
     </set>
    </set>
   </array>
  </eigenvalues>
  <separator name="orbital magnetization" >
   <v name="MAGDIPOLOUT">      0.00000000      0.00000000      0.00000000</v>
  </separator>
  <dos>
   <i name="efermi">     11.29911652 </i>
   <total>
    <array>
     <dimension dim="1">gridpoints</dimension>
     <dimension dim="2">spin</dimension>
     <field>energy</field>
     <field>total</field>
     <field>integrated</field>
     <set>
      <set comment="spin 1">
       <r>   -13.3639     0.0000     0.0000 </r>
       <r>   -13.2381     0.0000     0.0000 </r>
       <r>   -13.1123     0.0000     0.0000 </r>
       <r>   -12.9865     0.0000     0.0000 </r>
       <r>   -12.8607     0.0000     0.0000 </r>
       <r>   -12.7349     0.0000     0.0000 </r>
       <r>   -12.6091     0.0000     0.0000 </r>
       <r>   -12.4833     0.0000     0.0000 </r>
       <r>   -12.3575     0.0000     0.0000 </r>
       <r>   -12.2317     0.0000     0.0000 </r>
       <r>   -12.1060     0.0000     0.0000 </r>
       <r>   -11.9802     0.0000     0.0000 </r>
       <r>   -11.8544     0.0000     0.0000 </r>
       <r>   -11.7286     0.0023     0.0003 </r>
       <r>   -11.6028     0.2139     0.0272 </r>
       <r>   -11.4770     1.1622     0.1734 </r>
       <r>   -11.3512     1.2897     0.3356 </r>
       <r>   -11.2254     2.7140     0.6770 </r>
       <r>   -11.0996     1.3972     0.8528 </r>
       <r>   -10.9738     3.3045     1.2684 </r>
       <r>   -10.8480     2.7786     1.6180 </r>
       <r>   -10.7223     3.3862     2.0439 </r>
       <r>   -10.5965     2.6089     2.3721 </r>
       <r>   -10.4707     3.7945     2.8494 </r>
       <r>   -10.3449     4.4683     3.4115 </r>
       <r>   -10.2191     4.2491     3.9460 </r>
       <r>   -10.0933     3.0063     4.3241 </r>
       <r>    -9.9675     3.8871     4.8131 </r>
       <r>    -9.8417     5.7213     5.5328 </r>
       <r>    -9.7159     5.1249     6.1775 </r>
       <r>    -9.5901     4.7408     6.7738 </r>
       <r>    -9.4643     3.4131     7.2032 </r>
       <r>    -9.3385     6.3411     8.0008 </r>
       <r>    -9.2128     5.4376     8.6848 </r>
       <r>    -9.0870     4.9086     9.3023 </r>
       <r>    -8.9612     4.9376     9.9234 </r>
       <r>    -8.8354     7.9489    10.9233 </r>
       <r>    -8.7096     5.7671    11.6488 </r>
       <r>    -8.5838     5.2334    12.3071 </r>
       <r>    -8.4580     4.7350    12.9027 </r>
       <r>    -8.3322     6.5144    13.7222 </r>
       <r>    -8.2064     7.9564    14.7230 </r>
       <r>    -8.0806     6.5508    15.5470 </r>
       <r>    -7.9548     7.9767    16.5504 </r>
       <r>    -7.8290     5.2600    17.2121 </r>
       <r>    -7.7033     6.7377    18.0596 </r>
       <r>    -7.5775     7.4417    18.9958 </r>
       <r>    -7.4517     7.4038    19.9271 </r>
       <r>    -7.3259     6.8970    20.7947 </r>
       <r>    -7.2001     8.5933    21.8756 </r>
       <r>    -7.0743     7.4983    22.8189 </r>
       <r>    -6.9485     8.6189    23.9030 </r>
       <r>    -6.8227     5.6678    24.6160 </r>
       <r>    -6.6969    11.2181    26.0271 </r>
       <r>    -6.5711     8.3891    27.0824 </r>
       <r>    -6.4453     7.1038    27.9760 </r>
       <r>    -6.3196     7.1101    28.8704 </r>
       <r>    -6.1938     8.5771    29.9493 </r>
       <r>    -6.0680    10.9009    31.3206 </r>
       <r>    -5.9422    10.5192    32.6438 </r>
       <r>    -5.8164    10.2800    33.9369 </r>
       <r>    -5.6906     8.7303    35.0351 </r>
       <r>    -5.5648    10.4270    36.3468 </r>
       <r>    -5.4390    10.1785    37.6271 </r>
       <r>    -5.3132    11.0305    39.0147 </r>
       <r>    -5.1874    11.2365    40.4281 </r>
       <r>    -5.0616    13.6850    42.1496 </r>
       <r>    -4.9358     9.6169    43.3593 </r>
       <r>    -4.8101     8.4334    44.4201 </r>
       <r>    -4.6843    10.2488    45.7094 </r>
       <r>    -4.5585    11.5771    47.1657 </r>
       <r>    -4.4327    12.3263    48.7162 </r>
       <r>    -4.3069     7.1029    49.6097 </r>
       <r>    -4.1811     7.3388    50.5328 </r>
       <r>    -4.0553     9.6281    51.7440 </r>
       <r>    -3.9295    10.0034    53.0023 </r>
       <r>    -3.8037     5.6186    53.7091 </r>
       <r>    -3.6779     9.7770    54.9389 </r>
       <r>    -3.5521     7.9012    55.9328 </r>
       <r>    -3.4263     5.8053    56.6631 </r>
       <r>    -3.3006     8.2754    57.7041 </r>
       <r>    -3.1748     9.5710    58.9080 </r>
       <r>    -3.0490     9.0587    60.0475 </r>
       <r>    -2.9232    11.4664    61.4899 </r>
       <r>    -2.7974     7.5873    62.4443 </r>
       <r>    -2.6716     7.0274    63.3283 </r>
       <r>    -2.5458     8.6769    64.4198 </r>
       <r>    -2.4200     8.9660    65.5476 </r>
       <r>    -2.2942     7.8254    66.5320 </r>
       <r>    -2.1684    11.5468    67.9845 </r>
       <r>    -2.0426     9.7408    69.2098 </r>
       <r>    -1.9168     9.8916    70.4541 </r>
       <r>    -1.7911    10.6597    71.7950 </r>
       <r>    -1.6653     9.0038    72.9276 </r>
       <r>    -1.5395    12.4864    74.4983 </r>
       <r>    -1.4137    14.0203    76.2619 </r>
       <r>    -1.2879    14.6368    78.1031 </r>
       <r>    -1.1621    16.7057    80.2045 </r>
       <r>    -1.0363    16.2237    82.2453 </r>
       <r>    -0.9105    12.2150    83.7818 </r>
       <r>    -0.7847    19.8576    86.2798 </r>
       <r>    -0.6589    18.7529    88.6387 </r>
       <r>    -0.5331    11.5920    90.0969 </r>
       <r>    -0.4074     8.8848    91.2145 </r>
       <r>    -0.2816     8.4505    92.2775 </r>
       <r>    -0.1558    10.9331    93.6528 </r>
       <r>    -0.0300    11.4942    95.0987 </r>
       <r>     0.0958     9.7437    96.3244 </r>
       <r>     0.2216     7.5860    97.2786 </r>
       <r>     0.3474    10.3162    98.5763 </r>
       <r>     0.4732     8.6580    99.6654 </r>
       <r>     0.5990    11.7167   101.1393 </r>
       <r>     0.7248     9.2197   102.2990 </r>
       <r>     0.8506     6.6074   103.1302 </r>
       <r>     0.9764    11.6602   104.5969 </r>
       <r>     1.1021    12.7342   106.1988 </r>
       <r>     1.2279    14.6605   108.0430 </r>
       <r>     1.3537    12.3122   109.5917 </r>
       <r>     1.4795    16.4002   111.6547 </r>
       <r>     1.6053    15.4404   113.5970 </r>
       <r>     1.7311    14.9817   115.4816 </r>
       <r>     1.8569    17.9498   117.7395 </r>
       <r>     1.9827    12.1960   119.2737 </r>
       <r>     2.1085    13.8628   121.0175 </r>
       <r>     2.2343    19.1659   123.4284 </r>
       <r>     2.3601    12.6886   125.0245 </r>
       <r>     2.4859    16.6990   127.1251 </r>
       <r>     2.6116    20.1716   129.6625 </r>
       <r>     2.7374    18.6824   132.0126 </r>
       <r>     2.8632     9.9007   133.2580 </r>
       <r>     2.9890    12.0094   134.7687 </r>
       <r>     3.1148    19.8799   137.2694 </r>
       <r>     3.2406    23.9873   140.2868 </r>
       <r>     3.3664    20.0112   142.8041 </r>
       <r>     3.4922    15.5543   144.7607 </r>
       <r>     3.6180    11.5275   146.2107 </r>
       <r>     3.7438    20.5891   148.8006 </r>
       <r>     3.8696    28.6645   152.4064 </r>
       <r>     3.9953    25.3198   155.5914 </r>
       <r>     4.1211    22.0006   158.3589 </r>
       <r>     4.2469    16.7214   160.4623 </r>
       <r>     4.3727    24.2961   163.5186 </r>
       <r>     4.4985    22.3651   166.3319 </r>
       <r>     4.6243    25.0677   169.4852 </r>
       <r>     4.7501    18.4534   171.8065 </r>
       <r>     4.8759    25.8765   175.0615 </r>
       <r>     5.0017    29.7231   178.8004 </r>
       <r>     5.1275    23.8746   181.8037 </r>
       <r>     5.2533    16.9561   183.9366 </r>
       <r>     5.3791    19.0748   186.3360 </r>
       <r>     5.5048    19.5713   188.7979 </r>
       <r>     5.6306    25.3345   191.9848 </r>
       <r>     5.7564    24.7409   195.0970 </r>
       <r>     5.8822    23.3441   198.0335 </r>
       <r>     6.0080    22.6946   200.8883 </r>
       <r>     6.1338    19.1595   203.2984 </r>
       <r>     6.2596    15.7528   205.2799 </r>
       <r>     6.3854    18.5946   207.6190 </r>
       <r>     6.5112    25.0977   210.7760 </r>
       <r>     6.6370    20.4158   213.3442 </r>
       <r>     6.7628    21.1749   216.0078 </r>
       <r>     6.8886    24.4214   219.0798 </r>
       <r>     7.0143    15.9547   221.0868 </r>
       <r>     7.1401    19.4842   223.5377 </r>
       <r>     7.2659    14.0916   225.3103 </r>
       <r>     7.3917    19.5244   227.7663 </r>
       <r>     7.5175    20.3490   230.3260 </r>
       <r>     7.6433    19.6521   232.7981 </r>
       <r>     7.7691    17.7156   235.0266 </r>
       <r>     7.8949    11.4161   236.4626 </r>
       <r>     8.0207    13.2795   238.1331 </r>
       <r>     8.1465    11.8876   239.6284 </r>
       <r>     8.2723    16.6179   241.7188 </r>
       <r>     8.3981    11.3241   243.1433 </r>
       <r>     8.5238    10.5863   244.4750 </r>
       <r>     8.6496    11.1616   245.8790 </r>
       <r>     8.7754     8.8451   246.9916 </r>
       <r>     8.9012     5.3387   247.6632 </r>
       <r>     9.0270     7.3442   248.5870 </r>
       <r>     9.1528     9.9572   249.8396 </r>
       <r>     9.2786     6.6269   250.6732 </r>
       <r>     9.4044     6.7166   251.5181 </r>
       <r>     9.5302     3.2532   251.9273 </r>
       <r>     9.6560     5.0190   252.5586 </r>
       <r>     9.7818     6.2225   253.3414 </r>
       <r>     9.9075     4.2196   253.8722 </r>
       <r>    10.0333     3.6977   254.3373 </r>
       <r>    10.1591     3.0807   254.7248 </r>
       <r>    10.2849     2.6143   255.0537 </r>
       <r>    10.4107     2.4355   255.3600 </r>
       <r>    10.5365     1.7236   255.5769 </r>
       <r>    10.6623     1.8127   255.8049 </r>
       <r>    10.7881     0.9490   255.9243 </r>
       <r>    10.9139     0.4195   255.9770 </r>
       <r>    11.0397     0.1800   255.9997 </r>
       <r>    11.1655     0.0026   256.0000 </r>
       <r>    11.2913     0.0000   256.0000 </r>
       <r>    11.4170     0.0000   256.0000 </r>
       <r>    11.5428     0.0000   256.0000 </r>
       <r>    11.6686     0.0000   256.0000 </r>
       <r>    11.7944     0.0000   256.0000 </r>
       <r>    11.9202     0.0000   256.0000 </r>
       <r>    12.0460     0.0000   256.0000 </r>
       <r>    12.1718     0.0000   256.0000 </r>
       <r>    12.2976     0.0000   256.0000 </r>
       <r>    12.4234     0.0000   256.0000 </r>
       <r>    12.5492     0.0000   256.0000 </r>
       <r>    12.6750     0.0000   256.0000 </r>
       <r>    12.8008     0.0000   256.0000 </r>
       <r>    12.9265     0.0000   256.0000 </r>
       <r>    13.0523     0.0000   256.0000 </r>
       <r>    13.1781     0.0000   256.0000 </r>
       <r>    13.3039     0.0000   256.0000 </r>
       <r>    13.4297     0.0000   256.0000 </r>
       <r>    13.5555     0.0000   256.0000 </r>
       <r>    13.6813     0.0000   256.0000 </r>
       <r>    13.8071     0.0000   256.0000 </r>
       <r>    13.9329     0.0000   256.0000 </r>
       <r>    14.0587     0.0000   256.0000 </r>
       <r>    14.1845     0.0000   256.0000 </r>
       <r>    14.3102     0.0000   256.0000 </r>
       <r>    14.4360     0.0000   256.0000 </r>
       <r>    14.5618     0.0050   256.0006 </r>
       <r>    14.6876     0.4142   256.0527 </r>
       <r>    14.8134     0.5675   256.1241 </r>
       <r>    14.9392     1.1944   256.2744 </r>
       <r>    15.0650     3.0335   256.6560 </r>
       <r>    15.1908     3.7593   257.1288 </r>
       <r>    15.3166     4.1559   257.6516 </r>
       <r>    15.4424     2.6997   257.9912 </r>
       <r>    15.5682     1.8674   258.2261 </r>
       <r>    15.6940     5.0908   258.8665 </r>
       <r>    15.8197    10.8056   260.2258 </r>
       <r>    15.9455     8.4792   261.2924 </r>
       <r>    16.0713     6.8551   262.1547 </r>
       <r>    16.1971     9.0208   263.2894 </r>
       <r>    16.3229    10.6676   264.6313 </r>
       <r>    16.4487     9.7137   265.8532 </r>
       <r>    16.5745     9.5403   267.0533 </r>
       <r>    16.7003    10.2617   268.3441 </r>
       <r>    16.8261    18.4845   270.6693 </r>
       <r>    16.9519    16.3067   272.7206 </r>
       <r>    17.0777    16.5564   274.8032 </r>
       <r>    17.2035    14.0464   276.5702 </r>
       <r>    17.3292    13.5406   278.2735 </r>
       <r>    17.4550    16.6776   280.3714 </r>
       <r>    17.5808    16.4260   282.4376 </r>
       <r>    17.7066    20.4648   285.0119 </r>
       <r>    17.8324    18.8934   287.3885 </r>
       <r>    17.9582    16.8177   289.5041 </r>
       <r>    18.0840    19.8090   291.9959 </r>
       <r>    18.2098    19.9448   294.5047 </r>
       <r>    18.3356    19.8885   297.0066 </r>
       <r>    18.4614    23.0095   299.9009 </r>
       <r>    18.5872    25.0627   303.0536 </r>
       <r>    18.7130    31.3937   307.0027 </r>
       <r>    18.8387    35.8092   311.5072 </r>
       <r>    18.9645    30.9238   315.3971 </r>
       <r>    19.0903    28.5147   318.9840 </r>
       <r>    19.2161    19.6181   321.4518 </r>
       <r>    19.3419    19.7158   323.9319 </r>
       <r>    19.4677    28.9947   327.5792 </r>
       <r>    19.5935    38.6034   332.4352 </r>
       <r>    19.7193    27.4205   335.8844 </r>
       <r>    19.8451    23.2491   338.8090 </r>
       <r>    19.9709    26.5839   342.1530 </r>
       <r>    20.0967    21.9817   344.9181 </r>
       <r>    20.2224    14.9199   346.7949 </r>
       <r>    20.3482    22.5566   349.6323 </r>
       <r>    20.4740    29.0295   353.2840 </r>
       <r>    20.5998    24.1840   356.3261 </r>
       <r>    20.7256    25.8122   359.5731 </r>
       <r>    20.8514    26.5327   362.9107 </r>
       <r>    20.9772    24.0194   365.9321 </r>
       <r>    21.1030    28.7748   369.5517 </r>
       <r>    21.2288    21.5467   372.2621 </r>
       <r>    21.3546    17.8150   374.5031 </r>
       <r>    21.4804    24.5690   377.5937 </r>
       <r>    21.6062    21.8250   380.3391 </r>
       <r>    21.7319    11.2260   381.7512 </r>
       <r>    21.8577     3.2574   382.1610 </r>
       <r>    21.9835     5.0672   382.7984 </r>
       <r>    22.1093     2.1412   383.0677 </r>
       <r>    22.2351     1.5682   383.2650 </r>
       <r>    22.3609     2.8195   383.6197 </r>
       <r>    22.4867     0.9053   383.7335 </r>
       <r>    22.6125     0.9170   383.8489 </r>
       <r>    22.7383     1.1670   383.9957 </r>
       <r>    22.8641     0.0342   384.0000 </r>
       <r>    22.9899     0.0000   384.0000 </r>
       <r>    23.1157     0.0000   384.0000 </r>
       <r>    23.2414     0.0000   384.0000 </r>
       <r>    23.3672     0.0000   384.0000 </r>
       <r>    23.4930     0.0000   384.0000 </r>
       <r>    23.6188     0.0000   384.0000 </r>
       <r>    23.7446     0.0000   384.0000 </r>
       <r>    23.8704     0.0000   384.0000 </r>
       <r>    23.9962     0.0000   384.0000 </r>
       <r>    24.1220     0.0000   384.0000 </r>
       <r>    24.2478     0.0000   384.0000 </r>
       <r>    24.3736     0.0000   384.0000 </r>
      </set>
     </set>
    </array>
   </total>
  </dos>
 </calculation>
 <structure name="finalpos" >
  <crystal>
   <varray name="basis" >
    <v>       6.88681241       0.00000000       0.00000000 </v>
    <v>       0.00000000       6.88681241       0.00000000 </v>
    <v>       0.00000000       0.00000000       7.17999872 </v>
   </varray>
   <i name="volume">    340.53430838 </i>
   <varray name="rec_basis" >
    <v>       0.14520506       0.00000000       0.00000000 </v>
    <v>       0.00000000       0.14520506       0.00000000 </v>
    <v>       0.00000000       0.00000000       0.13927579 </v>
   </varray>
  </crystal>
  <varray name="positions" >
   <v>       0.12500000       0.37500000       0.12500000 </v>
   <v>       0.62500000       0.37500000       0.12500000 </v>
   <v>       0.12500000       0.87500000       0.12500000 </v>
   <v>       0.62500000       0.87500000       0.12500000 </v>
   <v>       0.12500000       0.37500000       0.62500000 </v>
   <v>       0.62500000       0.37500000       0.62500000 </v>
   <v>       0.12500000       0.87500000       0.62500000 </v>
   <v>       0.62500000       0.87500000       0.62500000 </v>
   <v>       0.00000000       0.00000000       0.25000000 </v>
   <v>       0.50000000       0.00000000       0.25000000 </v>
   <v>       0.00000000       0.50000000       0.25000000 </v>
   <v>       0.50000000       0.50000000       0.25000000 </v>
   <v>       0.00000000       0.00000000       0.75000000 </v>
   <v>       0.50000000       0.00000000       0.75000000 </v>
   <v>       0.00000000       0.50000000       0.75000000 </v>
   <v>       0.50000000       0.50000000       0.75000000 </v>
   <v>       0.12500000       0.12500000       0.37500000 </v>
   <v>       0.62500000       0.12500000       0.37500000 </v>
   <v>       0.12500000       0.62500000       0.37500000 </v>
   <v>       0.62500000       0.62500000       0.37500000 </v>
   <v>       0.12500000       0.12500000       0.87500000 </v>
   <v>       0.62500000       0.12500000       0.87500000 </v>
   <v>       0.12500000       0.62500000       0.87500000 </v>
   <v>       0.62500000       0.62500000       0.87500000 </v>
   <v>       0.00000000       0.25000000       0.00000000 </v>
   <v>       0.50000000       0.25000000       0.00000000 </v>
   <v>       0.00000000       0.75000000       0.00000000 </v>
   <v>       0.50000000       0.75000000       0.00000000 </v>
   <v>       0.00000000       0.25000000       0.50000000 </v>
   <v>       0.50000000       0.25000000       0.50000000 </v>
   <v>       0.00000000       0.75000000       0.50000000 </v>
   <v>       0.50000000       0.75000000       0.50000000 </v>
   <v>       0.37500000       0.37500000       0.37500000 </v>
   <v>       0.87500000       0.37500000       0.37500000 </v>
   <v>       0.37500000       0.87500000       0.37500000 </v>
   <v>       0.87500000       0.87500000       0.37500000 </v>
   <v>       0.37500000       0.37500000       0.87500000 </v>
   <v>       0.87500000       0.37500000       0.87500000 </v>
   <v>       0.37500000       0.87500000       0.87500000 </v>
   <v>       0.87500000       0.87500000       0.87500000 </v>
   <v>       0.25000000       0.00000000       0.00000000 </v>
   <v>       0.75000000       0.00000000       0.00000000 </v>
   <v>       0.25000000       0.50000000       0.00000000 </v>
   <v>       0.75000000       0.50000000       0.00000000 </v>
   <v>       0.25000000       0.00000000       0.50000000 </v>
   <v>       0.75000000       0.00000000       0.50000000 </v>
   <v>       0.25000000       0.50000000       0.50000000 </v>
   <v>       0.75000000       0.50000000       0.50000000 </v>
   <v>       0.37500000       0.12500000       0.12500000 </v>
   <v>       0.87500000       0.12500000       0.12500000 </v>
   <v>       0.37500000       0.62500000       0.12500000 </v>
   <v>       0.87500000       0.62500000       0.12500000 </v>
   <v>       0.37500000       0.12500000       0.62500000 </v>
   <v>       0.87500000       0.12500000       0.62500000 </v>
   <v>       0.37500000       0.62500000       0.62500000 </v>
   <v>       0.87500000       0.62500000       0.62500000 </v>
   <v>       0.25000000       0.25000000       0.25000000 </v>
   <v>       0.75000000       0.25000000       0.25000000 </v>
   <v>       0.25000000       0.75000000       0.25000000 </v>
   <v>       0.75000000       0.75000000       0.25000000 </v>
   <v>       0.25000000       0.25000000       0.75000000 </v>
   <v>       0.75000000       0.25000000       0.75000000 </v>
   <v>       0.25000000       0.75000000       0.75000000 </v>
   <v>       0.75000000       0.75000000       0.75000000 </v>
  </varray>
 </structure>
</modeling>
