   8   8   0   0
  0.5761077E+01  0.3589999E-09  0.3589999E-09  0.3589999E-09  0.2000000E-16
  1.000000000000000E-004
  CAR 
 unknown system                          
     23.84364358    -13.46016397  301      9.67596834      1.00000000
    -13.460  0.0000E+00  0.0000E+00
    -13.336  0.0000E+00  0.0000E+00
    -13.211  0.0000E+00  0.0000E+00
    -13.087  0.0000E+00  0.0000E+00
    -12.963  0.0000E+00  0.0000E+00
    -12.838  0.0000E+00  0.0000E+00
    -12.714  0.0000E+00  0.0000E+00
    -12.590  0.0000E+00  0.0000E+00
    -12.465  0.0000E+00  0.0000E+00
    -12.341  0.0000E+00  0.0000E+00
    -12.217  0.0000E+00  0.0000E+00
    -12.092  0.0000E+00  0.0000E+00
    -11.968  0.0000E+00  0.0000E+00
    -11.844  0.0000E+00  0.0000E+00
    -11.719  0.3825E-01  0.5765E-03
    -11.595  0.1589E+00  0.1580E-01
    -11.471  0.2460E+00  0.4130E-01
    -11.346  0.2809E+00  0.7365E-01
    -11.222  0.3315E+00  0.1117E+00
    -11.098  0.3681E+00  0.1556E+00
    -10.973  0.3991E+00  0.2033E+00
    -10.849  0.4344E+00  0.2551E+00
    -10.725  0.4722E+00  0.3116E+00
    -10.600  0.4944E+00  0.3716E+00
    -10.476  0.5196E+00  0.4346E+00
    -10.352  0.5475E+00  0.5009E+00
    -10.227  0.5775E+00  0.5708E+00
    -10.103  0.6019E+00  0.6443E+00
     -9.978  0.6255E+00  0.7206E+00
     -9.854  0.6528E+00  0.8000E+00
     -9.730  0.6861E+00  0.8832E+00
     -9.605  0.7237E+00  0.9709E+00
     -9.481  0.7433E+00  0.1063E+01
     -9.357  0.7396E+00  0.1155E+01
     -9.232  0.7464E+00  0.1247E+01
     -9.108  0.7618E+00  0.1341E+01
     -8.984  0.7849E+00  0.1437E+01
     -8.859  0.8107E+00  0.1536E+01
     -8.735  0.8348E+00  0.1638E+01
     -8.611  0.8550E+00  0.1743E+01
     -8.486  0.8809E+00  0.1851E+01
     -8.362  0.9061E+00  0.1962E+01
     -8.238  0.9349E+00  0.2077E+01
     -8.113  0.9367E+00  0.2193E+01
     -7.989  0.9481E+00  0.2311E+01
     -7.865  0.9983E+00  0.2431E+01
     -7.740  0.1103E+01  0.2561E+01
     -7.616  0.1131E+01  0.2701E+01
     -7.492  0.1084E+01  0.2839E+01
     -7.367  0.1084E+01  0.2973E+01
     -7.243  0.1083E+01  0.3108E+01
     -7.119  0.1077E+01  0.3242E+01
     -6.994  0.1194E+01  0.3382E+01
     -6.870  0.1228E+01  0.3537E+01
     -6.745  0.1217E+01  0.3687E+01
     -6.621  0.1289E+01  0.3844E+01
     -6.497  0.1382E+01  0.4009E+01
     -6.372  0.1414E+01  0.4184E+01
     -6.248  0.1425E+01  0.4356E+01
     -6.124  0.1563E+01  0.4545E+01
     -5.999  0.1426E+01  0.4730E+01
     -5.875  0.1356E+01  0.4901E+01
     -5.751  0.1379E+01  0.5072E+01
     -5.626  0.1464E+01  0.5249E+01
     -5.502  0.1373E+01  0.5421E+01
     -5.378  0.1341E+01  0.5592E+01
     -5.253  0.1259E+01  0.5751E+01
     -5.129  0.1280E+01  0.5908E+01
     -5.005  0.1318E+01  0.6071E+01
     -4.880  0.1252E+01  0.6230E+01
     -4.756  0.1184E+01  0.6381E+01
     -4.632  0.1139E+01  0.6525E+01
     -4.507  0.1181E+01  0.6664E+01
     -4.383  0.1150E+01  0.6812E+01
     -4.259  0.1102E+01  0.6950E+01
     -4.134  0.1069E+01  0.7086E+01
     -4.010  0.1037E+01  0.7218E+01
     -3.886  0.9649E+00  0.7342E+01
     -3.761  0.9171E+00  0.7458E+01
     -3.637  0.8879E+00  0.7570E+01
     -3.512  0.9669E+00  0.7683E+01
     -3.388  0.9627E+00  0.7812E+01
     -3.264  0.9447E+00  0.7930E+01
     -3.139  0.9008E+00  0.8050E+01
     -3.015  0.9053E+00  0.8157E+01
     -2.891  0.7221E+00  0.8251E+01
     -2.766  0.8161E+00  0.8341E+01
     -2.642  0.8699E+00  0.8446E+01
     -2.518  0.9898E+00  0.8560E+01
     -2.393  0.1206E+01  0.8693E+01
     -2.269  0.1531E+01  0.8865E+01
     -2.145  0.1803E+01  0.9073E+01
     -2.020  0.1917E+01  0.9305E+01
     -1.896  0.2033E+01  0.9548E+01
     -1.772  0.2598E+01  0.9838E+01
     -1.647  0.2306E+01  0.1014E+02
     -1.523  0.2395E+01  0.1044E+02
     -1.399  0.2166E+01  0.1072E+02
     -1.274  0.1890E+01  0.1097E+02
     -1.150  0.1745E+01  0.1120E+02
     -1.026  0.1582E+01  0.1141E+02
     -0.901  0.1488E+01  0.1160E+02
     -0.777  0.1423E+01  0.1178E+02
     -0.653  0.1302E+01  0.1195E+02
     -0.528  0.1262E+01  0.1211E+02
     -0.404  0.1214E+01  0.1226E+02
     -0.279  0.1186E+01  0.1241E+02
     -0.155  0.1199E+01  0.1256E+02
     -0.031  0.1156E+01  0.1271E+02
      0.094  0.1025E+01  0.1284E+02
      0.218  0.1028E+01  0.1297E+02
      0.342  0.1150E+01  0.1310E+02
      0.467  0.1330E+01  0.1325E+02
      0.591  0.1542E+01  0.1344E+02
      0.715  0.1814E+01  0.1364E+02
      0.840  0.2265E+01  0.1390E+02
      0.964  0.2233E+01  0.1418E+02
      1.088  0.2207E+01  0.1445E+02
      1.213  0.2187E+01  0.1473E+02
      1.337  0.2254E+01  0.1500E+02
      1.461  0.1993E+01  0.1527E+02
      1.586  0.1656E+01  0.1550E+02
      1.710  0.1543E+01  0.1570E+02
      1.834  0.1600E+01  0.1589E+02
      1.959  0.1917E+01  0.1611E+02
      2.083  0.2519E+01  0.1638E+02
      2.207  0.2407E+01  0.1670E+02
      2.332  0.2296E+01  0.1699E+02
      2.456  0.2284E+01  0.1727E+02
      2.580  0.2304E+01  0.1756E+02
      2.705  0.2481E+01  0.1785E+02
      2.829  0.3023E+01  0.1819E+02
      2.954  0.2973E+01  0.1858E+02
      3.078  0.2577E+01  0.1892E+02
      3.202  0.2598E+01  0.1924E+02
      3.327  0.2656E+01  0.1956E+02
      3.451  0.2684E+01  0.1990E+02
      3.575  0.2777E+01  0.2024E+02
      3.700  0.3091E+01  0.2060E+02
      3.824  0.3261E+01  0.2100E+02
      3.948  0.3167E+01  0.2140E+02
      4.073  0.3084E+01  0.2179E+02
      4.197  0.3089E+01  0.2217E+02
      4.321  0.2976E+01  0.2255E+02
      4.446  0.2940E+01  0.2292E+02
      4.570  0.2870E+01  0.2328E+02
      4.694  0.2996E+01  0.2364E+02
      4.819  0.3006E+01  0.2401E+02
      4.943  0.2855E+01  0.2437E+02
      5.067  0.2947E+01  0.2473E+02
      5.192  0.2953E+01  0.2510E+02
      5.316  0.2839E+01  0.2547E+02
      5.440  0.2773E+01  0.2581E+02
      5.565  0.2615E+01  0.2615E+02
      5.689  0.2726E+01  0.2648E+02
      5.813  0.2720E+01  0.2682E+02
      5.938  0.2695E+01  0.2716E+02
      6.062  0.2697E+01  0.2749E+02
      6.187  0.2607E+01  0.2782E+02
      6.311  0.2716E+01  0.2815E+02
      6.435  0.2447E+01  0.2848E+02
      6.560  0.2262E+01  0.2877E+02
      6.684  0.2206E+01  0.2904E+02
      6.808  0.2065E+01  0.2932E+02
      6.933  0.2211E+01  0.2958E+02
      7.057  0.2124E+01  0.2986E+02
      7.181  0.1918E+01  0.3011E+02
      7.306  0.1618E+01  0.3033E+02
      7.430  0.1431E+01  0.3052E+02
      7.554  0.1329E+01  0.3069E+02
      7.679  0.1233E+01  0.3085E+02
      7.803  0.1113E+01  0.3100E+02
      7.927  0.1010E+01  0.3113E+02
      8.052  0.9293E+00  0.3125E+02
      8.176  0.8509E+00  0.3136E+02
      8.300  0.8208E+00  0.3147E+02
      8.425  0.7171E+00  0.3156E+02
      8.549  0.6315E+00  0.3164E+02
      8.673  0.5847E+00  0.3172E+02
      8.798  0.5190E+00  0.3179E+02
      8.922  0.4191E+00  0.3185E+02
      9.046  0.3768E+00  0.3190E+02
      9.171  0.3142E+00  0.3194E+02
      9.295  0.1662E+00  0.3198E+02
      9.420  0.2664E+00  0.3199E+02
      9.544  0.8025E-02  0.3200E+02
      9.668  0.0000E+00  0.3200E+02
      9.793  0.0000E+00  0.3200E+02
      9.917  0.0000E+00  0.3200E+02
     10.041  0.0000E+00  0.3200E+02
     10.166  0.0000E+00  0.3200E+02
     10.290  0.0000E+00  0.3200E+02
     10.414  0.0000E+00  0.3200E+02
     10.539  0.0000E+00  0.3200E+02
     10.663  0.0000E+00  0.3200E+02
     10.787  0.0000E+00  0.3200E+02
     10.912  0.0000E+00  0.3200E+02
     11.036  0.0000E+00  0.3200E+02
     11.160  0.0000E+00  0.3200E+02
     11.285  0.0000E+00  0.3200E+02
     11.409  0.0000E+00  0.3200E+02
     11.533  0.0000E+00  0.3200E+02
     11.658  0.0000E+00  0.3200E+02
     11.782  0.0000E+00  0.3200E+02
     11.906  0.0000E+00  0.3200E+02
     12.031  0.0000E+00  0.3200E+02
     12.155  0.0000E+00  0.3200E+02
     12.279  0.0000E+00  0.3200E+02
     12.404  0.0000E+00  0.3200E+02
     12.528  0.0000E+00  0.3200E+02
     12.653  0.0000E+00  0.3200E+02
     12.777  0.0000E+00  0.3200E+02
     12.901  0.0000E+00  0.3200E+02
     13.026  0.0000E+00  0.3200E+02
     13.150  0.0000E+00  0.3200E+02
     13.274  0.0000E+00  0.3200E+02
     13.399  0.1947E+00  0.3201E+02
     13.523  0.4853E+00  0.3205E+02
     13.647  0.5022E+00  0.3211E+02
     13.772  0.5693E+00  0.3218E+02
     13.896  0.6636E+00  0.3226E+02
     14.020  0.7388E+00  0.3234E+02
     14.145  0.7915E+00  0.3244E+02
     14.269  0.9546E+00  0.3255E+02
     14.393  0.1062E+01  0.3267E+02
     14.518  0.1303E+01  0.3282E+02
     14.642  0.1299E+01  0.3298E+02
     14.766  0.1359E+01  0.3315E+02
     14.891  0.1415E+01  0.3332E+02
     15.015  0.1448E+01  0.3350E+02
     15.139  0.1539E+01  0.3368E+02
     15.264  0.1605E+01  0.3388E+02
     15.388  0.1648E+01  0.3408E+02
     15.512  0.1729E+01  0.3429E+02
     15.637  0.1897E+01  0.3451E+02
     15.761  0.2047E+01  0.3476E+02
     15.885  0.2066E+01  0.3502E+02
     16.010  0.2201E+01  0.3528E+02
     16.134  0.2279E+01  0.3556E+02
     16.259  0.2403E+01  0.3585E+02
     16.383  0.2611E+01  0.3616E+02
     16.507  0.2831E+01  0.3650E+02
     16.632  0.3214E+01  0.3687E+02
     16.756  0.3324E+01  0.3728E+02
     16.880  0.3121E+01  0.3769E+02
     17.005  0.3455E+01  0.3809E+02
     17.129  0.3584E+01  0.3852E+02
     17.253  0.4087E+01  0.3899E+02
     17.378  0.4494E+01  0.3955E+02
     17.502  0.3666E+01  0.4004E+02
     17.626  0.3904E+01  0.4052E+02
     17.751  0.3955E+01  0.4099E+02
     17.875  0.3551E+01  0.4144E+02
     17.999  0.3300E+01  0.4187E+02
     18.124  0.3118E+01  0.4227E+02
     18.248  0.2937E+01  0.4265E+02
     18.372  0.2706E+01  0.4300E+02
     18.497  0.2622E+01  0.4333E+02
     18.621  0.2658E+01  0.4366E+02
     18.745  0.2768E+01  0.4399E+02
     18.870  0.2956E+01  0.4435E+02
     18.994  0.3144E+01  0.4473E+02
     19.118  0.3034E+01  0.4512E+02
     19.243  0.2772E+01  0.4548E+02
     19.367  0.2671E+01  0.4581E+02
     19.492  0.2845E+01  0.4616E+02
     19.616  0.2865E+01  0.4651E+02
     19.740  0.2793E+01  0.4686E+02
     19.865  0.2461E+01  0.4720E+02
     19.989  0.1739E+01  0.4746E+02
     20.113  0.1190E+01  0.4764E+02
     20.238  0.7733E+00  0.4777E+02
     20.362  0.4102E+00  0.4784E+02
     20.486  0.2592E+00  0.4788E+02
     20.611  0.2191E+00  0.4791E+02
     20.735  0.1761E+00  0.4793E+02
     20.859  0.1354E+00  0.4795E+02
     20.984  0.1076E+00  0.4797E+02
     21.108  0.1029E+00  0.4798E+02
     21.232  0.4659E-01  0.4799E+02
     21.357  0.3031E-01  0.4799E+02
     21.481  0.1859E-01  0.4800E+02
     21.605  0.1141E-01  0.4800E+02
     21.730  0.6750E-02  0.4800E+02
     21.854  0.3307E-02  0.4800E+02
     21.978  0.1079E-02  0.4800E+02
     22.103  0.6784E-04  0.4800E+02
     22.227  0.0000E+00  0.4800E+02
     22.351  0.0000E+00  0.4800E+02
     22.476  0.0000E+00  0.4800E+02
     22.600  0.0000E+00  0.4800E+02
     22.725  0.0000E+00  0.4800E+02
     22.849  0.0000E+00  0.4800E+02
     22.973  0.0000E+00  0.4800E+02
     23.098  0.0000E+00  0.4800E+02
     23.222  0.0000E+00  0.4800E+02
     23.346  0.0000E+00  0.4800E+02
     23.471  0.0000E+00  0.4800E+02
     23.595  0.0000E+00  0.4800E+02
     23.719  0.0000E+00  0.4800E+02
     23.844  0.0000E+00  0.4800E+02
