       N       E                     dE             d eps       ncg     rms          rms(c)
DAV:   1     0.583664398617E+02    0.58366E+02   -0.14374E+04  9072   0.105E+03
DAV:   2    -0.703098755425E+02   -0.12868E+03   -0.12189E+03 12440   0.222E+02
DAV:   3    -0.745754061415E+02   -0.42655E+01   -0.42420E+01 11976   0.378E+01
DAV:   4    -0.746177044661E+02   -0.42298E-01   -0.42268E-01 11160   0.417E+00
DAV:   5    -0.746186251456E+02   -0.92068E-03   -0.92008E-03 11992   0.542E-01    0.946E+00
DAV:   6    -0.727249720518E+02    0.18937E+01   -0.12777E+00 10400   0.655E+00    0.519E+00
DAV:   7    -0.720905080056E+02    0.63446E+00   -0.14756E+00 10960   0.723E+00    0.712E-01
DAV:   8    -0.720985837015E+02   -0.80757E-02   -0.39729E-02 11384   0.118E+00    0.762E-02
DAV:   9    -0.720988421817E+02   -0.25848E-03   -0.52202E-04 11288   0.153E-01    0.347E-02
DAV:  10    -0.720989054737E+02   -0.63292E-04   -0.44114E-05 11240   0.488E-02    0.433E-03
DAV:  11    -0.720989079012E+02   -0.24275E-05   -0.15898E-06  8848   0.964E-03    0.111E-03
DAV:  12    -0.720989078442E+02    0.56946E-07   -0.15515E-07  8088   0.281E-03
   1 F= -.72098908E+02 E0= -.72098908E+02  d E =0.000000E+00
