  64  64   0   0
  0.6246213E+01  0.7461673E-09  0.7461673E-09  0.7179999E-09  0.5000000E-15
  1.000000000000000E-004
  CAR 
 unknown system                          
     20.84014131    -13.37071521  301      9.10154117      1.00000000
    -13.371  0.0000E+00  0.0000E+00
    -13.257  0.0000E+00  0.0000E+00
    -13.143  0.0000E+00  0.0000E+00
    -13.029  0.0000E+00  0.0000E+00
    -12.915  0.0000E+00  0.0000E+00
    -12.801  0.0000E+00  0.0000E+00
    -12.686  0.0000E+00  0.0000E+00
    -12.572  0.0000E+00  0.0000E+00
    -12.458  0.0000E+00  0.0000E+00
    -12.344  0.0000E+00  0.0000E+00
    -12.230  0.0000E+00  0.0000E+00
    -12.116  0.1889E-12  0.2154E-13
    -12.002  0.1495E-05  0.1705E-06
    -11.888  0.1194E-01  0.1362E-02
    -11.774  0.2405E+00  0.2879E-01
    -11.660  0.1159E+01  0.1610E+00
    -11.546  0.2145E+01  0.4056E+00
    -11.432  0.2325E+01  0.6707E+00
    -11.318  0.1800E+01  0.8760E+00
    -11.204  0.1860E+01  0.1088E+01
    -11.090  0.5483E+01  0.1713E+01
    -10.976  0.5669E+01  0.2360E+01
    -10.862  0.1518E+01  0.2533E+01
    -10.748  0.1481E+01  0.2702E+01
    -10.634  0.4331E+01  0.3196E+01
    -10.520  0.6992E+01  0.3993E+01
    -10.406  0.5268E+01  0.4594E+01
    -10.292  0.5360E+01  0.5205E+01
    -10.178  0.3226E+01  0.5573E+01
    -10.064  0.4392E+01  0.6074E+01
     -9.950  0.8998E+01  0.7100E+01
     -9.836  0.6309E+01  0.7819E+01
     -9.722  0.9052E+00  0.7923E+01
     -9.608  0.3627E+01  0.8336E+01
     -9.493  0.9820E+01  0.9456E+01
     -9.379  0.8207E+01  0.1039E+02
     -9.265  0.7335E+01  0.1123E+02
     -9.151  0.6083E+01  0.1192E+02
     -9.037  0.9094E+01  0.1296E+02
     -8.923  0.8043E+01  0.1388E+02
     -8.809  0.4615E+01  0.1440E+02
     -8.695  0.2475E+01  0.1468E+02
     -8.581  0.5548E+01  0.1532E+02
     -8.467  0.9626E+01  0.1642E+02
     -8.353  0.1274E+02  0.1787E+02
     -8.239  0.9041E+01  0.1890E+02
     -8.125  0.4565E+01  0.1942E+02
     -8.011  0.1401E+02  0.2102E+02
     -7.897  0.1133E+02  0.2231E+02
     -7.783  0.3552E+01  0.2272E+02
     -7.669  0.5210E+01  0.2331E+02
     -7.555  0.8538E+01  0.2428E+02
     -7.441  0.1275E+02  0.2574E+02
     -7.327  0.1105E+02  0.2700E+02
     -7.213  0.9455E+01  0.2808E+02
     -7.099  0.9346E+01  0.2914E+02
     -6.985  0.1126E+02  0.3043E+02
     -6.871  0.7417E+01  0.3127E+02
     -6.757  0.9949E+01  0.3241E+02
     -6.643  0.1276E+02  0.3386E+02
     -6.529  0.1821E+02  0.3594E+02
     -6.415  0.1282E+02  0.3740E+02
     -6.300  0.2128E+02  0.3983E+02
     -6.186  0.1027E+02  0.4100E+02
     -6.072  0.8856E+01  0.4201E+02
     -5.958  0.5644E+01  0.4265E+02
     -5.844  0.1481E+02  0.4434E+02
     -5.730  0.9099E+01  0.4538E+02
     -5.616  0.1067E+02  0.4659E+02
     -5.502  0.1313E+02  0.4809E+02
     -5.388  0.1419E+02  0.4971E+02
     -5.274  0.6634E+01  0.5047E+02
     -5.160  0.9950E+01  0.5160E+02
     -5.046  0.8936E+01  0.5262E+02
     -4.932  0.1159E+02  0.5394E+02
     -4.818  0.1021E+02  0.5511E+02
     -4.704  0.1687E+02  0.5703E+02
     -4.590  0.7817E+01  0.5792E+02
     -4.476  0.7710E+01  0.5880E+02
     -4.362  0.6715E+01  0.5957E+02
     -4.248  0.1001E+01  0.5968E+02
     -4.134  0.3547E+01  0.6008E+02
     -4.020  0.3105E+01  0.6044E+02
     -3.906  0.3735E+01  0.6086E+02
     -3.792  0.9136E+01  0.6191E+02
     -3.678  0.1381E+02  0.6348E+02
     -3.564  0.6574E+01  0.6423E+02
     -3.450  0.6999E+01  0.6503E+02
     -3.336  0.6912E+01  0.6582E+02
     -3.221  0.1757E+02  0.6782E+02
     -3.107  0.9984E+01  0.6896E+02
     -2.993  0.1597E+02  0.7078E+02
     -2.879  0.8312E+01  0.7173E+02
     -2.765  0.7786E+01  0.7262E+02
     -2.651  0.8691E+01  0.7361E+02
     -2.537  0.1778E+02  0.7564E+02
     -2.423  0.1510E+02  0.7736E+02
     -2.309  0.2368E+02  0.8006E+02
     -2.195  0.2345E+02  0.8273E+02
     -2.081  0.1854E+02  0.8485E+02
     -1.967  0.1790E+02  0.8689E+02
     -1.853  0.1884E+02  0.8904E+02
     -1.739  0.1279E+02  0.9050E+02
     -1.625  0.1373E+02  0.9206E+02
     -1.511  0.1598E+02  0.9388E+02
     -1.397  0.1212E+02  0.9526E+02
     -1.283  0.1035E+02  0.9644E+02
     -1.169  0.5800E+01  0.9711E+02
     -1.055  0.3242E+01  0.9748E+02
     -0.941  0.8475E+01  0.9844E+02
     -0.827  0.1332E+02  0.9996E+02
     -0.713  0.1559E+02  0.1017E+03
     -0.599  0.9499E+01  0.1028E+03
     -0.485  0.1465E+01  0.1030E+03
     -0.371  0.2237E+01  0.1032E+03
     -0.257  0.8634E+01  0.1042E+03
     -0.143  0.1223E+02  0.1056E+03
     -0.028  0.1417E+02  0.1072E+03
      0.086  0.1710E+02  0.1092E+03
      0.200  0.1662E+02  0.1111E+03
      0.314  0.1919E+02  0.1133E+03
      0.428  0.7807E+01  0.1142E+03
      0.542  0.5319E+01  0.1148E+03
      0.656  0.1859E+02  0.1169E+03
      0.770  0.2188E+02  0.1194E+03
      0.884  0.1078E+02  0.1206E+03
      0.998  0.1431E+02  0.1222E+03
      1.112  0.3757E+02  0.1265E+03
      1.226  0.2603E+02  0.1295E+03
      1.340  0.1775E+02  0.1315E+03
      1.454  0.9391E+01  0.1326E+03
      1.568  0.1212E+02  0.1340E+03
      1.682  0.1435E+02  0.1356E+03
      1.796  0.1768E+02  0.1376E+03
      1.910  0.1718E+02  0.1396E+03
      2.024  0.2252E+02  0.1422E+03
      2.138  0.1623E+02  0.1440E+03
      2.252  0.2661E+02  0.1470E+03
      2.366  0.2833E+02  0.1503E+03
      2.480  0.3265E+02  0.1540E+03
      2.594  0.3067E+02  0.1575E+03
      2.708  0.2208E+02  0.1600E+03
      2.822  0.1743E+02  0.1620E+03
      2.936  0.1454E+02  0.1637E+03
      3.050  0.1447E+02  0.1653E+03
      3.165  0.2568E+02  0.1682E+03
      3.279  0.3489E+02  0.1722E+03
      3.393  0.3573E+02  0.1763E+03
      3.507  0.2654E+02  0.1793E+03
      3.621  0.3236E+02  0.1830E+03
      3.735  0.3275E+02  0.1867E+03
      3.849  0.2330E+02  0.1894E+03
      3.963  0.1989E+02  0.1917E+03
      4.077  0.1463E+02  0.1933E+03
      4.191  0.2223E+02  0.1959E+03
      4.305  0.2937E+02  0.1992E+03
      4.419  0.2229E+02  0.2018E+03
      4.533  0.2668E+02  0.2048E+03
      4.647  0.2520E+02  0.2077E+03
      4.761  0.2411E+02  0.2104E+03
      4.875  0.2201E+02  0.2129E+03
      4.989  0.2800E+02  0.2161E+03
      5.103  0.2412E+02  0.2189E+03
      5.217  0.2393E+02  0.2216E+03
      5.331  0.1492E+02  0.2233E+03
      5.445  0.2593E+02  0.2263E+03
      5.559  0.2193E+02  0.2288E+03
      5.673  0.1686E+02  0.2307E+03
      5.787  0.1493E+02  0.2324E+03
      5.901  0.2333E+02  0.2351E+03
      6.015  0.2270E+02  0.2376E+03
      6.129  0.2301E+02  0.2403E+03
      6.244  0.1397E+02  0.2419E+03
      6.358  0.5322E+01  0.2425E+03
      6.472  0.1101E+02  0.2437E+03
      6.586  0.1089E+02  0.2450E+03
      6.700  0.1198E+02  0.2463E+03
      6.814  0.1122E+02  0.2476E+03
      6.928  0.1004E+02  0.2488E+03
      7.042  0.1202E+02  0.2501E+03
      7.156  0.8837E+01  0.2511E+03
      7.270  0.4582E+01  0.2517E+03
      7.384  0.2299E+01  0.2519E+03
      7.498  0.5740E+01  0.2526E+03
      7.612  0.4988E+01  0.2531E+03
      7.726  0.5397E+01  0.2538E+03
      7.840  0.7360E+01  0.2546E+03
      7.954  0.4311E+01  0.2551E+03
      8.068  0.2345E+01  0.2554E+03
      8.182  0.1129E+01  0.2555E+03
      8.296  0.1358E+01  0.2556E+03
      8.410  0.1729E+01  0.2558E+03
      8.524  0.1186E+01  0.2560E+03
      8.638  0.6444E-02  0.2560E+03
      8.752  0.8172E-01  0.2560E+03
      8.866  0.1879E+00  0.2560E+03
      8.980  0.4215E-02  0.2560E+03
      9.094  0.1709E-06  0.2560E+03
      9.208  0.6632E-14  0.2560E+03
      9.322  0.0000E+00  0.2560E+03
      9.437  0.0000E+00  0.2560E+03
      9.551  0.0000E+00  0.2560E+03
      9.665  0.0000E+00  0.2560E+03
      9.779  0.0000E+00  0.2560E+03
      9.893  0.0000E+00  0.2560E+03
     10.007  0.0000E+00  0.2560E+03
     10.121  0.0000E+00  0.2560E+03
     10.235  0.0000E+00  0.2560E+03
     10.349  0.0000E+00  0.2560E+03
     10.463  0.0000E+00  0.2560E+03
     10.577  0.0000E+00  0.2560E+03
     10.691  0.0000E+00  0.2560E+03
     10.805  0.0000E+00  0.2560E+03
     10.919  0.0000E+00  0.2560E+03
     11.033  0.0000E+00  0.2560E+03
     11.147  0.0000E+00  0.2560E+03
     11.261  0.0000E+00  0.2560E+03
     11.375  0.0000E+00  0.2560E+03
     11.489  0.6954E-11  0.2560E+03
     11.603  0.1862E-04  0.2560E+03
     11.717  0.5383E-01  0.2560E+03
     11.831  0.6179E+00  0.2561E+03
     11.945  0.7090E+00  0.2562E+03
     12.059  0.2820E+00  0.2562E+03
     12.173  0.4284E+00  0.2562E+03
     12.287  0.4806E+00  0.2563E+03
     12.401  0.2821E+01  0.2566E+03
     12.515  0.3630E+01  0.2570E+03
     12.630  0.5440E+01  0.2576E+03
     12.744  0.5559E+01  0.2583E+03
     12.858  0.3130E+01  0.2586E+03
     12.972  0.2880E+01  0.2590E+03
     13.086  0.2899E+01  0.2593E+03
     13.200  0.5621E+01  0.2599E+03
     13.314  0.9833E+01  0.2611E+03
     13.428  0.1513E+02  0.2628E+03
     13.542  0.1947E+02  0.2650E+03
     13.656  0.9156E+01  0.2661E+03
     13.770  0.9654E+01  0.2672E+03
     13.884  0.1874E+02  0.2693E+03
     13.998  0.6565E+01  0.2700E+03
     14.112  0.1139E+02  0.2713E+03
     14.226  0.2405E+02  0.2741E+03
     14.340  0.1774E+02  0.2761E+03
     14.454  0.1686E+02  0.2780E+03
     14.568  0.2500E+02  0.2809E+03
     14.682  0.1914E+02  0.2831E+03
     14.796  0.1242E+02  0.2845E+03
     14.910  0.2188E+02  0.2870E+03
     15.024  0.2815E+02  0.2902E+03
     15.138  0.2201E+02  0.2927E+03
     15.252  0.3329E+02  0.2965E+03
     15.366  0.2399E+02  0.2992E+03
     15.480  0.2427E+02  0.3020E+03
     15.594  0.1886E+02  0.3041E+03
     15.709  0.2454E+02  0.3069E+03
     15.823  0.3733E+02  0.3112E+03
     15.937  0.4000E+02  0.3158E+03
     16.051  0.4016E+02  0.3203E+03
     16.165  0.5233E+02  0.3263E+03
     16.279  0.3579E+02  0.3304E+03
     16.393  0.1976E+02  0.3326E+03
     16.507  0.3032E+02  0.3361E+03
     16.621  0.1919E+02  0.3383E+03
     16.735  0.2829E+02  0.3415E+03
     16.849  0.4531E+02  0.3467E+03
     16.963  0.4453E+02  0.3518E+03
     17.077  0.3901E+02  0.3562E+03
     17.191  0.3030E+02  0.3597E+03
     17.305  0.1693E+02  0.3616E+03
     17.419  0.2227E+02  0.3641E+03
     17.533  0.2519E+02  0.3670E+03
     17.647  0.2599E+02  0.3700E+03
     17.761  0.2976E+02  0.3734E+03
     17.875  0.2314E+02  0.3760E+03
     17.989  0.2297E+02  0.3786E+03
     18.103  0.1702E+02  0.3806E+03
     18.217  0.7260E+01  0.3814E+03
     18.331  0.4047E+01  0.3818E+03
     18.445  0.9047E+01  0.3829E+03
     18.559  0.3534E+01  0.3833E+03
     18.673  0.1752E+01  0.3835E+03
     18.787  0.1703E+00  0.3835E+03
     18.902  0.1196E+01  0.3836E+03
     19.016  0.9522E+00  0.3837E+03
     19.130  0.2217E-01  0.3838E+03
     19.244  0.3599E+00  0.3838E+03
     19.358  0.1737E+01  0.3840E+03
     19.472  0.9548E-01  0.3840E+03
     19.586  0.1194E-04  0.3840E+03
     19.700  0.1508E-11  0.3840E+03
     19.814  0.0000E+00  0.3840E+03
     19.928  0.0000E+00  0.3840E+03
     20.042  0.0000E+00  0.3840E+03
     20.156  0.0000E+00  0.3840E+03
     20.270  0.0000E+00  0.3840E+03
     20.384  0.0000E+00  0.3840E+03
     20.498  0.0000E+00  0.3840E+03
     20.612  0.0000E+00  0.3840E+03
     20.726  0.0000E+00  0.3840E+03
     20.840  0.0000E+00  0.3840E+03
