       N       E                     dE             d eps       ncg     rms          rms(c)
DAV:   1     0.498880892431E+03    0.49888E+03   -0.11225E+05  6912   0.105E+03
DAV:   2    -0.548114724047E+03   -0.10470E+04   -0.99652E+03  9152   0.226E+02
DAV:   3    -0.591290375523E+03   -0.43176E+02   -0.42898E+02  9216   0.430E+01
DAV:   4    -0.591835705436E+03   -0.54533E+00   -0.54440E+00  9408   0.520E+00
DAV:   5    -0.591844782477E+03   -0.90770E-02   -0.90734E-02  8544   0.656E-01    0.239E+01
DAV:   6    -0.580798919030E+03    0.11046E+02   -0.74658E+00  8256   0.533E+00    0.133E+01
DAV:   7    -0.577058794882E+03    0.37401E+01   -0.87948E+00  8160   0.597E+00    0.186E+00
DAV:   8    -0.577108634396E+03   -0.49840E-01   -0.20505E-01  8928   0.891E-01    0.201E-01
DAV:   9    -0.577110787074E+03   -0.21527E-02   -0.36688E-03  8736   0.141E-01    0.757E-02
DAV:  10    -0.577111249322E+03   -0.46225E-03   -0.45562E-04  8672   0.548E-02    0.783E-03
DAV:  11    -0.577111252046E+03   -0.27242E-05   -0.11795E-05  9088   0.753E-03    0.212E-03
DAV:  12    -0.577111252453E+03   -0.40647E-06   -0.62616E-07  8992   0.183E-03    0.190E-04
DAV:  13    -0.577111252594E+03   -0.14124E-06   -0.11199E-08  7040   0.245E-04    0.739E-05
DAV:  14    -0.577111252594E+03   -0.24374E-09   -0.18032E-09  6144   0.100E-04
   1 F= -.57711125E+03 E0= -.57711125E+03  d E =-.671278E-16
 Linear response reoptimize wavefunctions
DAV:   1    -0.577111252595E+03   -0.61573E-09   -0.39282E-10  5472   0.441E-05
DAV:   2    -0.577111252595E+03    0.19190E-09   -0.94563E-11  5248   0.215E-05
DAV:   3    -0.577111252595E+03   -0.18736E-09   -0.26098E-11  5184   0.113E-05
 Linear response DOF=           2
 Linear response progress:
  Degree of freedom:   1/  2
       N       E                     dE             d eps       ncg     rms          rms(c)
RMM:   1    -0.139649765987E+00   -0.13965E+00    0.11352E-02 32003   0.707E-01
RMM:   2    -0.120509228417E+00    0.19141E-01   -0.71277E-03 19732   0.182E-01    0.158E-01
RMM:   3    -0.120439055107E+00    0.70173E-04   -0.69109E-04 20664   0.438E-02    0.821E-02
RMM:   4    -0.120641746386E+00   -0.20269E-03   -0.17898E-04 20742   0.232E-02    0.259E-02
RMM:   5    -0.120705741386E+00   -0.63995E-04   -0.13287E-05 20923   0.688E-03    0.617E-03
RMM:   6    -0.120687607535E+00    0.18134E-04   -0.75533E-07 21276   0.185E-03    0.133E-03
RMM:   7    -0.120678579336E+00    0.90282E-05    0.14176E-07 21500   0.640E-04    0.361E-04
RMM:   8    -0.120678176035E+00    0.40330E-06    0.68242E-07 22350   0.273E-04    0.910E-05
RMM:   9    -0.120677938243E+00    0.23779E-06    0.45676E-07 23230   0.186E-04    0.392E-05
RMM:  10    -0.120678049466E+00   -0.11122E-06    0.38774E-07 23905   0.175E-04    0.126E-05
RMM:  11    -0.120678075946E+00   -0.26480E-07    0.22308E-07 24011   0.172E-04    0.520E-06
 Linear response progress:
  Degree of freedom:   2/  2
       N       E                     dE             d eps       ncg     rms          rms(c)
RMM:   1    -0.138492612651E+00   -0.13849E+00    0.10470E-02 22072   0.695E-01
RMM:   2    -0.120643047980E+00    0.17850E-01   -0.68951E-03 13752   0.175E-01    0.154E-01
RMM:   3    -0.120618941151E+00    0.24107E-04   -0.61720E-04 14322   0.416E-02    0.807E-02
RMM:   4    -0.120831880089E+00   -0.21294E-03   -0.17039E-04 14459   0.227E-02    0.246E-02
RMM:   5    -0.120889694836E+00   -0.57815E-04   -0.11069E-05 14624   0.634E-03    0.609E-03
RMM:   6    -0.120870799866E+00    0.18895E-04   -0.92932E-07 14837   0.185E-03    0.124E-03
RMM:   7    -0.120862844961E+00    0.79549E-05   -0.18080E-07 14980   0.585E-04    0.355E-04
RMM:   8    -0.120862336317E+00    0.50864E-06   -0.16026E-07 15414   0.267E-04    0.869E-05
RMM:   9    -0.120862124222E+00    0.21209E-06   -0.14878E-07 15918   0.178E-04    0.374E-05
RMM:  10    -0.120862218432E+00   -0.94210E-07   -0.15181E-07 16381   0.168E-04    0.114E-05
RMM:  11    -0.120862217650E+00    0.78288E-09   -0.15114E-07 16438   0.165E-04    0.487E-06
 Linear response finished
