 vasp.5.4.4.18Apr17-6-g9f103f2a35 (build Mar 12 2022 03:36:41) complex          
  
 executed on IFC19.0.3.199_CrayMP date 2022.12.02  11:47:14
 running on   32 total cores
 distrk:  each k-point on   32 cores,    1 groups
 distr:  one band on NCORES_PER_BAND=   1 cores,   32 groups


--------------------------------------------------------------------------------------------------------


 INCAR:
 POTCAR:   PAW_PBE C 08Apr2002                    

 ----------------------------------------------------------------------------- 
|                                                                             |
|           W    W    AA    RRRRR   N    N  II  N    N   GGGG   !!!           |
|           W    W   A  A   R    R  NN   N  II  NN   N  G    G  !!!           |
|           W    W  A    A  R    R  N N  N  II  N N  N  G       !!!           |
|           W WW W  AAAAAA  RRRRR   N  N N  II  N  N N  G  GGG   !            |
|           WW  WW  A    A  R   R   N   NN  II  N   NN  G    G                |
|           W    W  A    A  R    R  N    N  II  N    N   GGGG   !!!           |
|                                                                             |
|      For optimal performance we recommend to set                            |
|        NCORE= 4 - approx SQRT( number of cores)                             |
|      NCORE specifies how many cores store one orbital (NPAR=cpu/NCORE).     |
|      This setting can  greatly improve the performance of VASP for DFT.     |
|      The default,   NCORE=1            might be grossly inefficient         |
|      on modern multi-core architectures or massively parallel machines.     |
|      Do your own testing !!!!                                               |
|      Unfortunately you need to use the default for GW and RPA calculations. |
|      (for HF NCORE is supported but not extensively tested yet)             |
|                                                                             |
 ----------------------------------------------------------------------------- 

 POTCAR:   PAW_PBE C 08Apr2002                    
   VRHFIN =C: s2p2                                                              
   LEXCH  = PE                                                                  
   EATOM  =   147.1560 eV,   10.8157 Ry                                         
                                                                                
   TITEL  = PAW_PBE C 08Apr2002                                                 
   LULTRA =        F    use ultrasoft PP ?                                      
   IUNSCR =        0    unscreen: 0-lin 1-nonlin 2-no                           
   RPACOR =     .000    partial core radius                                     
   POMASS =   12.011; ZVAL   =    4.000    mass and valenz                      
   RCORE  =    1.500    outmost cutoff radius                                   
   RWIGS  =    1.630; RWIGS  =     .863    wigner-seitz radius (au A)           
   ENMAX  =  400.000; ENMIN  =  300.000 eV                                      
   ICORE  =        2    local potential                                         
   LCOR   =        T    correct aug charges                                     
   LPAW   =        T    paw PP                                                  
   EAUG   =  644.873                                                            
   DEXC   =     .000                                                            
   RMAX   =    2.266    core radius for proj-oper                               
   RAUG   =    1.300    factor for augmentation sphere                          
   RDEP   =    1.501    radius for radial grids                                 
   RDEPT  =    1.300    core radius for aug-charge                              
   QCUT   =   -5.516; QGAM   =   11.032    optimization parameters              
                                                                                
   Description                                                                  
     l     E      TYP  RCUT    TYP  RCUT                                        
     0   .000     23  1.200                                                     
     0   .000     23  1.200                                                     
     1   .000     23  1.500                                                     
     1  2.500     23  1.500                                                     
     2   .000      7  1.500                                                     
  local pseudopotential read in
  atomic valenz-charges read in
  non local Contribution for L=           0  read in
    real space projection operators read in
  non local Contribution for L=           0  read in
    real space projection operators read in
  non local Contribution for L=           1  read in
    real space projection operators read in
  non local Contribution for L=           1  read in
    real space projection operators read in
    PAW grid and wavefunctions read in
 
   number of l-projection  operators is LMAX  =           4
   number of lm-projection operators is LMMAX =           8
 

 ----------------------------------------------------------------------------- 
|                                                                             |
|  ADVICE TO THIS USER RUNNING 'VASP/VAMP'   (HEAR YOUR MASTER'S VOICE ...):  |
|                                                                             |
|      You have a (more or less) 'large supercell' and for larger cells       |
|      it might be more efficient to use real space projection operators      |
|      So try LREAL= Auto  in the INCAR   file.                               |
|      Mind: If you want to do a very accurate calculations keep the          |
|      reciprocal projection scheme          (i.e. LREAL=.FALSE.)             |
|                                                                             |
 ----------------------------------------------------------------------------- 

 PAW_PBE C 08Apr2002                    :
 energy of atom  1       EATOM= -147.1560
 kinetic energy error for atom=    0.0288 (will be added to EATOM!!)
 
 
 POSCAR: generated by phonopy                    
  positions in direct lattice
  No initial velocities read in
 exchange correlation table for  LEXCH =        8
   RHO(1)=    0.500       N(1)  =     2000
   RHO(2)=  100.500       N(2)  =     4000
 


--------------------------------------------------------------------------------------------------------


 ion  position               nearest neighbor table
   1  0.125  0.375  0.125-  11 1.60  25 1.60  43 1.60  57 1.60
   2  0.625  0.375  0.125-  12 1.60  26 1.60  44 1.60  58 1.60
   3  0.125  0.875  0.125-   9 1.60  27 1.60  41 1.60  59 1.60
   4  0.625  0.875  0.125-  10 1.60  28 1.60  42 1.60  60 1.60
   5  0.125  0.375  0.625-  15 1.60  29 1.60  47 1.60  61 1.60
   6  0.625  0.375  0.625-  16 1.60  30 1.60  48 1.60  62 1.60
   7  0.125  0.875  0.625-  13 1.60  31 1.60  45 1.60  63 1.60
   8  0.625  0.875  0.625-  14 1.60  32 1.60  46 1.60  64 1.60
   9  0.000  0.000  0.250-   3 1.60  17 1.60  36 1.60  50 1.60
  10  0.500  0.000  0.250-   4 1.60  18 1.60  35 1.60  49 1.60
  11  0.000  0.500  0.250-   1 1.60  19 1.60  34 1.60  52 1.60
  12  0.500  0.500  0.250-   2 1.60  20 1.60  33 1.60  51 1.60
  13  0.000  0.000  0.750-   7 1.60  21 1.60  40 1.60  54 1.60
  14  0.500  0.000  0.750-   8 1.60  22 1.60  39 1.60  53 1.60
  15  0.000  0.500  0.750-   5 1.60  23 1.60  38 1.60  56 1.60
  16  0.500  0.500  0.750-   6 1.60  24 1.60  37 1.60  55 1.60
  17  0.125  0.125  0.375-   9 1.60  29 1.60  45 1.60  57 1.60
  18  0.625  0.125  0.375-  10 1.60  30 1.60  46 1.60  58 1.60
  19  0.125  0.625  0.375-  11 1.60  31 1.60  47 1.60  59 1.60
  20  0.625  0.625  0.375-  12 1.60  32 1.60  48 1.60  60 1.60
  21  0.125  0.125  0.875-  13 1.60  25 1.60  41 1.60  61 1.60
  22  0.625  0.125  0.875-  14 1.60  26 1.60  42 1.60  62 1.60
  23  0.125  0.625  0.875-  15 1.60  27 1.60  43 1.60  63 1.60
  24  0.625  0.625  0.875-  16 1.60  28 1.60  44 1.60  64 1.60
  25  0.000  0.250  0.000-   1 1.60  21 1.60  38 1.60  50 1.60
  26  0.500  0.250  0.000-   2 1.60  22 1.60  37 1.60  49 1.60
  27  0.000  0.750  0.000-   3 1.60  23 1.60  40 1.60  52 1.60
  28  0.500  0.750  0.000-   4 1.60  24 1.60  39 1.60  51 1.60
  29  0.000  0.250  0.500-   5 1.60  17 1.60  34 1.60  54 1.60
  30  0.500  0.250  0.500-   6 1.60  18 1.60  33 1.60  53 1.60
  31  0.000  0.750  0.500-   7 1.60  19 1.60  36 1.60  56 1.60
  32  0.500  0.750  0.500-   8 1.60  20 1.60  35 1.60  55 1.60
  33  0.375  0.375  0.375-  12 1.60  30 1.60  47 1.60  57 1.60
  34  0.875  0.375  0.375-  11 1.60  29 1.60  48 1.60  58 1.60
  35  0.375  0.875  0.375-  10 1.60  32 1.60  45 1.60  59 1.60
  36  0.875  0.875  0.375-   9 1.60  31 1.60  46 1.60  60 1.60
  37  0.375  0.375  0.875-  16 1.60  26 1.60  43 1.60  61 1.60
  38  0.875  0.375  0.875-  15 1.60  25 1.60  44 1.60  62 1.60
  39  0.375  0.875  0.875-  14 1.60  28 1.60  41 1.60  63 1.60
  40  0.875  0.875  0.875-  13 1.60  27 1.60  42 1.60  64 1.60
  41  0.250  0.000  0.000-   3 1.60  21 1.60  39 1.60  49 1.60
  42  0.750  0.000  0.000-   4 1.60  22 1.60  40 1.60  50 1.60
  43  0.250  0.500  0.000-   1 1.60  23 1.60  37 1.60  51 1.60
  44  0.750  0.500  0.000-   2 1.60  24 1.60  38 1.60  52 1.60
  45  0.250  0.000  0.500-   7 1.60  17 1.60  35 1.60  53 1.60
  46  0.750  0.000  0.500-   8 1.60  18 1.60  36 1.60  54 1.60
  47  0.250  0.500  0.500-   5 1.60  19 1.60  33 1.60  55 1.60
  48  0.750  0.500  0.500-   6 1.60  20 1.60  34 1.60  56 1.60
  49  0.375  0.125  0.125-  10 1.60  26 1.60  41 1.60  57 1.60
  50  0.875  0.125  0.125-   9 1.60  25 1.60  42 1.60  58 1.60
  51  0.375  0.625  0.125-  12 1.60  28 1.60  43 1.60  59 1.60
  52  0.875  0.625  0.125-  11 1.60  27 1.60  44 1.60  60 1.60
  53  0.375  0.125  0.625-  14 1.60  30 1.60  45 1.60  61 1.60
  54  0.875  0.125  0.625-  13 1.60  29 1.60  46 1.60  62 1.60
  55  0.375  0.625  0.625-  16 1.60  32 1.60  47 1.60  63 1.60
  56  0.875  0.625  0.625-  15 1.60  31 1.60  48 1.60  64 1.60
  57  0.250  0.250  0.250-   1 1.60  17 1.60  33 1.60  49 1.60
  58  0.750  0.250  0.250-   2 1.60  18 1.60  34 1.60  50 1.60
  59  0.250  0.750  0.250-   3 1.60  19 1.60  35 1.60  51 1.60
  60  0.750  0.750  0.250-   4 1.60  20 1.60  36 1.60  52 1.60
  61  0.250  0.250  0.750-   5 1.60  21 1.60  37 1.60  53 1.60
  62  0.750  0.250  0.750-   6 1.60  22 1.60  38 1.60  54 1.60
  63  0.250  0.750  0.750-   7 1.60  23 1.60  39 1.60  55 1.60
  64  0.750  0.750  0.750-   8 1.60  24 1.60  40 1.60  56 1.60
 
  LATTYP: Found a simple tetragonal cell.
 ALAT       =     7.4616727934
 C/A-ratio  =     0.9622505458
  
  Lattice vectors:
  
 A1 = (   7.4616727934,   0.0000000000,   0.0000000000)
 A2 = (   0.0000000000,   7.4616727934,   0.0000000000)
 A3 = (   0.0000000000,   0.0000000000,   7.1799987179)


Analysis of symmetry for initial positions (statically):
=====================================================================
 Subroutine PRICEL returns following result:
 
  LATTYP: Found a body centered tetragonal cell.
 ALAT       =     2.6380997156
 C/A-ratio  =     1.3608277723
  
  Lattice vectors:
  
 A1 = (   1.8654181984,   0.0000000000,   1.7949996795)
 A2 = (  -1.8654181984,   0.0000000000,   1.7949996795)
 A3 = (   0.0000000000,  -1.8654181984,  -1.7949996795)
 
  32 primitive cells build up your supercell.
 

 Routine SETGRP: Setting up the symmetry group for a 
 simple tetragonal supercell.


 Subroutine GETGRP returns: Found 16 space group operations
 (whereof  8 operations were pure point group operations)
 out of a pool of 16 trial point group operations.


The static configuration has the point symmetry D_2d.
 The point group associated with its full space group is D_4h.


Analysis of symmetry for dynamics (positions and initial velocities):
=====================================================================
 Subroutine PRICEL returns following result:
 
  LATTYP: Found a body centered tetragonal cell.
 ALAT       =     2.6380997156
 C/A-ratio  =     1.3608277723
  
  Lattice vectors:
  
 A1 = (   1.8654181984,   0.0000000000,   1.7949996795)
 A2 = (  -1.8654181984,   0.0000000000,   1.7949996795)
 A3 = (   0.0000000000,  -1.8654181984,  -1.7949996795)
 
  32 primitive cells build up your supercell.
 

 Routine SETGRP: Setting up the symmetry group for a 
 simple tetragonal supercell.


 Subroutine GETGRP returns: Found 16 space group operations
 (whereof  8 operations were pure point group operations)
 out of a pool of 16 trial point group operations.


The dynamic configuration has the point symmetry D_2d.
 The point group associated with its full space group is D_4h.


 Subroutine INISYM returns: Found 16 space group operations
 (whereof  8 operations are pure point group operations),
 and found    32 'primitive' translations

 
 
 KPOINTS: kpt_density=3000                        

Automatic generation of k-mesh.
Space group operators:
 irot       det(A)        alpha          n_x          n_y          n_z        tau_x        tau_y        tau_z
    1     1.000000     0.000000     1.000000     0.000000     0.000000     0.000000     0.000000     0.000000
    2    -1.000000    90.000000     0.000000     0.000000    -1.000000     0.000000     0.000000     0.000000
    3     1.000000   180.000000     0.000000     0.000000     1.000000     0.000000     0.000000     0.000000
    4    -1.000000    90.000000     0.000000     0.000000     1.000000     0.000000     0.000000     0.000000
    5     1.000000   180.000000     0.000000     1.000000     0.000000     0.000000     0.000000     0.000000
    6    -1.000000   180.000000     0.707107     0.707107     0.000000     0.000000     0.000000     0.000000
    7     1.000000   180.000000     1.000000     0.000000     0.000000     0.000000     0.000000     0.000000
    8    -1.000000   180.000000     0.707107    -0.707107     0.000000     0.000000     0.000000     0.000000
    9    -1.000000     0.000000     1.000000     0.000000     0.000000    -0.125000    -0.125000     0.125000
   10     1.000000    90.000000     0.000000     0.000000    -1.000000    -0.125000    -0.125000     0.125000
   11    -1.000000   180.000000     0.000000     0.000000     1.000000    -0.125000    -0.125000     0.125000
   12     1.000000    90.000000     0.000000     0.000000     1.000000    -0.125000    -0.125000     0.125000
   13    -1.000000   180.000000     0.000000     1.000000     0.000000    -0.125000    -0.125000     0.125000
   14     1.000000   180.000000     0.707107     0.707107     0.000000    -0.125000    -0.125000     0.125000
   15    -1.000000   180.000000     1.000000     0.000000     0.000000    -0.125000    -0.125000     0.125000
   16     1.000000   180.000000     0.707107    -0.707107     0.000000    -0.125000    -0.125000     0.125000
 
 Subroutine IBZKPT returns following result:
 ===========================================
 
 Found     18 irreducible k-points:
 
 Following reciprocal coordinates:
            Coordinates               Weight
  0.000000  0.000000  0.000000      1.000000
  0.250000  0.000000  0.000000      4.000000
  0.500000  0.000000  0.000000      2.000000
  0.250000  0.250000  0.000000      4.000000
  0.500000  0.250000  0.000000      4.000000
  0.500000  0.500000  0.000000      1.000000
  0.000000  0.000000  0.250000      2.000000
  0.250000  0.000000  0.250000      8.000000
  0.500000  0.000000  0.250000      4.000000
  0.250000  0.250000  0.250000      8.000000
  0.500000  0.250000  0.250000      8.000000
  0.500000  0.500000  0.250000      2.000000
  0.000000  0.000000  0.500000      1.000000
  0.250000  0.000000  0.500000      4.000000
  0.500000  0.000000  0.500000      2.000000
  0.250000  0.250000  0.500000      4.000000
  0.500000  0.250000  0.500000      4.000000
  0.500000  0.500000  0.500000      1.000000
 
 Following cartesian coordinates:
            Coordinates               Weight
  0.000000  0.000000  0.000000      1.000000
  0.033505  0.000000  0.000000      4.000000
  0.067009  0.000000  0.000000      2.000000
  0.033505  0.033505  0.000000      4.000000
  0.067009  0.033505  0.000000      4.000000
  0.067009  0.067009  0.000000      1.000000
  0.000000  0.000000  0.034819      2.000000
  0.033505  0.000000  0.034819      8.000000
  0.067009  0.000000  0.034819      4.000000
  0.033505  0.033505  0.034819      8.000000
  0.067009  0.033505  0.034819      8.000000
  0.067009  0.067009  0.034819      2.000000
  0.000000  0.000000  0.069638      1.000000
  0.033505  0.000000  0.069638      4.000000
  0.067009  0.000000  0.069638      2.000000
  0.033505  0.033505  0.069638      4.000000
  0.067009  0.033505  0.069638      4.000000
  0.067009  0.067009  0.069638      1.000000
 
 
 Subroutine IBZKPT_HF returns following result:
 ==============================================
 
 Found     64 k-points in 1st BZ
 the following     64 k-points will be used (e.g. in the exchange kernel)
 Following reciprocal coordinates:   # in IRBZ
  0.000000  0.000000  0.000000    0.01562500   1 t-inv F
  0.250000  0.000000  0.000000    0.01562500   2 t-inv F
  0.500000  0.000000  0.000000    0.01562500   3 t-inv F
  0.250000  0.250000  0.000000    0.01562500   4 t-inv F
  0.500000  0.250000  0.000000    0.01562500   5 t-inv F
  0.500000  0.500000  0.000000    0.01562500   6 t-inv F
  0.000000  0.000000  0.250000    0.01562500   7 t-inv F
  0.250000  0.000000  0.250000    0.01562500   8 t-inv F
  0.500000  0.000000  0.250000    0.01562500   9 t-inv F
  0.250000  0.250000  0.250000    0.01562500  10 t-inv F
  0.500000  0.250000  0.250000    0.01562500  11 t-inv F
  0.500000  0.500000  0.250000    0.01562500  12 t-inv F
  0.000000  0.000000  0.500000    0.01562500  13 t-inv F
  0.250000  0.000000  0.500000    0.01562500  14 t-inv F
  0.500000  0.000000  0.500000    0.01562500  15 t-inv F
  0.250000  0.250000  0.500000    0.01562500  16 t-inv F
  0.500000  0.250000  0.500000    0.01562500  17 t-inv F
  0.500000  0.500000  0.500000    0.01562500  18 t-inv F
  0.000000 -0.250000  0.000000    0.01562500   2 t-inv F
 -0.250000  0.000000  0.000000    0.01562500   2 t-inv F
  0.000000  0.250000  0.000000    0.01562500   2 t-inv F
  0.000000 -0.500000  0.000000    0.01562500   3 t-inv F
  0.250000 -0.250000  0.000000    0.01562500   4 t-inv F
 -0.250000 -0.250000  0.000000    0.01562500   4 t-inv F
 -0.250000  0.250000  0.000000    0.01562500   4 t-inv F
  0.250000 -0.500000  0.000000    0.01562500   5 t-inv F
 -0.500000 -0.250000  0.000000    0.01562500   5 t-inv F
 -0.250000  0.500000  0.000000    0.01562500   5 t-inv F
  0.000000  0.000000 -0.250000    0.01562500   7 t-inv F
  0.000000 -0.250000 -0.250000    0.01562500   8 t-inv F
 -0.250000  0.000000  0.250000    0.01562500   8 t-inv F
  0.000000  0.250000 -0.250000    0.01562500   8 t-inv F
 -0.250000  0.000000 -0.250000    0.01562500   8 t-inv F
  0.000000 -0.250000  0.250000    0.01562500   8 t-inv F
  0.250000  0.000000 -0.250000    0.01562500   8 t-inv F
  0.000000  0.250000  0.250000    0.01562500   8 t-inv F
  0.000000 -0.500000 -0.250000    0.01562500   9 t-inv F
 -0.500000  0.000000 -0.250000    0.01562500   9 t-inv F
  0.000000 -0.500000  0.250000    0.01562500   9 t-inv F
  0.250000 -0.250000 -0.250000    0.01562500  10 t-inv F
 -0.250000 -0.250000  0.250000    0.01562500  10 t-inv F
 -0.250000  0.250000 -0.250000    0.01562500  10 t-inv F
 -0.250000 -0.250000 -0.250000    0.01562500  10 t-inv F
 -0.250000  0.250000  0.250000    0.01562500  10 t-inv F
  0.250000  0.250000 -0.250000    0.01562500  10 t-inv F
  0.250000 -0.250000  0.250000    0.01562500  10 t-inv F
  0.250000 -0.500000 -0.250000    0.01562500  11 t-inv F
 -0.500000 -0.250000  0.250000    0.01562500  11 t-inv F
 -0.250000  0.500000 -0.250000    0.01562500  11 t-inv F
 -0.500000  0.250000 -0.250000    0.01562500  11 t-inv F
 -0.250000 -0.500000  0.250000    0.01562500  11 t-inv F
  0.500000 -0.250000 -0.250000    0.01562500  11 t-inv F
  0.250000  0.500000  0.250000    0.01562500  11 t-inv F
  0.500000 -0.500000 -0.250000    0.01562500  12 t-inv F
  0.000000 -0.250000 -0.500000    0.01562500  14 t-inv F
 -0.250000  0.000000  0.500000    0.01562500  14 t-inv F
  0.000000  0.250000 -0.500000    0.01562500  14 t-inv F
  0.000000 -0.500000 -0.500000    0.01562500  15 t-inv F
  0.250000 -0.250000 -0.500000    0.01562500  16 t-inv F
 -0.250000 -0.250000  0.500000    0.01562500  16 t-inv F
 -0.250000  0.250000 -0.500000    0.01562500  16 t-inv F
  0.250000 -0.500000 -0.500000    0.01562500  17 t-inv F
 -0.500000 -0.250000  0.500000    0.01562500  17 t-inv F
 -0.250000  0.500000 -0.500000    0.01562500  17 t-inv F


--------------------------------------------------------------------------------------------------------




 Dimension of arrays:
   k-points           NKPTS =     18   k-points in BZ     NKDIM =     18   number of bands    NBANDS=    192
   number of dos      NEDOS =    301   number of ions     NIONS =     64
   non local maximal  LDIM  =      4   non local SUM 2l+1 LMDIM =      8
   total plane-waves  NPLWV = 120000
   max r-space proj   IRMAX =      1   max aug-charges    IRDMAX=  28535
   dimension x,y,z NGX =    50 NGY =   50 NGZ =   48
   dimension x,y,z NGXF=   100 NGYF=  100 NGZF=   96
   support grid    NGXF=   200 NGYF=  200 NGZF=  192
   ions per type =              64
   NGX,Y,Z   is equivalent  to a cutoff of  11.14, 11.14, 11.11 a.u.
   NGXF,Y,Z  is equivalent  to a cutoff of  22.28, 22.28, 22.23 a.u.

 SYSTEM =  unknown system                          
 POSCAR =  generated by phonopy                    

 Startparameter for this run:
   NWRITE =      2    write-flag & timer
   PREC   = accura    normal or accurate (medium, high low for compatibility)
   ISTART =      0    job   : 0-new  1-cont  2-samecut
   ICHARG =      2    charge: 1-file 2-atom 10-const
   ISPIN  =      1    spin polarized calculation?
   LNONCOLLINEAR =      F non collinear calculations
   LSORBIT =      F    spin-orbit coupling
   INIWAV =      1    electr: 0-lowe 1-rand  2-diag
   LASPH  =      F    aspherical Exc in radial PAW
   METAGGA=      F    non-selfconsistent MetaGGA calc.

 Electronic Relaxation 1
   ENCUT  =  400.0 eV  29.40 Ry    5.42 a.u.  12.17 12.17 11.71*2*pi/ulx,y,z
   ENINI  =  400.0     initial cutoff
   ENAUG  =  644.9 eV  augmentation charge cutoff
   NELM   =     60;   NELMIN=  2; NELMDL=  0     # of ELM steps 
   EDIFF  = 0.1E-07   stopping-criterion for ELM
   LREAL  =      F    real-space projection
   NLSPLINE    = F    spline interpolate recip. space projectors
   LCOMPAT=      F    compatible to vasp.4.4
   GGA_COMPAT  = T    GGA compatible to vasp.4.4-vasp.4.6
   LMAXPAW     = -100 max onsite density
   LMAXMIX     =    2 max onsite mixed and CHGCAR
   VOSKOWN=      0    Vosko Wilk Nusair interpolation
   ROPT   =    0.00000
 Ionic relaxation
   EDIFFG = 0.1E-06   stopping-criterion for IOM
   NSW    =      1    number of steps for IOM
   NBLOCK =      1;   KBLOCK =      1    inner block; outer block 
   IBRION =      8    ionic relax: 0-MD 1-quasi-New 2-CG
   NFREE  =      0    steps in history (QN), initial steepest desc. (CG)
   ISIF   =      2    stress and relaxation
   IWAVPR =     11    prediction:  0-non 1-charg 2-wave 3-comb
   ISYM   =      2    0-nonsym 1-usesym 2-fastsym
   LCORR  =      T    Harris-Foulkes like correction to forces

   POTIM  = 0.5000    time-step for ionic-motion
   TEIN   =    0.0    initial temperature
   TEBEG  =    0.0;   TEEND  =   0.0 temperature during run
   SMASS  =  -3.00    Nose mass-parameter (am)
   estimated Nose-frequenzy (Omega)   =  0.10E-29 period in steps =****** mass=  -0.127E-26a.u.
   SCALEE = 1.0000    scale energy and forces
   NPACO  =    256;   APACO  = 16.0  distance and # of slots for P.C.
   PSTRESS=    0.0 pullay stress

  Mass of Ions in am
   POMASS =  12.01
  Ionic Valenz
   ZVAL   =   4.00
  Atomic Wigner-Seitz radii
   RWIGS  =  -1.00
  virtual crystal weights 
   VCA    =   1.00
   NELECT =     256.0000    total number of electrons
   NUPDOWN=      -1.0000    fix difference up-down

 DOS related values:
   EMIN   =  10.00;   EMAX   =-10.00  energy-range for DOS
   EFERMI =   0.00
   ISMEAR =     0;   SIGMA  =   0.06  broadening in eV -4-tet -1-fermi 0-gaus

 Electronic relaxation 2 (details)
   IALGO  =     38    algorithm
   LDIAG  =      T    sub-space diagonalisation (order eigenvalues)
   LSUBROT=      F    optimize rotation matrix (better conditioning)
   TURBO    =      0    0=normal 1=particle mesh
   IRESTART =      0    0=no restart 2=restart with 2 vectors
   NREBOOT  =      0    no. of reboots
   NMIN     =      0    reboot dimension
   EREF     =   0.00    reference energy to select bands
   IMIX   =      4    mixing-type and parameters
     AMIX     =   0.40;   BMIX     =  1.00
     AMIX_MAG =   1.60;   BMIX_MAG =  1.00
     AMIN     =   0.10
     WC   =   100.;   INIMIX=   1;  MIXPRE=   1;  MAXMIX= -45

 Intra band minimization:
   WEIMIN = 0.0010     energy-eigenvalue tresh-hold
   EBREAK =  0.13E-10  absolut break condition
   DEPER  =   0.30     relativ break condition  

   TIME   =   0.40     timestep for ELM

  volume/ion in A,a.u.               =       6.25        42.15
  Fermi-wavevector in a.u.,A,eV,Ry     =   1.411094  2.666581 27.091728  1.991186
  Thomas-Fermi vector in A             =   2.532980
 
 Write flags
   LWAVE        =      F    write WAVECAR
   LDOWNSAMPLE  =      F    k-point downsampling of WAVECAR
   LCHARG       =      F    write CHGCAR
   LVTOT        =      F    write LOCPOT, total local potential
   LVHAR        =      F    write LOCPOT, Hartree potential only
   LELF         =      F    write electronic localiz. function (ELF)
   LORBIT       =      0    0 simple, 1 ext, 2 COOP (PROOUT), +10 PAW based schemes


 Dipole corrections
   LMONO  =      F    monopole corrections only (constant potential shift)
   LDIPOL =      F    correct potential (dipole corrections)
   IDIPOL =      0    1-x, 2-y, 3-z, 4-all directions 
   EPSILON=  1.0000000 bulk dielectric constant

 Exchange correlation treatment:
   GGA     =    --    GGA type
   LEXCH   =     8    internal setting for exchange type
   VOSKOWN=      0    Vosko Wilk Nusair interpolation
   LHFCALC =     F    Hartree Fock is set to
   LHFONE  =     F    Hartree Fock one center treatment
   AEXX    =    0.0000 exact exchange contribution

 Linear response parameters
   LEPSILON=     F    determine dielectric tensor
   LRPA    =     F    only Hartree local field effects (RPA)
   LNABLA  =     F    use nabla operator in PAW spheres
   LVEL    =     F    velocity operator in full k-point grid
   LINTERFAST=   F  fast interpolation
   KINTER  =     0    interpolate to denser k-point grid
   CSHIFT  =0.1000    complex shift for real part using Kramers Kronig
   OMEGAMAX=  -1.0    maximum frequency
   DEG_THRESHOLD= 0.2000000E-02 threshold for treating states as degnerate
   RTIME   =   -0.100 relaxation time in fs
  (WPLASMAI=    0.000 imaginary part of plasma frequency in eV, 0.658/RTIME)
   DFIELD  = 0.0000000 0.0000000 0.0000000 field for delta impulse in time
 
 Orbital magnetization related:
   ORBITALMAG=     F  switch on orbital magnetization
   LCHIMAG   =     F  perturbation theory with respect to B field
   DQ        =  0.001000  dq finite difference perturbation B field
   LLRAUG    =     F  two centre corrections for induced B field



--------------------------------------------------------------------------------------------------------


 linear response using symmetry
 charge density and potential will be updated during run
 non-spin polarized calculation
 Variant of blocked Davidson
 Davidson routine will perform the subspace rotation
 perform sub-space diagonalisation
    after iterative eigenvector-optimisation
 modified Broyden-mixing scheme, WC =      100.0
 initial mixing is a Kerker type mixing with AMIX =  0.4000 and BMIX =      1.0000
 Hartree-type preconditioning will be used
 using additional bands           64
 reciprocal scheme for non local part
 calculate Harris-corrections to forces 
   (improved forces if not selfconsistent)
 use gradient corrections 
 use of overlap-Matrix (Vanderbilt PP)
 Gauss-broadening in eV      SIGMA  =   0.06


--------------------------------------------------------------------------------------------------------


  energy-cutoff  :      400.00
  volume of cell :      399.76
      direct lattice vectors                 reciprocal lattice vectors
     7.461672793  0.000000000  0.000000000     0.134018206  0.000000000  0.000000000
     0.000000000  7.461672793  0.000000000     0.000000000  0.134018206  0.000000000
     0.000000000  0.000000000  7.179998718     0.000000000  0.000000000  0.139275791

  length of vectors
     7.461672793  7.461672793  7.179998718     0.134018206  0.134018206  0.139275791


 
 k-points in units of 2pi/SCALE and weight: kpt_density=3000                        
   0.00000000  0.00000000  0.00000000       0.016
   0.03350455  0.00000000  0.00000000       0.062
   0.06700910  0.00000000  0.00000000       0.031
   0.03350455  0.03350455  0.00000000       0.062
   0.06700910  0.03350455  0.00000000       0.062
   0.06700910  0.06700910  0.00000000       0.016
   0.00000000  0.00000000  0.03481895       0.031
   0.03350455  0.00000000  0.03481895       0.125
   0.06700910  0.00000000  0.03481895       0.062
   0.03350455  0.03350455  0.03481895       0.125
   0.06700910  0.03350455  0.03481895       0.125
   0.06700910  0.06700910  0.03481895       0.031
   0.00000000  0.00000000  0.06963790       0.016
   0.03350455  0.00000000  0.06963790       0.062
   0.06700910  0.00000000  0.06963790       0.031
   0.03350455  0.03350455  0.06963790       0.062
   0.06700910  0.03350455  0.06963790       0.062
   0.06700910  0.06700910  0.06963790       0.016
 
 k-points in reciprocal lattice and weights: kpt_density=3000                        
   0.00000000  0.00000000  0.00000000       0.016
   0.25000000  0.00000000  0.00000000       0.062
   0.50000000  0.00000000  0.00000000       0.031
   0.25000000  0.25000000  0.00000000       0.062
   0.50000000  0.25000000  0.00000000       0.062
   0.50000000  0.50000000  0.00000000       0.016
   0.00000000  0.00000000  0.25000000       0.031
   0.25000000  0.00000000  0.25000000       0.125
   0.50000000  0.00000000  0.25000000       0.062
   0.25000000  0.25000000  0.25000000       0.125
   0.50000000  0.25000000  0.25000000       0.125
   0.50000000  0.50000000  0.25000000       0.031
   0.00000000  0.00000000  0.50000000       0.016
   0.25000000  0.00000000  0.50000000       0.062
   0.50000000  0.00000000  0.50000000       0.031
   0.25000000  0.25000000  0.50000000       0.062
   0.50000000  0.25000000  0.50000000       0.062
   0.50000000  0.50000000  0.50000000       0.016
 
 position of ions in fractional coordinates (direct lattice) 
   0.12500000  0.37500000  0.12500000
   0.62500000  0.37500000  0.12500000
   0.12500000  0.87500000  0.12500000
   0.62500000  0.87500000  0.12500000
   0.12500000  0.37500000  0.62500000
   0.62500000  0.37500000  0.62500000
   0.12500000  0.87500000  0.62500000
   0.62500000  0.87500000  0.62500000
   0.00000000  0.00000000  0.25000000
   0.50000000  0.00000000  0.25000000
   0.00000000  0.50000000  0.25000000
   0.50000000  0.50000000  0.25000000
   0.00000000  0.00000000  0.75000000
   0.50000000  0.00000000  0.75000000
   0.00000000  0.50000000  0.75000000
   0.50000000  0.50000000  0.75000000
   0.12500000  0.12500000  0.37500000
   0.62500000  0.12500000  0.37500000
   0.12500000  0.62500000  0.37500000
   0.62500000  0.62500000  0.37500000
   0.12500000  0.12500000  0.87500000
   0.62500000  0.12500000  0.87500000
   0.12500000  0.62500000  0.87500000
   0.62500000  0.62500000  0.87500000
   0.00000000  0.25000000  0.00000000
   0.50000000  0.25000000  0.00000000
   0.00000000  0.75000000  0.00000000
   0.50000000  0.75000000  0.00000000
   0.00000000  0.25000000  0.50000000
   0.50000000  0.25000000  0.50000000
   0.00000000  0.75000000  0.50000000
   0.50000000  0.75000000  0.50000000
   0.37500000  0.37500000  0.37500000
   0.87500000  0.37500000  0.37500000
   0.37500000  0.87500000  0.37500000
   0.87500000  0.87500000  0.37500000
   0.37500000  0.37500000  0.87500000
   0.87500000  0.37500000  0.87500000
   0.37500000  0.87500000  0.87500000
   0.87500000  0.87500000  0.87500000
   0.25000000  0.00000000  0.00000000
   0.75000000  0.00000000  0.00000000
   0.25000000  0.50000000  0.00000000
   0.75000000  0.50000000  0.00000000
   0.25000000  0.00000000  0.50000000
   0.75000000  0.00000000  0.50000000
   0.25000000  0.50000000  0.50000000
   0.75000000  0.50000000  0.50000000
   0.37500000  0.12500000  0.12500000
   0.87500000  0.12500000  0.12500000
   0.37500000  0.62500000  0.12500000
   0.87500000  0.62500000  0.12500000
   0.37500000  0.12500000  0.62500000
   0.87500000  0.12500000  0.62500000
   0.37500000  0.62500000  0.62500000
   0.87500000  0.62500000  0.62500000
   0.25000000  0.25000000  0.25000000
   0.75000000  0.25000000  0.25000000
   0.25000000  0.75000000  0.25000000
   0.75000000  0.75000000  0.25000000
   0.25000000  0.25000000  0.75000000
   0.75000000  0.25000000  0.75000000
   0.25000000  0.75000000  0.75000000
   0.75000000  0.75000000  0.75000000
 
 position of ions in cartesian coordinates  (Angst):
   0.93270910  2.79812730  0.89749984
   4.66354550  2.79812730  0.89749984
   0.93270910  6.52896369  0.89749984
   4.66354550  6.52896369  0.89749984
   0.93270910  2.79812730  4.48749920
   4.66354550  2.79812730  4.48749920
   0.93270910  6.52896369  4.48749920
   4.66354550  6.52896369  4.48749920
   0.00000000  0.00000000  1.79499968
   3.73083640  0.00000000  1.79499968
   0.00000000  3.73083640  1.79499968
   3.73083640  3.73083640  1.79499968
   0.00000000  0.00000000  5.38499904
   3.73083640  0.00000000  5.38499904
   0.00000000  3.73083640  5.38499904
   3.73083640  3.73083640  5.38499904
   0.93270910  0.93270910  2.69249952
   4.66354550  0.93270910  2.69249952
   0.93270910  4.66354550  2.69249952
   4.66354550  4.66354550  2.69249952
   0.93270910  0.93270910  6.28249888
   4.66354550  0.93270910  6.28249888
   0.93270910  4.66354550  6.28249888
   4.66354550  4.66354550  6.28249888
   0.00000000  1.86541820  0.00000000
   3.73083640  1.86541820  0.00000000
   0.00000000  5.59625460  0.00000000
   3.73083640  5.59625460  0.00000000
   0.00000000  1.86541820  3.58999936
   3.73083640  1.86541820  3.58999936
   0.00000000  5.59625460  3.58999936
   3.73083640  5.59625460  3.58999936
   2.79812730  2.79812730  2.69249952
   6.52896369  2.79812730  2.69249952
   2.79812730  6.52896369  2.69249952
   6.52896369  6.52896369  2.69249952
   2.79812730  2.79812730  6.28249888
   6.52896369  2.79812730  6.28249888
   2.79812730  6.52896369  6.28249888
   6.52896369  6.52896369  6.28249888
   1.86541820  0.00000000  0.00000000
   5.59625460  0.00000000  0.00000000
   1.86541820  3.73083640  0.00000000
   5.59625460  3.73083640  0.00000000
   1.86541820  0.00000000  3.58999936
   5.59625460  0.00000000  3.58999936
   1.86541820  3.73083640  3.58999936
   5.59625460  3.73083640  3.58999936
   2.79812730  0.93270910  0.89749984
   6.52896369  0.93270910  0.89749984
   2.79812730  4.66354550  0.89749984
   6.52896369  4.66354550  0.89749984
   2.79812730  0.93270910  4.48749920
   6.52896369  0.93270910  4.48749920
   2.79812730  4.66354550  4.48749920
   6.52896369  4.66354550  4.48749920
   1.86541820  1.86541820  1.79499968
   5.59625460  1.86541820  1.79499968
   1.86541820  5.59625460  1.79499968
   5.59625460  5.59625460  1.79499968
   1.86541820  1.86541820  5.38499904
   5.59625460  1.86541820  5.38499904
   1.86541820  5.59625460  5.38499904
   5.59625460  5.59625460  5.38499904
 


--------------------------------------------------------------------------------------------------------


 k-point  1 :   0.0000 0.0000 0.0000  plane waves:    7255
 k-point  2 :   0.2500 0.0000 0.0000  plane waves:    7254
 k-point  3 :   0.5000 0.0000 0.0000  plane waves:    7284
 k-point  4 :   0.2500 0.2500 0.0000  plane waves:    7273
 k-point  5 :   0.5000 0.2500 0.0000  plane waves:    7284
 k-point  6 :   0.5000 0.5000 0.0000  plane waves:    7252
 k-point  7 :   0.0000 0.0000 0.2500  plane waves:    7255
 k-point  8 :   0.2500 0.0000 0.2500  plane waves:    7250
 k-point  9 :   0.5000 0.0000 0.2500  plane waves:    7268
 k-point 10 :   0.2500 0.2500 0.2500  plane waves:    7261
 k-point 11 :   0.5000 0.2500 0.2500  plane waves:    7284
 k-point 12 :   0.5000 0.5000 0.2500  plane waves:    7292
 k-point 13 :   0.0000 0.0000 0.5000  plane waves:    7264
 k-point 14 :   0.2500 0.0000 0.5000  plane waves:    7292
 k-point 15 :   0.5000 0.0000 0.5000  plane waves:    7260
 k-point 16 :   0.2500 0.2500 0.5000  plane waves:    7264
 k-point 17 :   0.5000 0.2500 0.5000  plane waves:    7240
 k-point 18 :   0.5000 0.5000 0.5000  plane waves:    7288

 maximum and minimum number of plane-waves per node :      7292     7240

 maximum number of plane-waves:      7292
 maximum index in each direction: 
   IXMAX=   12   IYMAX=   12   IZMAX=   11
   IXMIN=  -12   IYMIN=  -12   IZMIN=  -12


 serial   3D FFT for wavefunctions
 parallel 3D FFT for charge:
    minimum data exchange during FFTs selected (reduces bandwidth)


 total amount of memory used by VASP MPI-rank0    71661. kBytes
=======================================================================

   base      :      30000. kBytes
   nonl-proj :      15876. kBytes
   fftplans  :       5389. kBytes
   grid      :       6708. kBytes
   one-center:        196. kBytes
   wavefun   :      13492. kBytes
 
     INWAV:  cpu time    0.0004: real time    0.0007
 Broyden mixing: mesh for mixing (old mesh)
   NGX = 25   NGY = 25   NGZ = 23
  (NGX  =100   NGY  =100   NGZ  = 96)
  gives a total of  14375 points

 initial charge density was supplied:
 charge density of overlapping atoms calculated
 number of electron     256.0000000 magnetization 
 keeping initial charge density in first step


--------------------------------------------------------------------------------------------------------


 Maximum index for augmentation-charges         1986 (set IRDMAX)


--------------------------------------------------------------------------------------------------------


 First call to EWALD:  gamma=   0.241
 Maximum number of real-space cells 3x 3x 3
 Maximum number of reciprocal cells 3x 3x 3

    FEWALD:  cpu time    0.0085: real time    0.0085


--------------------------------------- Iteration      1(   1)  ---------------------------------------


    POTLOK:  cpu time    0.0794: real time    0.2227
    SETDIJ:  cpu time    0.0455: real time    0.0457
     EDDAV:  cpu time   11.7622: real time   11.7750
       DOS:  cpu time    0.0054: real time    0.0054
    --------------------------------------------
      LOOP:  cpu time   11.8927: real time   12.0489

 eigenvalue-minimisations  :  6912
 total energy-change (2. order) : 0.4988809E+03  (-0.1122522E+05)
 number of electron     256.0000000 magnetization 
 augmentation part      256.0000000 magnetization 

 Free energy of the ion-electron system (eV)
  ---------------------------------------------------
  alpha Z        PSCENC =       834.86273165
  Ewald energy   TEWEN  =    -10784.98221272
  -Hartree energ DENC   =      -632.34950867
  -exchange      EXHF   =         0.00000000
  -V(xc)+E(xc)   XCENC  =       896.00818348
  PAW double counting   =      2421.21235816    -2494.84305711
  entropy T*S    EENTRO =        -0.01481110
  eigenvalues    EBANDS =       842.84488097
  atomic energy  EATOM  =      9416.14232778
  Solvation  Ediel_sol  =         0.00000000
  ---------------------------------------------------
  free energy    TOTEN  =       498.88089243 eV

  energy without entropy =      498.89570353  energy(sigma->0) =      498.88829798


--------------------------------------------------------------------------------------------------------




--------------------------------------- Iteration      1(   2)  ---------------------------------------


     EDDAV:  cpu time   14.7209: real time   14.7226
       DOS:  cpu time    0.0026: real time    0.0026
    --------------------------------------------
      LOOP:  cpu time   14.7234: real time   14.7251

 eigenvalue-minimisations  :  9152
 total energy-change (2. order) :-0.1046996E+04  (-0.9965156E+03)
 number of electron     256.0000000 magnetization 
 augmentation part      256.0000000 magnetization 

 Free energy of the ion-electron system (eV)
  ---------------------------------------------------
  alpha Z        PSCENC =       834.86273165
  Ewald energy   TEWEN  =    -10784.98221272
  -Hartree energ DENC   =      -632.34950867
  -exchange      EXHF   =         0.00000000
  -V(xc)+E(xc)   XCENC  =       896.00818348
  PAW double counting   =      2421.21235816    -2494.84305711
  entropy T*S    EENTRO =        -0.00000000
  eigenvalues    EBANDS =      -204.16554661
  atomic energy  EATOM  =      9416.14232778
  Solvation  Ediel_sol  =         0.00000000
  ---------------------------------------------------
  free energy    TOTEN  =      -548.11472405 eV

  energy without entropy =     -548.11472405  energy(sigma->0) =     -548.11472405


--------------------------------------------------------------------------------------------------------




--------------------------------------- Iteration      1(   3)  ---------------------------------------


     EDDAV:  cpu time   14.9146: real time   14.9164
       DOS:  cpu time    0.0027: real time    0.0027
    --------------------------------------------
      LOOP:  cpu time   14.9172: real time   14.9190

 eigenvalue-minimisations  :  9216
 total energy-change (2. order) :-0.4317565E+02  (-0.4289809E+02)
 number of electron     256.0000000 magnetization 
 augmentation part      256.0000000 magnetization 

 Free energy of the ion-electron system (eV)
  ---------------------------------------------------
  alpha Z        PSCENC =       834.86273165
  Ewald energy   TEWEN  =    -10784.98221272
  -Hartree energ DENC   =      -632.34950867
  -exchange      EXHF   =         0.00000000
  -V(xc)+E(xc)   XCENC  =       896.00818348
  PAW double counting   =      2421.21235816    -2494.84305711
  entropy T*S    EENTRO =        -0.00000000
  eigenvalues    EBANDS =      -247.34119808
  atomic energy  EATOM  =      9416.14232778
  Solvation  Ediel_sol  =         0.00000000
  ---------------------------------------------------
  free energy    TOTEN  =      -591.29037552 eV

  energy without entropy =     -591.29037552  energy(sigma->0) =     -591.29037552


--------------------------------------------------------------------------------------------------------




--------------------------------------- Iteration      1(   4)  ---------------------------------------


     EDDAV:  cpu time   15.1805: real time   15.1822
       DOS:  cpu time    0.0026: real time    0.0026
    --------------------------------------------
      LOOP:  cpu time   15.1831: real time   15.1848

 eigenvalue-minimisations  :  9408
 total energy-change (2. order) :-0.5453299E+00  (-0.5444048E+00)
 number of electron     256.0000000 magnetization 
 augmentation part      256.0000000 magnetization 

 Free energy of the ion-electron system (eV)
  ---------------------------------------------------
  alpha Z        PSCENC =       834.86273165
  Ewald energy   TEWEN  =    -10784.98221272
  -Hartree energ DENC   =      -632.34950867
  -exchange      EXHF   =         0.00000000
  -V(xc)+E(xc)   XCENC  =       896.00818348
  PAW double counting   =      2421.21235816    -2494.84305711
  entropy T*S    EENTRO =        -0.00000000
  eigenvalues    EBANDS =      -247.88652800
  atomic energy  EATOM  =      9416.14232778
  Solvation  Ediel_sol  =         0.00000000
  ---------------------------------------------------
  free energy    TOTEN  =      -591.83570544 eV

  energy without entropy =     -591.83570544  energy(sigma->0) =     -591.83570544


--------------------------------------------------------------------------------------------------------




--------------------------------------- Iteration      1(   5)  ---------------------------------------


     EDDAV:  cpu time   13.8968: real time   13.8984
       DOS:  cpu time    0.0024: real time    0.0024
    CHARGE:  cpu time    0.4949: real time    0.4950
    MIXING:  cpu time    0.0042: real time    0.0042
    --------------------------------------------
      LOOP:  cpu time   14.3983: real time   14.3999

 eigenvalue-minimisations  :  8544
 total energy-change (2. order) :-0.9077041E-02  (-0.9073399E-02)
 number of electron     255.9999995 magnetization 
 augmentation part        5.6937552 magnetization 

 Broyden mixing:
  rms(total) = 0.23864E+01    rms(broyden)= 0.23861E+01
  rms(prec ) = 0.34195E+01
  weight for this iteration     100.00

 Free energy of the ion-electron system (eV)
  ---------------------------------------------------
  alpha Z        PSCENC =       834.86273165
  Ewald energy   TEWEN  =    -10784.98221272
  -Hartree energ DENC   =      -632.34950867
  -exchange      EXHF   =         0.00000000
  -V(xc)+E(xc)   XCENC  =       896.00818348
  PAW double counting   =      2421.21235816    -2494.84305711
  entropy T*S    EENTRO =        -0.00000000
  eigenvalues    EBANDS =      -247.89560504
  atomic energy  EATOM  =      9416.14232778
  Solvation  Ediel_sol  =         0.00000000
  ---------------------------------------------------
  free energy    TOTEN  =      -591.84478248 eV

  energy without entropy =     -591.84478248  energy(sigma->0) =     -591.84478248


--------------------------------------------------------------------------------------------------------




--------------------------------------- Iteration      1(   6)  ---------------------------------------


    POTLOK:  cpu time    0.0697: real time    0.0701
    SETDIJ:  cpu time    0.0449: real time    0.0449
     EDDAV:  cpu time   13.5964: real time   13.5976
       DOS:  cpu time    0.0027: real time    0.0027
    CHARGE:  cpu time    0.4944: real time    0.4945
    MIXING:  cpu time    0.0042: real time    0.0042
    --------------------------------------------
      LOOP:  cpu time   14.2123: real time   14.2140

 eigenvalue-minimisations  :  8256
 total energy-change (2. order) : 0.1104586E+02  (-0.7465775E+00)
 number of electron     255.9999995 magnetization 
 augmentation part        5.5734073 magnetization 

 Broyden mixing:
  rms(total) = 0.13310E+01    rms(broyden)= 0.13310E+01
  rms(prec ) = 0.18863E+01
  weight for this iteration     100.00

 eigenvalues of (default mixing * dielectric matrix)
  average eigenvalue GAMMA=   2.2068
  2.2068

 Free energy of the ion-electron system (eV)
  ---------------------------------------------------
  alpha Z        PSCENC =       834.86273165
  Ewald energy   TEWEN  =    -10784.98221272
  -Hartree energ DENC   =      -742.44286964
  -exchange      EXHF   =         0.00000000
  -V(xc)+E(xc)   XCENC  =       906.21356697
  PAW double counting   =      3014.37125620    -3091.36947235
  entropy T*S    EENTRO =        -0.00000000
  eigenvalues    EBANDS =      -133.59424693
  atomic energy  EATOM  =      9416.14232778
  Solvation  Ediel_sol  =         0.00000000
  ---------------------------------------------------
  free energy    TOTEN  =      -580.79891903 eV

  energy without entropy =     -580.79891903  energy(sigma->0) =     -580.79891903


--------------------------------------------------------------------------------------------------------




--------------------------------------- Iteration      1(   7)  ---------------------------------------


    POTLOK:  cpu time    0.0719: real time    0.0722
    SETDIJ:  cpu time    0.0437: real time    0.0437
     EDDAV:  cpu time   13.4652: real time   13.4664
       DOS:  cpu time    0.0027: real time    0.0027
    CHARGE:  cpu time    0.4965: real time    0.4966
    MIXING:  cpu time    0.0041: real time    0.0041
    --------------------------------------------
      LOOP:  cpu time   14.0841: real time   14.0857

 eigenvalue-minimisations  :  8160
 total energy-change (2. order) : 0.3740124E+01  (-0.8794777E+00)
 number of electron     255.9999995 magnetization 
 augmentation part        5.4475732 magnetization 

 Broyden mixing:
  rms(total) = 0.18628E+00    rms(broyden)= 0.18594E+00
  rms(prec ) = 0.22749E+00
  weight for this iteration     100.00

 eigenvalues of (default mixing * dielectric matrix)
  average eigenvalue GAMMA=   2.2699
  2.0072  2.5326

 Free energy of the ion-electron system (eV)
  ---------------------------------------------------
  alpha Z        PSCENC =       834.86273165
  Ewald energy   TEWEN  =    -10784.98221272
  -Hartree energ DENC   =      -884.47713257
  -exchange      EXHF   =         0.00000000
  -V(xc)+E(xc)   XCENC  =       919.59403769
  PAW double counting   =      3812.98003842    -3893.15910078
  entropy T*S    EENTRO =        -0.00000000
  eigenvalues    EBANDS =         1.98051565
  atomic energy  EATOM  =      9416.14232778
  Solvation  Ediel_sol  =         0.00000000
  ---------------------------------------------------
  free energy    TOTEN  =      -577.05879488 eV

  energy without entropy =     -577.05879488  energy(sigma->0) =     -577.05879488


--------------------------------------------------------------------------------------------------------




--------------------------------------- Iteration      1(   8)  ---------------------------------------


    POTLOK:  cpu time    0.0693: real time    0.0696
    SETDIJ:  cpu time    0.0440: real time    0.0440
     EDDAV:  cpu time   14.5161: real time   14.5174
       DOS:  cpu time    0.0025: real time    0.0025
    CHARGE:  cpu time    0.4938: real time    0.4939
    MIXING:  cpu time    0.0046: real time    0.0046
    --------------------------------------------
      LOOP:  cpu time   15.1304: real time   15.1321

 eigenvalue-minimisations  :  8928
 total energy-change (2. order) :-0.4983951E-01  (-0.2050501E-01)
 number of electron     255.9999995 magnetization 
 augmentation part        5.4575759 magnetization 

 Broyden mixing:
  rms(total) = 0.20064E-01    rms(broyden)= 0.19989E-01
  rms(prec ) = 0.24478E-01
  weight for this iteration     100.00

 eigenvalues of (default mixing * dielectric matrix)
  average eigenvalue GAMMA=   2.1067
  1.4623  2.6821  2.1757

 Free energy of the ion-electron system (eV)
  ---------------------------------------------------
  alpha Z        PSCENC =       834.86273165
  Ewald energy   TEWEN  =    -10784.98221272
  -Hartree energ DENC   =      -886.55258230
  -exchange      EXHF   =         0.00000000
  -V(xc)+E(xc)   XCENC  =       919.80399040
  PAW double counting   =      3849.67952425    -3928.87579772
  entropy T*S    EENTRO =        -0.00000000
  eigenvalues    EBANDS =         2.81338427
  atomic energy  EATOM  =      9416.14232778
  Solvation  Ediel_sol  =         0.00000000
  ---------------------------------------------------
  free energy    TOTEN  =      -577.10863440 eV

  energy without entropy =     -577.10863440  energy(sigma->0) =     -577.10863440


--------------------------------------------------------------------------------------------------------




--------------------------------------- Iteration      1(   9)  ---------------------------------------


    POTLOK:  cpu time    0.0717: real time    0.0720
    SETDIJ:  cpu time    0.0461: real time    0.0461
     EDDAV:  cpu time   14.3255: real time   14.3268
       DOS:  cpu time    0.0027: real time    0.0027
    CHARGE:  cpu time    0.4953: real time    0.4954
    MIXING:  cpu time    0.0050: real time    0.0050
    --------------------------------------------
      LOOP:  cpu time   14.9462: real time   14.9479

 eigenvalue-minimisations  :  8736
 total energy-change (2. order) :-0.2152678E-02  (-0.3668819E-03)
 number of electron     255.9999995 magnetization 
 augmentation part        5.4565272 magnetization 

 Broyden mixing:
  rms(total) = 0.75700E-02    rms(broyden)= 0.75656E-02
  rms(prec ) = 0.96920E-02
  weight for this iteration     100.00

 eigenvalues of (default mixing * dielectric matrix)
  average eigenvalue GAMMA=   2.0526
  0.9660  2.7796  2.4847  1.9800

 Free energy of the ion-electron system (eV)
  ---------------------------------------------------
  alpha Z        PSCENC =       834.86273165
  Ewald energy   TEWEN  =    -10784.98221272
  -Hartree energ DENC   =      -886.06384354
  -exchange      EXHF   =         0.00000000
  -V(xc)+E(xc)   XCENC  =       919.75613404
  PAW double counting   =      3844.56585752    -3923.66862656
  entropy T*S    EENTRO =        -0.00000000
  eigenvalues    EBANDS =         2.27684477
  atomic energy  EATOM  =      9416.14232778
  Solvation  Ediel_sol  =         0.00000000
  ---------------------------------------------------
  free energy    TOTEN  =      -577.11078707 eV

  energy without entropy =     -577.11078707  energy(sigma->0) =     -577.11078707


--------------------------------------------------------------------------------------------------------




--------------------------------------- Iteration      1(  10)  ---------------------------------------


    POTLOK:  cpu time    0.0719: real time    0.0723
    SETDIJ:  cpu time    0.0437: real time    0.0437
     EDDAV:  cpu time   14.2675: real time   14.2688
       DOS:  cpu time    0.0026: real time    0.0026
    CHARGE:  cpu time    0.4954: real time    0.4954
    MIXING:  cpu time    0.0043: real time    0.0043
    --------------------------------------------
      LOOP:  cpu time   14.8853: real time   14.8871

 eigenvalue-minimisations  :  8672
 total energy-change (2. order) :-0.4622479E-03  (-0.4556229E-04)
 number of electron     255.9999995 magnetization 
 augmentation part        5.4562351 magnetization 

 Broyden mixing:
  rms(total) = 0.78320E-03    rms(broyden)= 0.77914E-03
  rms(prec ) = 0.11580E-02
  weight for this iteration     100.00

 eigenvalues of (default mixing * dielectric matrix)
  average eigenvalue GAMMA=   1.9620
  2.9385  2.5467  2.0669  0.9880  1.2698

 Free energy of the ion-electron system (eV)
  ---------------------------------------------------
  alpha Z        PSCENC =       834.86273165
  Ewald energy   TEWEN  =    -10784.98221272
  -Hartree energ DENC   =      -886.49405481
  -exchange      EXHF   =         0.00000000
  -V(xc)+E(xc)   XCENC  =       919.79436564
  PAW double counting   =      3841.77927774    -3920.89823193
  entropy T*S    EENTRO =        -0.00000000
  eigenvalues    EBANDS =         2.68454734
  atomic energy  EATOM  =      9416.14232778
  Solvation  Ediel_sol  =         0.00000000
  ---------------------------------------------------
  free energy    TOTEN  =      -577.11124932 eV

  energy without entropy =     -577.11124932  energy(sigma->0) =     -577.11124932


--------------------------------------------------------------------------------------------------------




--------------------------------------- Iteration      1(  11)  ---------------------------------------


    POTLOK:  cpu time    0.0691: real time    0.0696
    SETDIJ:  cpu time    0.0436: real time    0.0436
     EDDAV:  cpu time   14.8810: real time   14.8824
       DOS:  cpu time    0.0026: real time    0.0026
    CHARGE:  cpu time    0.4938: real time    0.4938
    MIXING:  cpu time    0.0053: real time    0.0053
    --------------------------------------------
      LOOP:  cpu time   15.4955: real time   15.4972

 eigenvalue-minimisations  :  9088
 total energy-change (2. order) :-0.2724188E-05  (-0.1179465E-05)
 number of electron     255.9999995 magnetization 
 augmentation part        5.4560263 magnetization 

 Broyden mixing:
  rms(total) = 0.21210E-03    rms(broyden)= 0.21019E-03
  rms(prec ) = 0.28202E-03
  weight for this iteration     100.00

 eigenvalues of (default mixing * dielectric matrix)
  average eigenvalue GAMMA=   2.0015
  3.0078  2.5841  2.4029  2.0216  0.9962  0.9962

 Free energy of the ion-electron system (eV)
  ---------------------------------------------------
  alpha Z        PSCENC =       834.86273165
  Ewald energy   TEWEN  =    -10784.98221272
  -Hartree energ DENC   =      -886.61418250
  -exchange      EXHF   =         0.00000000
  -V(xc)+E(xc)   XCENC  =       919.80564496
  PAW double counting   =      3842.18427280    -3921.30819323
  entropy T*S    EENTRO =        -0.00000000
  eigenvalues    EBANDS =         2.79835920
  atomic energy  EATOM  =      9416.14232778
  Solvation  Ediel_sol  =         0.00000000
  ---------------------------------------------------
  free energy    TOTEN  =      -577.11125205 eV

  energy without entropy =     -577.11125205  energy(sigma->0) =     -577.11125205


--------------------------------------------------------------------------------------------------------




--------------------------------------- Iteration      1(  12)  ---------------------------------------


    POTLOK:  cpu time    0.0707: real time    0.0759
    SETDIJ:  cpu time    0.0443: real time    0.0443
     EDDAV:  cpu time   14.7388: real time   14.7402
       DOS:  cpu time    0.0027: real time    0.0027
    CHARGE:  cpu time    0.4981: real time    0.4982
    MIXING:  cpu time    0.0053: real time    0.0053
    --------------------------------------------
      LOOP:  cpu time   15.3598: real time   15.3665

 eigenvalue-minimisations  :  8992
 total energy-change (2. order) :-0.4064732E-06  (-0.6261566E-07)
 number of electron     255.9999995 magnetization 
 augmentation part        5.4560516 magnetization 

 Broyden mixing:
  rms(total) = 0.19009E-04    rms(broyden)= 0.18704E-04
  rms(prec ) = 0.22119E-04
  weight for this iteration     100.00

 eigenvalues of (default mixing * dielectric matrix)
  average eigenvalue GAMMA=   1.8717
  2.9640  2.6259  2.4814  2.0297  0.9609  1.0200  1.0200

 Free energy of the ion-electron system (eV)
  ---------------------------------------------------
  alpha Z        PSCENC =       834.86273165
  Ewald energy   TEWEN  =    -10784.98221272
  -Hartree energ DENC   =      -886.59615828
  -exchange      EXHF   =         0.00000000
  -V(xc)+E(xc)   XCENC  =       919.80397499
  PAW double counting   =      3842.22452789    -3921.34637301
  entropy T*S    EENTRO =        -0.00000000
  eigenvalues    EBANDS =         2.77992925
  atomic energy  EATOM  =      9416.14232778
  Solvation  Ediel_sol  =         0.00000000
  ---------------------------------------------------
  free energy    TOTEN  =      -577.11125245 eV

  energy without entropy =     -577.11125245  energy(sigma->0) =     -577.11125245


--------------------------------------------------------------------------------------------------------




--------------------------------------- Iteration      1(  13)  ---------------------------------------


    POTLOK:  cpu time    0.0692: real time    0.0697
    SETDIJ:  cpu time    0.0444: real time    0.0444
     EDDAV:  cpu time   12.6190: real time   12.6201
       DOS:  cpu time    0.0026: real time    0.0026
    CHARGE:  cpu time    0.4939: real time    0.4940
    MIXING:  cpu time    0.0053: real time    0.0053
    --------------------------------------------
      LOOP:  cpu time   13.2344: real time   13.2361

 eigenvalue-minimisations  :  7040
 total energy-change (2. order) :-0.1412445E-06  (-0.1119862E-08)
 number of electron     255.9999995 magnetization 
 augmentation part        5.4560466 magnetization 

 Broyden mixing:
  rms(total) = 0.73872E-05    rms(broyden)= 0.73427E-05
  rms(prec ) = 0.97909E-05
  weight for this iteration     100.00

 eigenvalues of (default mixing * dielectric matrix)
  average eigenvalue GAMMA=   2.0075
  2.0336  2.9539  2.9539  2.6214  2.5005  1.0132  1.0132  0.9705

 Free energy of the ion-electron system (eV)
  ---------------------------------------------------
  alpha Z        PSCENC =       834.86273165
  Ewald energy   TEWEN  =    -10784.98221272
  -Hartree energ DENC   =      -886.59615651
  -exchange      EXHF   =         0.00000000
  -V(xc)+E(xc)   XCENC  =       919.80397579
  PAW double counting   =      3842.22886879    -3921.35074703
  entropy T*S    EENTRO =        -0.00000000
  eigenvalues    EBANDS =         2.77995966
  atomic energy  EATOM  =      9416.14232778
  Solvation  Ediel_sol  =         0.00000000
  ---------------------------------------------------
  free energy    TOTEN  =      -577.11125259 eV

  energy without entropy =     -577.11125259  energy(sigma->0) =     -577.11125259


--------------------------------------------------------------------------------------------------------




--------------------------------------- Iteration      1(  14)  ---------------------------------------


    POTLOK:  cpu time    0.0699: real time    0.0702
    SETDIJ:  cpu time    0.0443: real time    0.0443
     EDDAV:  cpu time   11.4557: real time   11.4568
       DOS:  cpu time    0.0026: real time    0.0026
    --------------------------------------------
      LOOP:  cpu time   11.5725: real time   11.5739

 eigenvalue-minimisations  :  6144
 total energy-change (2. order) :-0.2437446E-09  (-0.1803193E-09)
 number of electron     255.9999995 magnetization 
 augmentation part        5.4560466 magnetization 

 Free energy of the ion-electron system (eV)
  ---------------------------------------------------
  alpha Z        PSCENC =       834.86273165
  Ewald energy   TEWEN  =    -10784.98221272
  -Hartree energ DENC   =      -886.59534573
  -exchange      EXHF   =         0.00000000
  -V(xc)+E(xc)   XCENC  =       919.80390026
  PAW double counting   =      3842.22341882    -3921.34525298
  entropy T*S    EENTRO =        -0.00000000
  eigenvalues    EBANDS =         2.77918034
  atomic energy  EATOM  =      9416.14232778
  Solvation  Ediel_sol  =         0.00000000
  ---------------------------------------------------
  free energy    TOTEN  =      -577.11125259 eV

  energy without entropy =     -577.11125259  energy(sigma->0) =     -577.11125259


--------------------------------------------------------------------------------------------------------




 average (electrostatic) potential at core
  the test charge radii are     0.6991
  (the norm of the test charge is              1.0000)
       1 -46.7542       2 -46.7542       3 -46.7542       4 -46.7542       5 -46.7542
       6 -46.7542       7 -46.7542       8 -46.7542       9 -46.7543      10 -46.7543
      11 -46.7543      12 -46.7543      13 -46.7543      14 -46.7543      15 -46.7543
      16 -46.7543      17 -46.7542      18 -46.7542      19 -46.7542      20 -46.7542
      21 -46.7542      22 -46.7542      23 -46.7542      24 -46.7542      25 -46.7543
      26 -46.7543      27 -46.7543      28 -46.7543      29 -46.7543      30 -46.7543
      31 -46.7543      32 -46.7543      33 -46.7542      34 -46.7542      35 -46.7542
      36 -46.7542      37 -46.7542      38 -46.7542      39 -46.7542      40 -46.7542
      41 -46.7543      42 -46.7543      43 -46.7543      44 -46.7543      45 -46.7543
      46 -46.7543      47 -46.7543      48 -46.7543      49 -46.7542      50 -46.7542
      51 -46.7542      52 -46.7542      53 -46.7542      54 -46.7542      55 -46.7542
      56 -46.7542      57 -46.7543      58 -46.7543      59 -46.7543      60 -46.7543
      61 -46.7543      62 -46.7543      63 -46.7543      64 -46.7543
 
 
 
 E-fermi :   9.1017     XC(G=0): -12.7481     alpha+bet :-16.0721


 k-point     1 :       0.0000    0.0000    0.0000
  band No.  band energies     occupation 
      1     -11.8157      2.00000
      2      -9.7343      2.00000
      3      -9.7343      2.00000
      4      -9.7343      2.00000
      5      -9.7343      2.00000
      6      -9.5725      2.00000
      7      -9.5725      2.00000
      8      -7.7556      2.00000
      9      -7.7556      2.00000
     10      -7.7556      2.00000
     11      -7.7556      2.00000
     12      -7.6134      2.00000
     13      -7.6134      2.00000
     14      -7.6134      2.00000
     15      -7.6134      2.00000
     16      -7.6134      2.00000
     17      -7.6134      2.00000
     18      -7.6134      2.00000
     19      -7.6134      2.00000
     20      -6.5682      2.00000
     21      -6.5682      2.00000
     22      -6.5682      2.00000
     23      -6.5682      2.00000
     24      -3.9379      2.00000
     25      -3.9379      2.00000
     26      -3.9379      2.00000
     27      -3.9379      2.00000
     28      -3.8801      2.00000
     29      -3.8801      2.00000
     30      -3.8801      2.00000
     31      -3.8801      2.00000
     32      -3.3419      2.00000
     33      -3.3419      2.00000
     34      -3.1593      2.00000
     35      -3.1593      2.00000
     36      -3.1593      2.00000
     37      -3.1593      2.00000
     38      -3.0198      2.00000
     39      -3.0198      2.00000
     40      -3.0198      2.00000
     41      -3.0198      2.00000
     42      -3.0198      2.00000
     43      -3.0198      2.00000
     44      -3.0198      2.00000
     45      -3.0198      2.00000
     46       0.0654      2.00000
     47       0.0654      2.00000
     48       0.0654      2.00000
     49       0.0654      2.00000
     50       0.0654      2.00000
     51       0.0654      2.00000
     52       0.0654      2.00000
     53       0.0654      2.00000
     54       0.3645      2.00000
     55       0.3645      2.00000
     56       0.3645      2.00000
     57       0.3645      2.00000
     58       0.8728      2.00000
     59       0.8728      2.00000
     60       0.8728      2.00000
     61       0.8728      2.00000
     62       0.9276      2.00000
     63       0.9276      2.00000
     64       0.9276      2.00000
     65       0.9276      2.00000
     66       0.9276      2.00000
     67       0.9276      2.00000
     68       0.9276      2.00000
     69       0.9276      2.00000
     70       1.3111      2.00000
     71       1.3111      2.00000
     72       1.3111      2.00000
     73       1.3111      2.00000
     74       1.3111      2.00000
     75       1.3111      2.00000
     76       1.3111      2.00000
     77       1.3111      2.00000
     78       1.7562      2.00000
     79       1.7562      2.00000
     80       1.7562      2.00000
     81       1.7562      2.00000
     82       2.3418      2.00000
     83       2.3418      2.00000
     84       2.8606      2.00000
     85       2.8606      2.00000
     86       2.8606      2.00000
     87       2.8606      2.00000
     88       3.7825      2.00000
     89       3.7825      2.00000
     90       3.7825      2.00000
     91       3.7825      2.00000
     92       4.4062      2.00000
     93       4.4062      2.00000
     94       4.4235      2.00000
     95       4.4235      2.00000
     96       4.4235      2.00000
     97       4.4235      2.00000
     98       4.7229      2.00000
     99       4.7229      2.00000
    100       4.7229      2.00000
    101       4.7229      2.00000
    102       4.9153      2.00000
    103       4.9153      2.00000
    104       4.9153      2.00000
    105       4.9153      2.00000
    106       5.3301      2.00000
    107       5.3301      2.00000
    108       5.3301      2.00000
    109       5.3301      2.00000
    110       5.5512      2.00000
    111       5.5512      2.00000
    112       5.5512      2.00000
    113       5.5512      2.00000
    114       5.8419      2.00000
    115       5.8419      2.00000
    116       5.8419      2.00000
    117       5.8419      2.00000
    118       5.8419      2.00000
    119       5.8419      2.00000
    120       5.8419      2.00000
    121       5.8419      2.00000
    122       6.1615      2.00000
    123       6.1615      2.00000
    124       6.1615      2.00000
    125       6.1615      2.00000
    126       8.2435      2.00000
    127       8.2435      2.00000
    128       8.7747      2.00000
    129      12.1354      0.00000
    130      12.1354      0.00000
    131      12.4175      0.00000
    132      12.4175      0.00000
    133      12.8854      0.00000
    134      12.8854      0.00000
    135      12.8854      0.00000
    136      12.8854      0.00000
    137      13.2537      0.00000
    138      13.2537      0.00000
    139      13.2537      0.00000
    140      13.2537      0.00000
    141      13.4475      0.00000
    142      13.9077      0.00000
    143      13.9077      0.00000
    144      15.2463      0.00000
    145      15.2463      0.00000
    146      15.2463      0.00000
    147      15.2463      0.00000
    148      15.5877      0.00000
    149      15.5877      0.00000
    150      15.5877      0.00000
    151      15.5877      0.00000
    152      16.1147      0.00000
    153      16.1147      0.00000
    154      16.1147      0.00000
    155      16.1147      0.00000
    156      16.1147      0.00000
    157      16.1147      0.00000
    158      16.1147      0.00000
    159      16.1147      0.00000
    160      16.3396      0.00000
    161      16.3396      0.00000
    162      16.3396      0.00000
    163      16.3396      0.00000
    164      16.9886      0.00000
    165      16.9886      0.00000
    166      16.9886      0.00000
    167      16.9886      0.00000
    168      17.6120      0.00000
    169      17.6120      0.00000
    170      17.6120      0.00000
    171      17.6120      0.00000
    172      17.6120      0.00000
    173      17.6120      0.00000
    174      17.6120      0.00000
    175      17.6120      0.00000
    176      17.7860      0.00000
    177      17.7860      0.00000
    178      17.8803      0.00000
    179      17.8803      0.00000
    180      17.8804      0.00000
    181      17.8804      0.00000
    182      18.0329      0.00000
    183      18.0329      0.00000
    184      18.0330      0.00000
    185      18.0341      0.00000
    186      18.2378      0.00000
    187      18.2378      0.00000
    188      18.2378      0.00000
    189      18.2379      0.00000
    190      18.2381      0.00000
    191      18.2385      0.00000
    192      18.2394      0.00000

 k-point     2 :       0.2500    0.0000    0.0000
  band No.  band energies     occupation 
      1     -11.6842      2.00000
      2     -10.6387      2.00000
      3      -9.6077      2.00000
      4      -9.6077      2.00000
      5      -9.4467      2.00000
      6      -9.4467      2.00000
      7      -8.6079      2.00000
      8      -8.6079      2.00000
      9      -8.5876      2.00000
     10      -8.4552      2.00000
     11      -8.4552      2.00000
     12      -7.5071      2.00000
     13      -7.5071      2.00000
     14      -7.5071      2.00000
     15      -7.5071      2.00000
     16      -6.8010      2.00000
     17      -6.8010      2.00000
     18      -6.8010      2.00000
     19      -6.8010      2.00000
     20      -6.6985      2.00000
     21      -6.6985      2.00000
     22      -6.5767      2.00000
     23      -6.5767      2.00000
     24      -5.6338      2.00000
     25      -4.2090      2.00000
     26      -4.2090      2.00000
     27      -4.2062      2.00000
     28      -4.2062      2.00000
     29      -3.7972      2.00000
     30      -3.7972      2.00000
     31      -3.4771      2.00000
     32      -3.4771      2.00000
     33      -3.4771      2.00000
     34      -3.4771      2.00000
     35      -3.2797      2.00000
     36      -3.2797      2.00000
     37      -3.2622      2.00000
     38      -3.2622      2.00000
     39      -2.9855      2.00000
     40      -2.9855      2.00000
     41      -2.3325      2.00000
     42      -2.3325      2.00000
     43      -2.0632      2.00000
     44      -2.0632      2.00000
     45      -1.9974      2.00000
     46      -1.0307      2.00000
     47      -1.0307      2.00000
     48      -1.0307      2.00000
     49      -1.0307      2.00000
     50      -0.8276      2.00000
     51      -0.8276      2.00000
     52      -0.4934      2.00000
     53      -0.4934      2.00000
     54       0.2933      2.00000
     55       0.2933      2.00000
     56       0.5227      2.00000
     57       0.5227      2.00000
     58       0.6352      2.00000
     59       0.6352      2.00000
     60       1.0279      2.00000
     61       1.0279      2.00000
     62       1.0420      2.00000
     63       1.0420      2.00000
     64       1.0830      2.00000
     65       1.0830      2.00000
     66       1.3038      2.00000
     67       1.3038      2.00000
     68       1.3107      2.00000
     69       1.3107      2.00000
     70       1.8748      2.00000
     71       1.8748      2.00000
     72       1.9118      2.00000
     73       2.0077      2.00000
     74       2.0077      2.00000
     75       2.0899      2.00000
     76       2.0899      2.00000
     77       2.1990      2.00000
     78       2.1990      2.00000
     79       2.4750      2.00000
     80       2.4750      2.00000
     81       2.4750      2.00000
     82       2.4750      2.00000
     83       2.5927      2.00000
     84       2.5927      2.00000
     85       2.6691      2.00000
     86       2.6691      2.00000
     87       2.9668      2.00000
     88       3.0089      2.00000
     89       3.2356      2.00000
     90       3.2356      2.00000
     91       3.3342      2.00000
     92       3.3342      2.00000
     93       3.9167      2.00000
     94       4.0508      2.00000
     95       4.0513      2.00000
     96       4.0513      2.00000
     97       4.4465      2.00000
     98       4.4465      2.00000
     99       4.5422      2.00000
    100       4.5422      2.00000
    101       4.8479      2.00000
    102       4.8479      2.00000
    103       5.0965      2.00000
    104       5.0965      2.00000
    105       5.1525      2.00000
    106       5.1525      2.00000
    107       5.1525      2.00000
    108       5.1525      2.00000
    109       5.3364      2.00000
    110       5.3364      2.00000
    111       5.4830      2.00000
    112       5.6596      2.00000
    113       5.6596      2.00000
    114       5.7093      2.00000
    115       5.8684      2.00000
    116       5.8684      2.00000
    117       5.8684      2.00000
    118       5.8684      2.00000
    119       5.9730      2.00000
    120       6.0563      2.00000
    121       6.0563      2.00000
    122       6.0563      2.00000
    123       6.0563      2.00000
    124       6.2038      2.00000
    125       6.2038      2.00000
    126       7.7846      2.00000
    127       7.8856      2.00000
    128       8.2476      2.00000
    129      12.6776      0.00000
    130      12.6916      0.00000
    131      12.6916      0.00000
    132      12.8128      0.00000
    133      12.9397      0.00000
    134      12.9397      0.00000
    135      13.1995      0.00000
    136      13.4384      0.00000
    137      13.4384      0.00000
    138      13.7714      0.00000
    139      13.7714      0.00000
    140      13.8073      0.00000
    141      13.9903      0.00000
    142      14.0207      0.00000
    143      14.5591      0.00000
    144      15.1556      0.00000
    145      15.1556      0.00000
    146      15.8798      0.00000
    147      15.8798      0.00000
    148      15.9027      0.00000
    149      15.9027      0.00000
    150      15.9027      0.00000
    151      15.9027      0.00000
    152      16.0118      0.00000
    153      16.0118      0.00000
    154      16.1573      0.00000
    155      16.1573      0.00000
    156      16.1573      0.00000
    157      16.1573      0.00000
    158      16.1668      0.00000
    159      16.1668      0.00000
    160      16.2347      0.00000
    161      16.2347      0.00000
    162      16.4363      0.00000
    163      16.4363      0.00000
    164      16.4363      0.00000
    165      16.4363      0.00000
    166      16.4455      0.00000
    167      16.5134      0.00000
    168      16.5134      0.00000
    169      16.7410      0.00000
    170      16.7410      0.00000
    171      16.8607      0.00000
    172      16.8607      0.00000
    173      16.9327      0.00000
    174      17.0299      0.00000
    175      17.0299      0.00000
    176      17.0794      0.00000
    177      17.0794      0.00000
    178      17.0794      0.00000
    179      17.0794      0.00000
    180      17.3914      0.00000
    181      17.3914      0.00000
    182      17.3914      0.00000
    183      17.3914      0.00000
    184      17.7871      0.00000
    185      17.9697      0.00000
    186      17.9698      0.00000
    187      18.0457      0.00000
    188      18.0458      0.00000
    189      18.1033      0.00000
    190      18.1034      0.00000
    191      18.4042      0.00000
    192      18.4189      0.00000

 k-point     3 :       0.5000    0.0000    0.0000
  band No.  band energies     occupation 
      1     -11.2907      2.00000
      2     -11.2907      2.00000
      3      -9.2299      2.00000
      4      -9.2299      2.00000
      5      -9.2299      2.00000
      6      -9.2299      2.00000
      7      -9.0716      2.00000
      8      -9.0716      2.00000
      9      -9.0716      2.00000
     10      -9.0716      2.00000
     11      -7.2134      2.00000
     12      -7.2134      2.00000
     13      -7.2072      2.00000
     14      -7.2072      2.00000
     15      -7.2072      2.00000
     16      -7.2072      2.00000
     17      -7.2072      2.00000
     18      -7.2072      2.00000
     19      -7.2072      2.00000
     20      -7.2072      2.00000
     21      -5.4847      2.00000
     22      -5.4847      2.00000
     23      -5.4847      2.00000
     24      -5.4847      2.00000
     25      -5.4042      2.00000
     26      -5.4042      2.00000
     27      -5.4042      2.00000
     28      -5.4042      2.00000
     29      -3.5681      2.00000
     30      -3.5681      2.00000
     31      -3.5681      2.00000
     32      -3.5681      2.00000
     33      -3.1250      2.00000
     34      -3.1250      2.00000
     35      -3.1250      2.00000
     36      -3.1250      2.00000
     37      -2.3975      2.00000
     38      -2.3975      2.00000
     39      -2.3975      2.00000
     40      -2.3975      2.00000
     41      -2.3975      2.00000
     42      -2.3975      2.00000
     43      -2.3975      2.00000
     44      -2.3975      2.00000
     45      -1.6046      2.00000
     46      -1.6046      2.00000
     47      -1.6046      2.00000
     48      -1.6046      2.00000
     49      -1.2738      2.00000
     50      -1.2738      2.00000
     51      -1.2738      2.00000
     52      -1.2738      2.00000
     53      -0.0437      2.00000
     54      -0.0437      2.00000
     55       0.2581      2.00000
     56       0.2581      2.00000
     57       0.2581      2.00000
     58       0.2581      2.00000
     59       0.6021      2.00000
     60       0.6021      2.00000
     61       0.6021      2.00000
     62       0.6021      2.00000
     63       1.5234      2.00000
     64       1.5234      2.00000
     65       1.5234      2.00000
     66       1.5234      2.00000
     67       1.9600      2.00000
     68       1.9600      2.00000
     69       1.9600      2.00000
     70       1.9600      2.00000
     71       2.1930      2.00000
     72       2.1930      2.00000
     73       2.1930      2.00000
     74       2.1930      2.00000
     75       2.3007      2.00000
     76       2.3007      2.00000
     77       2.3007      2.00000
     78       2.3007      2.00000
     79       3.1756      2.00000
     80       3.1756      2.00000
     81       3.1756      2.00000
     82       3.1756      2.00000
     83       3.1832      2.00000
     84       3.1832      2.00000
     85       3.1832      2.00000
     86       3.1832      2.00000
     87       3.3221      2.00000
     88       3.3221      2.00000
     89       3.4074      2.00000
     90       3.4074      2.00000
[...]
      4.663545  0.932709  6.282499     0.083723   -0.081441    0.000250  
      0.932709  4.663545  6.282499    -0.083723    0.081441   -0.000250  
      4.663545  4.663545  6.282499    -0.083723   -0.081441   -0.007693  
      0.000000  1.865418  0.000000    -0.009161    0.121652   -0.005506  
      3.730836  1.865418  0.000000    -0.009161   -0.121652   -0.004974  
      0.000000  5.596255  0.000000     0.009161    0.121652    0.004974  
      3.730836  5.596255  0.000000     0.009161   -0.121652    0.005506  
      0.000000  1.865418  3.589999    -0.009161    0.121652   -0.005506  
      3.730836  1.865418  3.589999    -0.009161   -0.121652   -0.004974  
      0.000000  5.596255  3.589999     0.009161    0.121652    0.004974  
      3.730836  5.596255  3.589999     0.009161   -0.121652    0.005506  
      2.798127  2.798127  2.692500    -0.096678   -0.090600    0.006785  
      6.528964  2.798127  2.692500    -0.096678    0.090600    0.000094  
      2.798127  6.528964  2.692500     0.096678   -0.090600   -0.000094  
      6.528964  6.528964  2.692500     0.096678    0.090600   -0.006785  
      2.798127  2.798127  6.282499    -0.096678   -0.090600    0.006785  
      6.528964  2.798127  6.282499    -0.096678    0.090600    0.000094  
      2.798127  6.528964  6.282499     0.096678   -0.090600   -0.000094  
      6.528964  6.528964  6.282499     0.096678    0.090600   -0.006785  
      1.865418  0.000000  0.000000     0.127563   -0.006477   -0.005373  
      5.596255  0.000000  0.000000     0.127563    0.006477    0.004621  
      1.865418  3.730836  0.000000    -0.127563   -0.006477   -0.004621  
      5.596255  3.730836  0.000000    -0.127563    0.006477    0.005373  
      1.865418  0.000000  3.589999     0.127563   -0.006477   -0.005373  
      5.596255  0.000000  3.589999     0.127563    0.006477    0.004621  
      1.865418  3.730836  3.589999    -0.127563   -0.006477   -0.004621  
      5.596255  3.730836  3.589999    -0.127563    0.006477    0.005373  
      2.798127  0.932709  0.897500     0.083723   -0.090600    0.007317  
      6.528964  0.932709  0.897500     0.083723    0.090600    0.000626  
      2.798127  4.663545  0.897500    -0.083723   -0.090600   -0.000626  
      6.528964  4.663545  0.897500    -0.083723    0.090600   -0.007317  
      2.798127  0.932709  4.487499     0.083723   -0.090600    0.007317  
      6.528964  0.932709  4.487499     0.083723    0.090600    0.000626  
      2.798127  4.663545  4.487499    -0.083723   -0.090600   -0.000626  
      6.528964  4.663545  4.487499    -0.083723    0.090600   -0.007317  
      1.865418  1.865418  1.795000    -0.009161   -0.006477   -0.010237  
      5.596255  1.865418  1.795000    -0.009161    0.006477   -0.000243  
      1.865418  5.596255  1.795000     0.009161   -0.006477    0.000243  
      5.596255  5.596255  1.795000     0.009161    0.006477    0.010237  
      1.865418  1.865418  5.384999    -0.009161   -0.006477   -0.010237  
      5.596255  1.865418  5.384999    -0.009161    0.006477   -0.000243  
      1.865418  5.596255  5.384999     0.009161   -0.006477    0.000243  
      5.596255  5.596255  5.384999     0.009161    0.006477    0.010237  
 
 190 f/i=    0.000001 THz     0.000009 2PiTHz    0.000046 cm-1     0.000006 meV
             X         Y         Z           dx          dy          dz
      0.932709  2.798127  0.897500     0.029321   -0.121440    0.004189  
      4.663545  2.798127  0.897500     0.029321   -0.121440    0.004189  
      0.932709  6.528964  0.897500     0.029321   -0.121440    0.004189  
      4.663545  6.528964  0.897500     0.029321   -0.121440    0.004189  
      0.932709  2.798127  4.487499     0.029321   -0.121440    0.004189  
      4.663545  2.798127  4.487499     0.029321   -0.121440    0.004189  
      0.932709  6.528964  4.487499     0.029321   -0.121440    0.004189  
      4.663545  6.528964  4.487499     0.029321   -0.121440    0.004189  
      0.000000  0.000000  1.795000     0.029321   -0.121440    0.004189  
      3.730836  0.000000  1.795000     0.029321   -0.121440    0.004189  
      0.000000  3.730836  1.795000     0.029321   -0.121440    0.004189  
      3.730836  3.730836  1.795000     0.029321   -0.121440    0.004189  
      0.000000  0.000000  5.384999     0.029321   -0.121440    0.004189  
      3.730836  0.000000  5.384999     0.029321   -0.121440    0.004189  
      0.000000  3.730836  5.384999     0.029321   -0.121440    0.004189  
      3.730836  3.730836  5.384999     0.029321   -0.121440    0.004189  
      0.932709  0.932709  2.692500     0.029321   -0.121440    0.004189  
      4.663545  0.932709  2.692500     0.029321   -0.121440    0.004189  
      0.932709  4.663545  2.692500     0.029321   -0.121440    0.004189  
      4.663545  4.663545  2.692500     0.029321   -0.121440    0.004189  
      0.932709  0.932709  6.282499     0.029321   -0.121440    0.004189  
      4.663545  0.932709  6.282499     0.029321   -0.121440    0.004189  
      0.932709  4.663545  6.282499     0.029321   -0.121440    0.004189  
      4.663545  4.663545  6.282499     0.029321   -0.121440    0.004189  
      0.000000  1.865418  0.000000     0.029321   -0.121440    0.004189  
      3.730836  1.865418  0.000000     0.029321   -0.121440    0.004189  
      0.000000  5.596255  0.000000     0.029321   -0.121440    0.004189  
      3.730836  5.596255  0.000000     0.029321   -0.121440    0.004189  
      0.000000  1.865418  3.589999     0.029321   -0.121440    0.004189  
      3.730836  1.865418  3.589999     0.029321   -0.121440    0.004189  
      0.000000  5.596255  3.589999     0.029321   -0.121440    0.004189  
      3.730836  5.596255  3.589999     0.029321   -0.121440    0.004189  
      2.798127  2.798127  2.692500     0.029321   -0.121440    0.004189  
      6.528964  2.798127  2.692500     0.029321   -0.121440    0.004189  
      2.798127  6.528964  2.692500     0.029321   -0.121440    0.004189  
      6.528964  6.528964  2.692500     0.029321   -0.121440    0.004189  
      2.798127  2.798127  6.282499     0.029321   -0.121440    0.004189  
      6.528964  2.798127  6.282499     0.029321   -0.121440    0.004189  
      2.798127  6.528964  6.282499     0.029321   -0.121440    0.004189  
      6.528964  6.528964  6.282499     0.029321   -0.121440    0.004189  
      1.865418  0.000000  0.000000     0.029321   -0.121440    0.004189  
      5.596255  0.000000  0.000000     0.029321   -0.121440    0.004189  
      1.865418  3.730836  0.000000     0.029321   -0.121440    0.004189  
      5.596255  3.730836  0.000000     0.029321   -0.121440    0.004189  
      1.865418  0.000000  3.589999     0.029321   -0.121440    0.004189  
      5.596255  0.000000  3.589999     0.029321   -0.121440    0.004189  
      1.865418  3.730836  3.589999     0.029321   -0.121440    0.004189  
      5.596255  3.730836  3.589999     0.029321   -0.121440    0.004189  
      2.798127  0.932709  0.897500     0.029321   -0.121440    0.004189  
      6.528964  0.932709  0.897500     0.029321   -0.121440    0.004189  
      2.798127  4.663545  0.897500     0.029321   -0.121440    0.004189  
      6.528964  4.663545  0.897500     0.029321   -0.121440    0.004189  
      2.798127  0.932709  4.487499     0.029321   -0.121440    0.004189  
      6.528964  0.932709  4.487499     0.029321   -0.121440    0.004189  
      2.798127  4.663545  4.487499     0.029321   -0.121440    0.004189  
      6.528964  4.663545  4.487499     0.029321   -0.121440    0.004189  
      1.865418  1.865418  1.795000     0.029321   -0.121440    0.004189  
      5.596255  1.865418  1.795000     0.029321   -0.121440    0.004189  
      1.865418  5.596255  1.795000     0.029321   -0.121440    0.004189  
      5.596255  5.596255  1.795000     0.029321   -0.121440    0.004189  
      1.865418  1.865418  5.384999     0.029321   -0.121440    0.004189  
      5.596255  1.865418  5.384999     0.029321   -0.121440    0.004189  
      1.865418  5.596255  5.384999     0.029321   -0.121440    0.004189  
      5.596255  5.596255  5.384999     0.029321   -0.121440    0.004189  
 
 191 f/i=    0.000002 THz     0.000010 2PiTHz    0.000051 cm-1     0.000006 meV
             X         Y         Z           dx          dy          dz
      0.932709  2.798127  0.897500    -0.121507   -0.029343   -0.000170  
      4.663545  2.798127  0.897500    -0.121507   -0.029343   -0.000170  
      0.932709  6.528964  0.897500    -0.121507   -0.029343   -0.000170  
      4.663545  6.528964  0.897500    -0.121507   -0.029343   -0.000170  
      0.932709  2.798127  4.487499    -0.121507   -0.029343   -0.000170  
      4.663545  2.798127  4.487499    -0.121507   -0.029343   -0.000170  
      0.932709  6.528964  4.487499    -0.121507   -0.029343   -0.000170  
      4.663545  6.528964  4.487499    -0.121507   -0.029343   -0.000170  
      0.000000  0.000000  1.795000    -0.121507   -0.029343   -0.000170  
      3.730836  0.000000  1.795000    -0.121507   -0.029343   -0.000170  
      0.000000  3.730836  1.795000    -0.121507   -0.029343   -0.000170  
      3.730836  3.730836  1.795000    -0.121507   -0.029343   -0.000170  
      0.000000  0.000000  5.384999    -0.121507   -0.029343   -0.000170  
      3.730836  0.000000  5.384999    -0.121507   -0.029343   -0.000170  
      0.000000  3.730836  5.384999    -0.121507   -0.029343   -0.000170  
      3.730836  3.730836  5.384999    -0.121507   -0.029343   -0.000170  
      0.932709  0.932709  2.692500    -0.121507   -0.029343   -0.000170  
      4.663545  0.932709  2.692500    -0.121507   -0.029343   -0.000170  
      0.932709  4.663545  2.692500    -0.121507   -0.029343   -0.000170  
      4.663545  4.663545  2.692500    -0.121507   -0.029343   -0.000170  
      0.932709  0.932709  6.282499    -0.121507   -0.029343   -0.000170  
      4.663545  0.932709  6.282499    -0.121507   -0.029343   -0.000170  
      0.932709  4.663545  6.282499    -0.121507   -0.029343   -0.000170  
      4.663545  4.663545  6.282499    -0.121507   -0.029343   -0.000170  
      0.000000  1.865418  0.000000    -0.121507   -0.029343   -0.000170  
      3.730836  1.865418  0.000000    -0.121507   -0.029343   -0.000170  
      0.000000  5.596255  0.000000    -0.121507   -0.029343   -0.000170  
      3.730836  5.596255  0.000000    -0.121507   -0.029343   -0.000170  
      0.000000  1.865418  3.589999    -0.121507   -0.029343   -0.000170  
      3.730836  1.865418  3.589999    -0.121507   -0.029343   -0.000170  
      0.000000  5.596255  3.589999    -0.121507   -0.029343   -0.000170  
      3.730836  5.596255  3.589999    -0.121507   -0.029343   -0.000170  
      2.798127  2.798127  2.692500    -0.121507   -0.029343   -0.000170  
      6.528964  2.798127  2.692500    -0.121507   -0.029343   -0.000170  
      2.798127  6.528964  2.692500    -0.121507   -0.029343   -0.000170  
      6.528964  6.528964  2.692500    -0.121507   -0.029343   -0.000170  
      2.798127  2.798127  6.282499    -0.121507   -0.029343   -0.000170  
      6.528964  2.798127  6.282499    -0.121507   -0.029343   -0.000170  
      2.798127  6.528964  6.282499    -0.121507   -0.029343   -0.000170  
      6.528964  6.528964  6.282499    -0.121507   -0.029343   -0.000170  
      1.865418  0.000000  0.000000    -0.121507   -0.029343   -0.000170  
      5.596255  0.000000  0.000000    -0.121507   -0.029343   -0.000170  
      1.865418  3.730836  0.000000    -0.121507   -0.029343   -0.000170  
      5.596255  3.730836  0.000000    -0.121507   -0.029343   -0.000170  
      1.865418  0.000000  3.589999    -0.121507   -0.029343   -0.000170  
      5.596255  0.000000  3.589999    -0.121507   -0.029343   -0.000170  
      1.865418  3.730836  3.589999    -0.121507   -0.029343   -0.000170  
      5.596255  3.730836  3.589999    -0.121507   -0.029343   -0.000170  
      2.798127  0.932709  0.897500    -0.121507   -0.029343   -0.000170  
      6.528964  0.932709  0.897500    -0.121507   -0.029343   -0.000170  
      2.798127  4.663545  0.897500    -0.121507   -0.029343   -0.000170  
      6.528964  4.663545  0.897500    -0.121507   -0.029343   -0.000170  
      2.798127  0.932709  4.487499    -0.121507   -0.029343   -0.000170  
      6.528964  0.932709  4.487499    -0.121507   -0.029343   -0.000170  
      2.798127  4.663545  4.487499    -0.121507   -0.029343   -0.000170  
      6.528964  4.663545  4.487499    -0.121507   -0.029343   -0.000170  
      1.865418  1.865418  1.795000    -0.121507   -0.029343   -0.000170  
      5.596255  1.865418  1.795000    -0.121507   -0.029343   -0.000170  
      1.865418  5.596255  1.795000    -0.121507   -0.029343   -0.000170  
      5.596255  5.596255  1.795000    -0.121507   -0.029343   -0.000170  
      1.865418  1.865418  5.384999    -0.121507   -0.029343   -0.000170  
      5.596255  1.865418  5.384999    -0.121507   -0.029343   -0.000170  
      1.865418  5.596255  5.384999    -0.121507   -0.029343   -0.000170  
      5.596255  5.596255  5.384999    -0.121507   -0.029343   -0.000170  
 
 192 f/i=    0.000002 THz     0.000011 2PiTHz    0.000057 cm-1     0.000007 meV
             X         Y         Z           dx          dy          dz
      0.932709  2.798127  0.897500    -0.001149    0.004032    0.124930  
      4.663545  2.798127  0.897500    -0.001149    0.004032    0.124930  
      0.932709  6.528964  0.897500    -0.001149    0.004032    0.124930  
      4.663545  6.528964  0.897500    -0.001149    0.004032    0.124930  
      0.932709  2.798127  4.487499    -0.001149    0.004032    0.124930  
      4.663545  2.798127  4.487499    -0.001149    0.004032    0.124930  
      0.932709  6.528964  4.487499    -0.001149    0.004032    0.124930  
      4.663545  6.528964  4.487499    -0.001149    0.004032    0.124930  
      0.000000  0.000000  1.795000    -0.001149    0.004032    0.124930  
      3.730836  0.000000  1.795000    -0.001149    0.004032    0.124930  
      0.000000  3.730836  1.795000    -0.001149    0.004032    0.124930  
      3.730836  3.730836  1.795000    -0.001149    0.004032    0.124930  
      0.000000  0.000000  5.384999    -0.001149    0.004032    0.124930  
      3.730836  0.000000  5.384999    -0.001149    0.004032    0.124930  
      0.000000  3.730836  5.384999    -0.001149    0.004032    0.124930  
      3.730836  3.730836  5.384999    -0.001149    0.004032    0.124930  
      0.932709  0.932709  2.692500    -0.001149    0.004032    0.124930  
      4.663545  0.932709  2.692500    -0.001149    0.004032    0.124930  
      0.932709  4.663545  2.692500    -0.001149    0.004032    0.124930  
      4.663545  4.663545  2.692500    -0.001149    0.004032    0.124930  
      0.932709  0.932709  6.282499    -0.001149    0.004032    0.124930  
      4.663545  0.932709  6.282499    -0.001149    0.004032    0.124930  
      0.932709  4.663545  6.282499    -0.001149    0.004032    0.124930  
      4.663545  4.663545  6.282499    -0.001149    0.004032    0.124930  
      0.000000  1.865418  0.000000    -0.001149    0.004032    0.124930  
      3.730836  1.865418  0.000000    -0.001149    0.004032    0.124930  
      0.000000  5.596255  0.000000    -0.001149    0.004032    0.124930  
      3.730836  5.596255  0.000000    -0.001149    0.004032    0.124930  
      0.000000  1.865418  3.589999    -0.001149    0.004032    0.124930  
      3.730836  1.865418  3.589999    -0.001149    0.004032    0.124930  
      0.000000  5.596255  3.589999    -0.001149    0.004032    0.124930  
      3.730836  5.596255  3.589999    -0.001149    0.004032    0.124930  
      2.798127  2.798127  2.692500    -0.001149    0.004032    0.124930  
      6.528964  2.798127  2.692500    -0.001149    0.004032    0.124930  
      2.798127  6.528964  2.692500    -0.001149    0.004032    0.124930  
      6.528964  6.528964  2.692500    -0.001149    0.004032    0.124930  
      2.798127  2.798127  6.282499    -0.001149    0.004032    0.124930  
      6.528964  2.798127  6.282499    -0.001149    0.004032    0.124930  
      2.798127  6.528964  6.282499    -0.001149    0.004032    0.124930  
      6.528964  6.528964  6.282499    -0.001149    0.004032    0.124930  
      1.865418  0.000000  0.000000    -0.001149    0.004032    0.124930  
      5.596255  0.000000  0.000000    -0.001149    0.004032    0.124930  
      1.865418  3.730836  0.000000    -0.001149    0.004032    0.124930  
      5.596255  3.730836  0.000000    -0.001149    0.004032    0.124930  
      1.865418  0.000000  3.589999    -0.001149    0.004032    0.124930  
      5.596255  0.000000  3.589999    -0.001149    0.004032    0.124930  
      1.865418  3.730836  3.589999    -0.001149    0.004032    0.124930  
      5.596255  3.730836  3.589999    -0.001149    0.004032    0.124930  
      2.798127  0.932709  0.897500    -0.001149    0.004032    0.124930  
      6.528964  0.932709  0.897500    -0.001149    0.004032    0.124930  
      2.798127  4.663545  0.897500    -0.001149    0.004032    0.124930  
      6.528964  4.663545  0.897500    -0.001149    0.004032    0.124930  
      2.798127  0.932709  4.487499    -0.001149    0.004032    0.124930  
      6.528964  0.932709  4.487499    -0.001149    0.004032    0.124930  
      2.798127  4.663545  4.487499    -0.001149    0.004032    0.124930  
      6.528964  4.663545  4.487499    -0.001149    0.004032    0.124930  
      1.865418  1.865418  1.795000    -0.001149    0.004032    0.124930  
      5.596255  1.865418  1.795000    -0.001149    0.004032    0.124930  
      1.865418  5.596255  1.795000    -0.001149    0.004032    0.124930  
      5.596255  5.596255  1.795000    -0.001149    0.004032    0.124930  
      1.865418  1.865418  5.384999    -0.001149    0.004032    0.124930  
      5.596255  1.865418  5.384999    -0.001149    0.004032    0.124930  
      1.865418  5.596255  5.384999    -0.001149    0.004032    0.124930  
      5.596255  5.596255  5.384999    -0.001149    0.004032    0.124930  
 


--------------------------------------------------------------------------------------------------------



 ELASTIC MODULI CONTR FROM IONIC RELAXATION (kBar)
 Direction    XX          YY          ZZ          XY          YZ          ZX
 --------------------------------------------------------------------------------
 XX          -0.0000     -0.0000      0.0000      0.0000     -0.0000      0.0000
 YY          -0.0000     -0.0000     -0.0000      0.0000     -0.0000      0.0000
 ZZ           0.0000     -0.0000     -0.0000     -0.0000     -0.0000      0.0000
 XY           0.0000      0.0000     -0.0000     -4.5538      0.0000     -0.0000
 YZ          -0.0000     -0.0000     -0.0000      0.0000    -12.9566      0.0000
 ZX           0.0000      0.0000      0.0000     -0.0000      0.0000    -12.9574
 --------------------------------------------------------------------------------



--------------------------------------------------------------------------------------------------------


     LOOP+:  cpu time  853.4546: real time  854.0420
    4ORBIT:  cpu time    0.0000: real time    0.0000

 total amount of memory used by VASP MPI-rank0    71661. kBytes
=======================================================================

   base      :      30000. kBytes
   nonl-proj :      15876. kBytes
   fftplans  :       5389. kBytes
   grid      :       6708. kBytes
   one-center:        196. kBytes
   wavefun   :      13492. kBytes
 
  
  
 General timing and accounting informations for this job:
 ========================================================
  
                  Total CPU time used (sec):      861.705
                            User time (sec):      857.158
                          System time (sec):        4.548
                         Elapsed time (sec):      862.777
  
                   Maximum memory used (kb):      332620.
                   Average memory used (kb):           0.
  
                          Minor page faults:        39412
                          Major page faults:           35
                 Voluntary context switches:          837
