# Thermal properties / unit cell (natom)

unit:
  temperature:   K
  free_energy:   kJ/mol
  entropy:       J/K/mol
  heat_capacity: J/K/mol

natom: 8    
cutoff_frequency:    0.000
num_modes: 2654208
num_integrated_modes: 2654208

zero_point_energy:     125.7571295
high_T_entropy:        451.7651234

thermal_properties:
- temperature:         0.0000000
  free_energy:       125.7571295
  entropy:             0.0000000
  heat_capacity:       0.0000000
  energy:            125.7571295

- temperature:         2.0000000
  free_energy:       125.7571295
  entropy:             0.0000000
  heat_capacity:       0.0000000
  energy:            125.7571295

- temperature:         4.0000000
  free_energy:       125.7571295
  entropy:             0.0000122
  heat_capacity:       0.0000729
  energy:            125.7571296

- temperature:         6.0000000
  free_energy:       125.7571294
  entropy:             0.0000918
  heat_capacity:       0.0003842
  energy:            125.7571300

- temperature:         8.0000000
  free_energy:       125.7571291
  entropy:             0.0002762
  heat_capacity:       0.0009783
  energy:            125.7571313

- temperature:        10.0000000
  free_energy:       125.7571282
  entropy:             0.0005897
  heat_capacity:       0.0019351
  energy:            125.7571341

- temperature:        12.0000000
  free_energy:       125.7571266
  entropy:             0.0010601
  heat_capacity:       0.0033539
  energy:            125.7571393

- temperature:        14.0000000
  free_energy:       125.7571239
  entropy:             0.0017180
  heat_capacity:       0.0053337
  energy:            125.7571479

- temperature:        16.0000000
  free_energy:       125.7571196
  entropy:             0.0025946
  heat_capacity:       0.0079722
  energy:            125.7571611

- temperature:        18.0000000
  free_energy:       125.7571133
  entropy:             0.0037217
  heat_capacity:       0.0113677
  energy:            125.7571803

- temperature:        20.0000000
  free_energy:       125.7571045
  entropy:             0.0051315
  heat_capacity:       0.0156190
  energy:            125.7572072

- temperature:        22.0000000
  free_energy:       125.7570926
  entropy:             0.0068564
  heat_capacity:       0.0208268
  energy:            125.7572434

- temperature:        24.0000000
  free_energy:       125.7570769
  entropy:             0.0089292
  heat_capacity:       0.0270935
  energy:            125.7572912

- temperature:        26.0000000
  free_energy:       125.7570566
  entropy:             0.0113831
  heat_capacity:       0.0345234
  energy:            125.7573526

- temperature:        28.0000000
  free_energy:       125.7570311
  entropy:             0.0142518
  heat_capacity:       0.0432236
  energy:            125.7574301

- temperature:        30.0000000
  free_energy:       125.7569993
  entropy:             0.0175694
  heat_capacity:       0.0533038
  energy:            125.7575264

- temperature:        32.0000000
  free_energy:       125.7569605
  entropy:             0.0213706
  heat_capacity:       0.0648769
  energy:            125.7576443

- temperature:        34.0000000
  free_energy:       125.7569135
  entropy:             0.0256909
  heat_capacity:       0.0780595
  energy:            125.7577870

- temperature:        36.0000000
  free_energy:       125.7568573
  entropy:             0.0305662
  heat_capacity:       0.0929724
  energy:            125.7579577

- temperature:        38.0000000
  free_energy:       125.7567908
  entropy:             0.0360336
  heat_capacity:       0.1097415
  energy:            125.7581601

- temperature:        40.0000000
  free_energy:       125.7567128
  entropy:             0.0421307
  heat_capacity:       0.1284981
  energy:            125.7583980

- temperature:        42.0000000
  free_energy:       125.7566219
  entropy:             0.0488965
  heat_capacity:       0.1493804
  energy:            125.7586755

- temperature:        44.0000000
  free_energy:       125.7565167
  entropy:             0.0563710
  heat_capacity:       0.1725339
  energy:            125.7589970

- temperature:        46.0000000
  free_energy:       125.7563959
  entropy:             0.0645955
  heat_capacity:       0.1981130
  energy:            125.7593673

- temperature:        48.0000000
  free_energy:       125.7562578
  entropy:             0.0736128
  heat_capacity:       0.2262814
  energy:            125.7597912

- temperature:        50.0000000
  free_energy:       125.7561009
  entropy:             0.0834674
  heat_capacity:       0.2572135
  energy:            125.7602742

- temperature:        52.0000000
  free_energy:       125.7559233
  entropy:             0.0942056
  heat_capacity:       0.2910950
  energy:            125.7608220

- temperature:        54.0000000
  free_energy:       125.7557234
  entropy:             0.1058757
  heat_capacity:       0.3281233
  energy:            125.7614407

- temperature:        56.0000000
  free_energy:       125.7554992
  entropy:             0.1185282
  heat_capacity:       0.3685083
  energy:            125.7621368

- temperature:        58.0000000
  free_energy:       125.7552486
  entropy:             0.1322157
  heat_capacity:       0.4124722
  energy:            125.7629171

- temperature:        60.0000000
  free_energy:       125.7549696
  entropy:             0.1469933
  heat_capacity:       0.4602491
  energy:            125.7637892

- temperature:        62.0000000
  free_energy:       125.7546599
  entropy:             0.1629186
  heat_capacity:       0.5120847
  energy:            125.7647608

- temperature:        64.0000000
  free_energy:       125.7543171
  entropy:             0.1800515
  heat_capacity:       0.5682355
  energy:            125.7658404

- temperature:        66.0000000
  free_energy:       125.7539388
  entropy:             0.1984545
  heat_capacity:       0.6289675
  energy:            125.7670368

- temperature:        68.0000000
  free_energy:       125.7535224
  entropy:             0.2181928
  heat_capacity:       0.6945550
  energy:            125.7683595

- temperature:        70.0000000
  free_energy:       125.7530651
  entropy:             0.2393336
  heat_capacity:       0.7652793
  energy:            125.7698185

- temperature:        72.0000000
  free_energy:       125.7525641
  entropy:             0.2619466
  heat_capacity:       0.8414267
  energy:            125.7714242

- temperature:        74.0000000
  free_energy:       125.7520163
  entropy:             0.2861038
  heat_capacity:       0.9232871
  energy:            125.7731880

- temperature:        76.0000000
  free_energy:       125.7514186
  entropy:             0.3118790
  heat_capacity:       1.0111522
  energy:            125.7751214

- temperature:        78.0000000
  free_energy:       125.7507677
  entropy:             0.3393479
  heat_capacity:       1.1053136
  energy:            125.7772368

- temperature:        80.0000000
  free_energy:       125.7500600
  entropy:             0.3685877
  heat_capacity:       1.2060613
  energy:            125.7795470

- temperature:        82.0000000
  free_energy:       125.7492921
  entropy:             0.3996774
  heat_capacity:       1.3136819
  energy:            125.7820656

- temperature:        84.0000000
  free_energy:       125.7484600
  entropy:             0.4326966
  heat_capacity:       1.4284574
  energy:            125.7848065

- temperature:        86.0000000
  free_energy:       125.7475599
  entropy:             0.4677262
  heat_capacity:       1.5506632
  energy:            125.7877844

- temperature:        88.0000000
  free_energy:       125.7465877
  entropy:             0.5048477
  heat_capacity:       1.6805674
  energy:            125.7910143

- temperature:        90.0000000
  free_energy:       125.7455391
  entropy:             0.5441430
  heat_capacity:       1.8184293
  energy:            125.7945120

- temperature:        92.0000000
  free_energy:       125.7444097
  entropy:             0.5856942
  heat_capacity:       1.9644986
  energy:            125.7982935

- temperature:        94.0000000
  free_energy:       125.7431948
  entropy:             0.6295833
  heat_capacity:       2.1190145
  energy:            125.8023756

- temperature:        96.0000000
  free_energy:       125.7418897
  entropy:             0.6758922
  heat_capacity:       2.2822047
  energy:            125.8067754

- temperature:        98.0000000
  free_energy:       125.7404895
  entropy:             0.7247022
  heat_capacity:       2.4542854
  energy:            125.8115104

- temperature:       100.0000000
  free_energy:       125.7389892
  entropy:             0.7760938
  heat_capacity:       2.6354600
  energy:            125.8165986

- temperature:       102.0000000
  free_energy:       125.7373834
  entropy:             0.8301470
  heat_capacity:       2.8259198
  energy:            125.8220584

- temperature:       104.0000000
  free_energy:       125.7356668
  entropy:             0.8869403
  heat_capacity:       3.0258426
  energy:            125.8279086

- temperature:       106.0000000
  free_energy:       125.7338337
  entropy:             0.9465511
  heat_capacity:       3.2353935
  energy:            125.8341682

- temperature:       108.0000000
  free_energy:       125.7318786
  entropy:             1.0090557
  heat_capacity:       3.4547242
  energy:            125.8408566

- temperature:       110.0000000
  free_energy:       125.7297955
  entropy:             1.0745285
  heat_capacity:       3.6839735
  energy:            125.8479937

- temperature:       112.0000000
  free_energy:       125.7275785
  entropy:             1.1430424
  heat_capacity:       3.9232667
  energy:            125.8555992

- temperature:       114.0000000
  free_energy:       125.7252213
  entropy:             1.2146686
  heat_capacity:       4.1727164
  energy:            125.8636935

- temperature:       116.0000000
  free_energy:       125.7227177
  entropy:             1.2894763
  heat_capacity:       4.4324222
  energy:            125.8722969

- temperature:       118.0000000
  free_energy:       125.7200612
  entropy:             1.3675328
  heat_capacity:       4.7024711
  energy:            125.8814301

- temperature:       120.0000000
  free_energy:       125.7172454
  entropy:             1.4489035
  heat_capacity:       4.9829373
  energy:            125.8911138

- temperature:       122.0000000
  free_energy:       125.7142634
  entropy:             1.5336514
  heat_capacity:       5.2738832
  energy:            125.9013688

- temperature:       124.0000000
  free_energy:       125.7111085
  entropy:             1.6218376
  heat_capacity:       5.5753590
  energy:            125.9122163

- temperature:       126.0000000
  free_energy:       125.7077737
  entropy:             1.7135209
  heat_capacity:       5.8874031
  energy:            125.9236773

- temperature:       128.0000000
  free_energy:       125.7042520
  entropy:             1.8087578
  heat_capacity:       6.2100426
  energy:            125.9357730

- temperature:       130.0000000
  free_energy:       125.7005362
  entropy:             1.9076024
  heat_capacity:       6.5432933
  energy:            125.9485246

- temperature:       132.0000000
  free_energy:       125.6966192
  entropy:             2.0101068
  heat_capacity:       6.8871601
  energy:            125.9619532

- temperature:       134.0000000
  free_energy:       125.6924933
  entropy:             2.1163204
  heat_capacity:       7.2416375
  energy:            125.9760803

- temperature:       136.0000000
  free_energy:       125.6881514
  entropy:             2.2262904
  heat_capacity:       7.6067094
  energy:            125.9909269

- temperature:       138.0000000
  free_energy:       125.6835857
  entropy:             2.3400617
  heat_capacity:       7.9823499
  energy:            126.0065142

- temperature:       140.0000000
  free_energy:       125.6787886
  entropy:             2.4576766
  heat_capacity:       8.3685234
  energy:            126.0228633

- temperature:       142.0000000
  free_energy:       125.6737524
  entropy:             2.5791753
  heat_capacity:       8.7651846
  energy:            126.0399952

- temperature:       144.0000000
  free_energy:       125.6684692
  entropy:             2.7045954
  heat_capacity:       9.1722794
  energy:            126.0579310

- temperature:       146.0000000
  free_energy:       125.6629313
  entropy:             2.8339722
  heat_capacity:       9.5897446
  energy:            126.0766913

- temperature:       148.0000000
  free_energy:       125.6571307
  entropy:             2.9673387
  heat_capacity:      10.0175085
  energy:            126.0962968

- temperature:       150.0000000
  free_energy:       125.6510593
  entropy:             3.1047255
  heat_capacity:      10.4554912
  energy:            126.1167681

- temperature:       152.0000000
  free_energy:       125.6447091
  entropy:             3.2461608
  heat_capacity:      10.9036048
  energy:            126.1381255

- temperature:       154.0000000
  free_energy:       125.6380719
  entropy:             3.3916707
  heat_capacity:      11.3617537
  energy:            126.1603892

- temperature:       156.0000000
  free_energy:       125.6311397
  entropy:             3.5412788
  heat_capacity:      11.8298349
  energy:            126.1835792

- temperature:       158.0000000
  free_energy:       125.6239041
  entropy:             3.6950066
  heat_capacity:      12.3077383
  energy:            126.2077151

- temperature:       160.0000000
  free_energy:       125.6163569
  entropy:             3.8528732
  heat_capacity:      12.7953470
  energy:            126.2328166

- temperature:       162.0000000
  free_energy:       125.6084898
  entropy:             4.0148956
  heat_capacity:      13.2925376
  energy:            126.2589029

- temperature:       164.0000000
  free_energy:       125.6002945
  entropy:             4.1810886
  heat_capacity:      13.7991805
  energy:            126.2859931

- temperature:       166.0000000
  free_energy:       125.5917627
  entropy:             4.3514648
  heat_capacity:      14.3151400
  energy:            126.3141058

- temperature:       168.0000000
  free_energy:       125.5828859
  entropy:             4.5260349
  heat_capacity:      14.8402750
  energy:            126.3432597

- temperature:       170.0000000
  free_energy:       125.5736557
  entropy:             4.7048072
  heat_capacity:      15.3744388
  energy:            126.3734730

- temperature:       172.0000000
  free_energy:       125.5640638
  entropy:             4.8877882
  heat_capacity:      15.9174799
  energy:            126.4047634

- temperature:       174.0000000
  free_energy:       125.5541018
  entropy:             5.0749823
  heat_capacity:      16.4692417
  energy:            126.4371487

- temperature:       176.0000000
  free_energy:       125.5437611
  entropy:             5.2663919
  heat_capacity:      17.0295635
  energy:            126.4706461

- temperature:       178.0000000
  free_energy:       125.5330334
  entropy:             5.4620177
  heat_capacity:      17.5982801
  energy:            126.5052725

- temperature:       180.0000000
  free_energy:       125.5219102
  entropy:             5.6618581
  heat_capacity:      18.1752225
  energy:            126.5410447

- temperature:       182.0000000
  free_energy:       125.5103832
  entropy:             5.8659101
  heat_capacity:      18.7602180
  energy:            126.5779788

- temperature:       184.0000000
  free_energy:       125.4984438
  entropy:             6.0741686
  heat_capacity:      19.3530907
  energy:            126.6160908

- temperature:       186.0000000
  free_energy:       125.4860837
  entropy:             6.2866269
  heat_capacity:      19.9536615
  energy:            126.6553963

- temperature:       188.0000000
  free_energy:       125.4732945
  entropy:             6.5032765
  heat_capacity:      20.5617486
  energy:            126.6959105

- temperature:       190.0000000
  free_energy:       125.4600678
  entropy:             6.7241073
  heat_capacity:      21.1771674
  energy:            126.7376482

- temperature:       192.0000000
  free_energy:       125.4463953
  entropy:             6.9491075
  heat_capacity:      21.7997315
  energy:            126.7806239

- temperature:       194.0000000
  free_energy:       125.4322686
  entropy:             7.1782637
  heat_capacity:      22.4292520
  energy:            126.8248517

- temperature:       196.0000000
  free_energy:       125.4176794
  entropy:             7.4115611
  heat_capacity:      23.0655387
  energy:            126.8703454

- temperature:       198.0000000
  free_energy:       125.4026196
  entropy:             7.6489832
  heat_capacity:      23.7083994
  energy:            126.9171183

- temperature:       200.0000000
  free_energy:       125.3870808
  entropy:             7.8905124
  heat_capacity:      24.3576411
  energy:            126.9651833

- temperature:       202.0000000
  free_energy:       125.3710548
  entropy:             8.1361294
  heat_capacity:      25.0130696
  energy:            127.0145530

- temperature:       204.0000000
  free_energy:       125.3545335
  entropy:             8.3858137
  heat_capacity:      25.6744898
  energy:            127.0652395

- temperature:       206.0000000
  free_energy:       125.3375089
  entropy:             8.6395433
  heat_capacity:      26.3417062
  energy:            127.1172548

- temperature:       208.0000000
  free_energy:       125.3199727
  entropy:             8.8972952
  heat_capacity:      27.0145229
  energy:            127.1706101

- temperature:       210.0000000
  free_energy:       125.3019170
  entropy:             9.1590451
  heat_capacity:      27.6927439
  energy:            127.2253165

- temperature:       212.0000000
  free_energy:       125.2833339
  entropy:             9.4247674
  heat_capacity:      28.3761732
  energy:            127.2813845

- temperature:       214.0000000
  free_energy:       125.2642153
  entropy:             9.6944355
  heat_capacity:      29.0646151
  energy:            127.3388245

- temperature:       216.0000000
  free_energy:       125.2445535
  entropy:             9.9680218
  heat_capacity:      29.7578744
  energy:            127.3976462

- temperature:       218.0000000
  free_energy:       125.2243406
  entropy:            10.2454975
  heat_capacity:      30.4557566
  energy:            127.4578591

- temperature:       220.0000000
  free_energy:       125.2035689
  entropy:            10.5268329
  heat_capacity:      31.1580678
  energy:            127.5194722

- temperature:       222.0000000
  free_energy:       125.1822308
  entropy:            10.8119975
  heat_capacity:      31.8646154
  energy:            127.5824942

- temperature:       224.0000000
  free_energy:       125.1603184
  entropy:            11.1009595
  heat_capacity:      32.5752076
  energy:            127.6469334

- temperature:       226.0000000
  free_energy:       125.1378244
  entropy:            11.3936867
  heat_capacity:      33.2896541
  energy:            127.7127976

- temperature:       228.0000000
  free_energy:       125.1147412
  entropy:            11.6901457
  heat_capacity:      34.0077661
  energy:            127.7800944

- temperature:       230.0000000
  free_energy:       125.0910614
  entropy:            11.9903027
  heat_capacity:      34.7293563
  energy:            127.8488310

- temperature:       232.0000000
  free_energy:       125.0667775
  entropy:            12.2941228
  heat_capacity:      35.4542391
  energy:            127.9190140

- temperature:       234.0000000
  free_energy:       125.0418824
  entropy:            12.6015707
  heat_capacity:      36.1822307
  energy:            127.9906500

- temperature:       236.0000000
  free_energy:       125.0163689
  entropy:            12.9126104
  heat_capacity:      36.9131493
  energy:            128.0637449

- temperature:       238.0000000
  free_energy:       124.9902296
  entropy:            13.2272050
  heat_capacity:      37.6468152
  energy:            128.1383044

- temperature:       240.0000000
  free_energy:       124.9634577
  entropy:            13.5453174
  heat_capacity:      38.3830508
  energy:            128.2143339

- temperature:       242.0000000
  free_energy:       124.9360460
  entropy:            13.8669098
  heat_capacity:      39.1216808
  energy:            128.2918382

- temperature:       244.0000000
  free_energy:       124.9079878
  entropy:            14.1919439
  heat_capacity:      39.8625321
  energy:            128.3708221

- temperature:       246.0000000
  free_energy:       124.8792760
  entropy:            14.5203810
  heat_capacity:      40.6054343
  energy:            128.4512897

- temperature:       248.0000000
  free_energy:       124.8499040
  entropy:            14.8521818
  heat_capacity:      41.3502193
  energy:            128.5332451

- temperature:       250.0000000
  free_energy:       124.8198651
  entropy:            15.1873068
  heat_capacity:      42.0967215
  energy:            128.6166917

- temperature:       252.0000000
  free_energy:       124.7891526
  entropy:            15.5257160
  heat_capacity:      42.8447782
  energy:            128.7016330

- temperature:       254.0000000
  free_energy:       124.7577600
  entropy:            15.8673691
  heat_capacity:      43.5942290
  energy:            128.7880718

- temperature:       256.0000000
  free_energy:       124.7256810
  entropy:            16.2122257
  heat_capacity:      44.3449166
  energy:            128.8760107

- temperature:       258.0000000
  free_energy:       124.6929090
  entropy:            16.5602448
  heat_capacity:      45.0966863
  energy:            128.9654522

- temperature:       260.0000000
  free_energy:       124.6594379
  entropy:            16.9113854
  heat_capacity:      45.8493862
  energy:            129.0563981

- temperature:       262.0000000
  free_energy:       124.6252614
  entropy:            17.2656062
  heat_capacity:      46.6028674
  energy:            129.1488502

- temperature:       264.0000000
  free_energy:       124.5903735
  entropy:            17.6228657
  heat_capacity:      47.3569837
  energy:            129.2428100

- temperature:       266.0000000
  free_energy:       124.5547680
  entropy:            17.9831223
  heat_capacity:      48.1115919
  energy:            129.3382785

- temperature:       268.0000000
  free_energy:       124.5184390
  entropy:            18.3463343
  heat_capacity:      48.8665518
  energy:            129.4352566

- temperature:       270.0000000
  free_energy:       124.4813807
  entropy:            18.7124599
  heat_capacity:      49.6217260
  energy:            129.5337449

- temperature:       272.0000000
  free_energy:       124.4435872
  entropy:            19.0814570
  heat_capacity:      50.3769801
  energy:            129.6337436

- temperature:       274.0000000
  free_energy:       124.4050530
  entropy:            19.4532838
  heat_capacity:      51.1321827
  energy:            129.7352527

- temperature:       276.0000000
  free_energy:       124.3657722
  entropy:            19.8278983
  heat_capacity:      51.8872054
  energy:            129.8382722

- temperature:       278.0000000
  free_energy:       124.3257395
  entropy:            20.2052583
  heat_capacity:      52.6419227
  energy:            129.9428014

- temperature:       280.0000000
  free_energy:       124.2849494
  entropy:            20.5853220
  heat_capacity:      53.3962120
  energy:            130.0488396

- temperature:       282.0000000
  free_energy:       124.2433965
  entropy:            20.9680474
  heat_capacity:      54.1499539
  energy:            130.1563858

- temperature:       284.0000000
  free_energy:       124.2010755
  entropy:            21.3533925
  heat_capacity:      54.9030317
  energy:            130.2654389

- temperature:       286.0000000
  free_energy:       124.1579812
  entropy:            21.7413156
  heat_capacity:      55.6553318
  energy:            130.3759975

- temperature:       288.0000000
  free_energy:       124.1141085
  entropy:            22.1317749
  heat_capacity:      56.4067433
  energy:            130.4880597

- temperature:       290.0000000
  free_energy:       124.0694524
  entropy:            22.5247287
  heat_capacity:      57.1571585
  energy:            130.6016238

- temperature:       292.0000000
  free_energy:       124.0240080
  entropy:            22.9201356
  heat_capacity:      57.9064724
  energy:            130.7166876

- temperature:       294.0000000
  free_energy:       123.9777703
  entropy:            23.3179543
  heat_capacity:      58.6545829
  energy:            130.8332488

- temperature:       296.0000000
  free_energy:       123.9307346
  entropy:            23.7181435
  heat_capacity:      59.4013907
  energy:            130.9513050

- temperature:       298.0000000
  free_energy:       123.8828962
  entropy:            24.1206621
  heat_capacity:      60.1467994
  energy:            131.0708535

- temperature:       300.0000000
  free_energy:       123.8342504
  entropy:            24.5254695
  heat_capacity:      60.8907153
  energy:            131.1918912

- temperature:       302.0000000
  free_energy:       123.7847928
  entropy:            24.9325248
  heat_capacity:      61.6330476
  energy:            131.3144153

- temperature:       304.0000000
  free_energy:       123.7345188
  entropy:            25.3417878
  heat_capacity:      62.3737079
  energy:            131.4384223

- temperature:       306.0000000
  free_energy:       123.6834242
  entropy:            25.7532182
  heat_capacity:      63.1126108
  energy:            131.5639089

- temperature:       308.0000000
  free_energy:       123.6315045
  entropy:            26.1667760
  heat_capacity:      63.8496735
  energy:            131.6908715

- temperature:       310.0000000
  free_energy:       123.5787557
  entropy:            26.5824215
  heat_capacity:      64.5848158
  energy:            131.8193064

- temperature:       312.0000000
  free_energy:       123.5251735
  entropy:            27.0001153
  heat_capacity:      65.3179599
  energy:            131.9492095

- temperature:       314.0000000
  free_energy:       123.4707539
  entropy:            27.4198182
  heat_capacity:      66.0490308
  energy:            132.0805768

- temperature:       316.0000000
  free_energy:       123.4154929
  entropy:            27.8414913
  heat_capacity:      66.7779559
  energy:            132.2134042

- temperature:       318.0000000
  free_energy:       123.3593866
  entropy:            28.2650960
  heat_capacity:      67.5046650
  energy:            132.3476872

- temperature:       320.0000000
  free_energy:       123.3024313
  entropy:            28.6905939
  heat_capacity:      68.2290906
  energy:            132.4834213

- temperature:       322.0000000
  free_energy:       123.2446230
  entropy:            29.1179470
  heat_capacity:      68.9511672
  energy:            132.6206020

- temperature:       324.0000000
  free_energy:       123.1859583
  entropy:            29.5471176
  heat_capacity:      69.6708319
  energy:            132.7592244

- temperature:       326.0000000
  free_energy:       123.1264334
  entropy:            29.9780683
  heat_capacity:      70.3880241
  energy:            132.8992836

- temperature:       328.0000000
  free_energy:       123.0660448
  entropy:            30.4107620
  heat_capacity:      71.1026854
  energy:            133.0407748

- temperature:       330.0000000
  free_energy:       123.0047892
  entropy:            30.8451620
  heat_capacity:      71.8147596
  energy:            133.1836927

- temperature:       332.0000000
  free_energy:       122.9426631
  entropy:            31.2812319
  heat_capacity:      72.5241927
  energy:            133.3280320

- temperature:       334.0000000
  free_energy:       122.8796632
  entropy:            31.7189355
  heat_capacity:      73.2309330
  energy:            133.4737876

- temperature:       336.0000000
  free_energy:       122.8157863
  entropy:            32.1582372
  heat_capacity:      73.9349306
  energy:            133.6209540

- temperature:       338.0000000
  free_energy:       122.7510292
  entropy:            32.5991015
  heat_capacity:      74.6361379
  energy:            133.7695255

- temperature:       340.0000000
  free_energy:       122.6853888
  entropy:            33.0414935
  heat_capacity:      75.3345092
  energy:            133.9194966

- temperature:       342.0000000
  free_energy:       122.6188622
  entropy:            33.4853784
  heat_capacity:      76.0300008
  energy:            134.0708616

- temperature:       344.0000000
  free_energy:       122.5514463
  entropy:            33.9307219
  heat_capacity:      76.7225710
  energy:            134.2236147

- temperature:       346.0000000
  free_energy:       122.4831384
  entropy:            34.3774900
  heat_capacity:      77.4121798
  energy:            134.3777499

- temperature:       348.0000000
  free_energy:       122.4139355
  entropy:            34.8256492
  heat_capacity:      78.0987892
  energy:            134.5332614

- temperature:       350.0000000
  free_energy:       122.3438349
  entropy:            35.2751662
  heat_capacity:      78.7823630
  energy:            134.6901430

- temperature:       352.0000000
  free_energy:       122.2728339
  entropy:            35.7260082
  heat_capacity:      79.4628667
  energy:            134.8483888

- temperature:       354.0000000
  free_energy:       122.2009300
  entropy:            36.1781426
  heat_capacity:      80.1402676
  energy:            135.0079924

- temperature:       356.0000000
  free_energy:       122.1281205
  entropy:            36.6315373