<?xml version="1.0" encoding="ISO-8859-1"?>
<modeling>
 <generator>
  <i name="program" type="string">vasp </i>
  <i name="version" type="string">5.4.4.18Apr17-6-g9f103f2a35  </i>
  <i name="subversion" type="string">(build Mar 12 2022 03:36:41) complex            parallel </i>
  <i name="platform" type="string">IFC19.0.3.199_CrayMPICH7.7.19 </i>
  <i name="date" type="string">2022 12 02 </i>
  <i name="time" type="string">11:47:14 </i>
 </generator>
 <incar>
  <i type="string" name="PREC">accurate</i>
  <i type="int" name="IALGO">    38</i>
  <i type="logical" name="ADDGRID"> T  </i>
  <i type="int" name="IBRION">     8</i>
  <i name="EDIFF">      0.00000001</i>
  <i type="logical" name="LREAL"> F  </i>
  <i type="int" name="ISMEAR">     0</i>
  <i name="SIGMA">      0.06000000</i>
  <i type="logical" name="LWAVE"> F  </i>
  <i type="logical" name="LCHARG"> F  </i>
  <v type="int" name="KPOINT_BSE">    -1     0     0     0</v>
 </incar>
 <structure name="primitive_cell" >
  <crystal>
   <varray name="basis" >
    <v>       1.86541820       0.00000000       1.79499968 </v>
    <v>      -1.86541820       0.00000000       1.79499968 </v>
    <v>       0.00000000      -1.86541820      -1.79499968 </v>
   </varray>
   <i name="volume">     12.49242612 </i>
   <varray name="rec_basis" >
    <v>       0.26803641      -0.26803641       0.27855158 </v>
    <v>      -0.26803641      -0.26803641       0.27855158 </v>
    <v>       0.00000000      -0.53607282       0.00000000 </v>
   </varray>
  </crystal>
  <varray name="positions" >
   <v>      -0.25000000       0.25000000      -0.50000000 </v>
   <v>      -0.50000000      -0.50000000       0.00000000 </v>
  </varray>
 </structure>
 <varray name="primitive_index" >
  <v type="int" >        1 </v>
  <v type="int" >       11 </v>
 </varray>
 <kpoints>
  <generation param="Gamma">
   <v type="int" name="divisions">       4        4        4 </v>
   <v name="usershift">      0.00000000       0.00000000       0.00000000 </v>
   <v name="genvec1">      0.25000000       0.00000000       0.00000000 </v>
   <v name="genvec2">      0.00000000       0.25000000       0.00000000 </v>
   <v name="genvec3">      0.00000000       0.00000000       0.25000000 </v>
   <v name="shift">      0.00000000       0.00000000       0.00000000 </v>
  </generation>
  <varray name="kpointlist" >
   <v>       0.00000000       0.00000000       0.00000000 </v>
   <v>       0.25000000       0.00000000       0.00000000 </v>
   <v>       0.50000000       0.00000000       0.00000000 </v>
   <v>       0.25000000       0.25000000       0.00000000 </v>
   <v>       0.50000000       0.25000000       0.00000000 </v>
   <v>       0.50000000       0.50000000       0.00000000 </v>
   <v>       0.00000000       0.00000000       0.25000000 </v>
   <v>       0.25000000       0.00000000       0.25000000 </v>
   <v>       0.50000000       0.00000000       0.25000000 </v>
   <v>       0.25000000       0.25000000       0.25000000 </v>
   <v>       0.50000000       0.25000000       0.25000000 </v>
   <v>       0.50000000       0.50000000       0.25000000 </v>
   <v>       0.00000000       0.00000000       0.50000000 </v>
   <v>       0.25000000       0.00000000       0.50000000 </v>
   <v>       0.50000000       0.00000000       0.50000000 </v>
   <v>       0.25000000       0.25000000       0.50000000 </v>
   <v>       0.50000000       0.25000000       0.50000000 </v>
   <v>       0.50000000       0.50000000       0.50000000 </v>
  </varray>
  <varray name="weights" >
   <v>       0.01562500 </v>
   <v>       0.06250000 </v>
   <v>       0.03125000 </v>
   <v>       0.06250000 </v>
   <v>       0.06250000 </v>
   <v>       0.01562500 </v>
   <v>       0.03125000 </v>
   <v>       0.12500000 </v>
   <v>       0.06250000 </v>
   <v>       0.12500000 </v>
   <v>       0.12500000 </v>
   <v>       0.03125000 </v>
   <v>       0.01562500 </v>
   <v>       0.06250000 </v>
   <v>       0.03125000 </v>
   <v>       0.06250000 </v>
   <v>       0.06250000 </v>
   <v>       0.01562500 </v>
  </varray>
 </kpoints>
 <parameters>
  <separator name="general" >
   <i type="string" name="SYSTEM">unknown system</i>
   <i type="logical" name="LCOMPAT"> F  </i>
  </separator>
  <separator name="electronic" >
   <i type="string" name="PREC">accura</i>
   <i name="ENMAX">    400.00000000</i>
   <i name="ENAUG">    644.87300000</i>
   <i name="EDIFF">      0.00000001</i>
   <i type="int" name="IALGO">    38</i>
   <i type="int" name="IWAVPR">    11</i>
   <i type="int" name="NBANDS">   192</i>
   <i name="NELECT">    256.00000000</i>
   <i type="int" name="TURBO">     0</i>
   <i type="int" name="IRESTART">     0</i>
   <i type="int" name="NREBOOT">     0</i>
   <i type="int" name="NMIN">     0</i>
   <i name="EREF">      0.00000000</i>
   <separator name="electronic smearing" >
    <i type="int" name="ISMEAR">     0</i>
    <i name="SIGMA">      0.06000000</i>
    <i name="KSPACING">      0.50000000</i>
    <i type="logical" name="KGAMMA"> T  </i>
   </separator>
   <separator name="electronic projectors" >
    <i type="logical" name="LREAL"> F  </i>
    <v name="ROPT">      0.00000000</v>
    <i type="int" name="LMAXPAW">  -100</i>
    <i type="int" name="LMAXMIX">     2</i>
    <i type="logical" name="NLSPLINE"> F  </i>
   </separator>
   <separator name="electronic startup" >
    <i type="int" name="ISTART">     0</i>
    <i type="int" name="ICHARG">     2</i>
    <i type="int" name="INIWAV">     1</i>
   </separator>
   <separator name="electronic spin" >
    <i type="int" name="ISPIN">     1</i>
    <i type="logical" name="LNONCOLLINEAR"> F  </i>
    <v name="MAGMOM">      1.00000000      1.00000000      1.00000000      1.00000000      1.00000000      1.00000000      1.00000000      1.00000000      1.00000000      1.00000000      1.00000000      1.00000000      1.00000000      1.00000000      1.00000000      1.00000000      1.00000000      1.00000000      1.00000000      1.00000000
      1.00000000      1.00000000      1.00000000      1.00000000      1.00000000      1.00000000      1.00000000      1.00000000      1.00000000      1.00000000      1.00000000      1.00000000      1.00000000      1.00000000      1.00000000      1.00000000      1.00000000      1.00000000      1.00000000      1.00000000
      1.00000000      1.00000000      1.00000000      1.00000000      1.00000000      1.00000000      1.00000000      1.00000000      1.00000000      1.00000000      1.00000000      1.00000000      1.00000000      1.00000000      1.00000000      1.00000000      1.00000000      1.00000000      1.00000000      1.00000000
      1.00000000      1.00000000      1.00000000      1.00000000</v>
    <i name="NUPDOWN">     -1.00000000</i>
    <i type="logical" name="LSORBIT"> F  </i>
    <v name="SAXIS">      0.00000000      0.00000000      1.00000000</v>
    <i type="logical" name="LSPIRAL"> F  </i>
    <v name="QSPIRAL">      0.00000000      0.00000000      0.00000000</v>
    <i type="logical" name="LZEROZ"> F  </i>
   </separator>
   <separator name="electronic exchange-correlation" >
    <i type="logical" name="LASPH"> F  </i>
    <i type="logical" name="LMETAGGA"> F  </i>
   </separator>
   <separator name="electronic convergence" >
    <i type="int" name="NELM">    60</i>
    <i type="int" name="NELMDL">     0</i>
    <i type="int" name="NELMIN">     2</i>
    <i name="ENINI">    400.00000000</i>
    <separator name="electronic convergence detail" >
     <i type="logical" name="LDIAG"> T  </i>
     <i type="logical" name="LSUBROT"> F  </i>
     <i name="WEIMIN">      0.00100000</i>
     <i name="EBREAK">      0.00000000</i>
     <i name="DEPER">      0.30000000</i>
     <i type="int" name="NRMM">     4</i>
     <i name="TIME">      0.40000000</i>
    </separator>
   </separator>
   <separator name="electronic mixer" >
    <i name="AMIX">      0.40000000</i>
    <i name="BMIX">      1.00000000</i>
    <i name="AMIN">      0.10000000</i>
    <i name="AMIX_MAG">      1.60000000</i>
    <i name="BMIX_MAG">      1.00000000</i>
    <separator name="electronic mixer details" >
     <i type="int" name="IMIX">     4</i>
     <i type="logical" name="MIXFIRST"> F  </i>
     <i type="int" name="MAXMIX">   -45</i>
     <i name="WC">    100.00000000</i>
     <i type="int" name="INIMIX">     1</i>
     <i type="int" name="MIXPRE">     1</i>
     <i type="int" name="MREMOVE">     5</i>
    </separator>
   </separator>
   <separator name="electronic dipolcorrection" >
    <i type="logical" name="LDIPOL"> F  </i>
    <i type="logical" name="LMONO"> F  </i>
    <i type="int" name="IDIPOL">     0</i>
    <i name="EPSILON">      1.00000000</i>
    <v name="DIPOL">   -100.00000000   -100.00000000   -100.00000000</v>
    <i name="EFIELD">      0.00000000</i>
   </separator>
  </separator>
  <separator name="grids" >
   <i type="int" name="NGX">    50</i>
   <i type="int" name="NGY">    50</i>
   <i type="int" name="NGZ">    48</i>
   <i type="int" name="NGXF">   100</i>
   <i type="int" name="NGYF">   100</i>
   <i type="int" name="NGZF">    96</i>
   <i type="logical" name="ADDGRID"> T  </i>
  </separator>
  <separator name="ionic" >
   <i type="int" name="NSW">     1</i>
   <i type="int" name="IBRION">     8</i>
   <i type="int" name="MDALGO">     0</i>
   <i type="int" name="ISIF">     2</i>
   <i name="PSTRESS">      0.00000000</i>
   <i name="EDIFFG">      0.00000010</i>
   <i type="int" name="NFREE">     0</i>
   <i name="POTIM">      0.50000000</i>
   <i name="SMASS">     -3.00000000</i>
   <i name="SCALEE">      1.00000000</i>
  </separator>
  <separator name="ionic md" >
   <i name="TEBEG">      0.00010000</i>
   <i name="TEEND">      0.00010000</i>
   <i type="int" name="NBLOCK">     1</i>
   <i type="int" name="KBLOCK">     1</i>
   <i type="int" name="NPACO">   256</i>
   <i name="APACO">     16.00000000</i>
  </separator>
  <separator name="symmetry" >
   <i type="int" name="ISYM">     2</i>
   <i name="SYMPREC">      0.00001000</i>
  </separator>
  <separator name="dos" >
   <i type="int" name="LORBIT">     0</i>
   <v name="RWIGS">     -1.00000000</v>
   <i type="int" name="NEDOS">   301</i>
   <i name="EMIN">     10.00000000</i>
   <i name="EMAX">    -10.00000000</i>
   <i name="EFERMI">      0.00000000</i>
  </separator>
  <separator name="writing" >
   <i type="int" name="NWRITE">     2</i>
   <i type="logical" name="LWAVE"> F  </i>
   <i type="logical" name="LDOWNSAMPLE"> F  </i>
   <i type="logical" name="LCHARG"> F  </i>
   <i type="logical" name="LPARD"> F  </i>
   <i type="logical" name="LVTOT"> F  </i>
   <i type="logical" name="LVHAR"> F  </i>
   <i type="logical" name="LELF"> F  </i>
   <i type="logical" name="LOPTICS"> F  </i>
   <v name="STM">      0.00000000      0.00000000      0.00000000      0.00000000      0.00000000      0.00000000      0.00000000</v>
  </separator>
  <separator name="performance" >
   <i type="int" name="NPAR">    32</i>
   <i type="int" name="NSIM">     4</i>
   <i type="int" name="NBLK">    -1</i>
   <i type="logical" name="LPLANE"> T  </i>
   <i type="logical" name="LSCALAPACK"> T  </i>
   <i type="logical" name="LSCAAWARE"> F  </i>
   <i type="logical" name="LSCALU"> F  </i>
   <i type="logical" name="LASYNC"> F  </i>
   <i type="logical" name="LORBITALREAL"> F  </i>
  </separator>
  <separator name="miscellaneous" >
   <i type="int" name="IDIOT">     3</i>
   <i type="int" name="ISPECIAL">     0</i>
   <i type="logical" name="LMUSIC"> F  </i>
   <v name="POMASS">     12.01100000</v>
   <v name="DARWINR">      0.00000000</v>
   <v name="DARWINV">      1.00000000</v>
   <i type="logical" name="LCORR"> T  </i>
  </separator>
  <i type="logical" name="GGA_COMPAT"> T  </i>
  <i type="logical" name="LBERRY"> F  </i>
  <i type="int" name="ICORELEVEL">     0</i>
  <i type="logical" name="LDAU"> F  </i>
  <i type="int" name="I_CONSTRAINED_M">     0</i>
  <separator name="electronic exchange-correlation" >
   <i type="string" name="GGA">--</i>
   <i type="int" name="VOSKOWN">     0</i>
   <i type="logical" name="LHFCALC"> F  </i>
   <i type="string" name="PRECFOCK"></i>
   <i type="logical" name="LSYMGRAD"> F  </i>
   <i type="logical" name="LHFONE"> F  </i>
   <i type="logical" name="LRHFCALC"> F  </i>
   <i type="logical" name="LTHOMAS"> F  </i>
   <i type="logical" name="LMODELHF"> F  </i>
   <i name="ENCUT4O">     -1.00000000</i>
   <i type="int" name="EXXOEP">     0</i>
   <i type="int" name="FOURORBIT">     0</i>
   <i name="AEXX">      0.00000000</i>
   <i name="HFALPHA">      0.00000000</i>
   <i name="MCALPHA">      0.00000000</i>
   <i name="ALDAX">      1.00000000</i>
   <i name="AGGAX">      1.00000000</i>
   <i name="ALDAC">      1.00000000</i>
   <i name="AGGAC">      1.00000000</i>
   <i type="int" name="NKREDX">     1</i>
   <i type="int" name="NKREDY">     1</i>
   <i type="int" name="NKREDZ">     1</i>
   <i type="logical" name="SHIFTRED"> F  </i>
   <i type="logical" name="ODDONLY"> F  </i>
   <i type="logical" name="EVENONLY"> F  </i>
   <i type="int" name="LMAXFOCK">     0</i>
   <i type="int" name="NMAXFOCKAE">     0</i>
   <i type="logical" name="LFOCKAEDFT"> F  </i>
   <i name="HFSCREEN">      0.00000000</i>
   <i name="HFSCREENC">      0.00000000</i>
   <i type="int" name="NBANDSGWLOW">     0</i>
  </separator>
  <separator name="vdW DFT" >
   <i type="logical" name="LUSE_VDW"> F  </i>
   <i name="Zab_VDW">     -0.84910000</i>
   <i name="PARAM1">      0.12340000</i>
   <i name="PARAM2">      1.00000000</i>
   <i name="PARAM3">      0.00000000</i>
  </separator>
  <separator name="model GW" >
   <i type="int" name="MODEL_GW">     0</i>
   <i name="MODEL_EPS0">      3.74772783</i>
   <i name="MODEL_ALPHA">      1.00000000</i>
  </separator>
  <separator name="linear response parameters" >
   <i type="logical" name="LEPSILON"> F  </i>
   <i type="logical" name="LRPA"> F  </i>
   <i type="logical" name="LNABLA"> F  </i>
   <i type="logical" name="LVEL"> F  </i>
   <i type="int" name="KINTER">     0</i>
   <i name="CSHIFT">      0.10000000</i>
   <i name="OMEGAMAX">     -1.00000000</i>
   <i name="DEG_THRESHOLD">      0.00200000</i>
   <i name="RTIME">     -0.10000000</i>
   <i name="WPLASMAI">      0.00000000</i>
   <v name="DFIELD">      0.00000000      0.00000000      0.00000000</v>
   <v name="WPLASMA">      0.00000000      0.00000000      0.00000000      0.00000000      0.00000000      0.00000000      0.00000000      0.00000000      0.00000000</v>
  </separator>
  <separator name="orbital magnetization" >
   <i type="logical" name="NUCIND"> F  </i>
   <v name="MAGPOS">      0.00000000      0.00000000      0.00000000</v>
   <i type="logical" name="LNICSALL"> T  </i>
   <i type="logical" name="ORBITALMAG"> F  </i>
   <i type="logical" name="LMAGBLOCH"> F  </i>
   <i type="logical" name="LCHIMAG"> F  </i>
   <i type="logical" name="LGAUGE"> T  </i>
   <i type="int" name="MAGATOM">     0</i>
   <v name="MAGDIPOL">      0.00000000      0.00000000      0.00000000</v>
   <v name="AVECCONST">      0.00000000      0.00000000      0.00000000</v>
  </separator>
  <separator name="response functions" >
   <i type="logical" name="LADDER"> F  </i>
   <i type="logical" name="LRPAFORCE"> F  </i>
   <i type="logical" name="LFXC"> F  </i>
   <i type="logical" name="LHARTREE"> T  </i>
   <i type="int" name="IBSE">     0</i>
   <v type="int" name="KPOINT">    -1     0     0     0</v>
   <i type="logical" name="LTCTE"> F  </i>
   <i type="logical" name="LTETE"> F  </i>
   <i type="logical" name="LTRIPLET"> F  </i>
   <i type="logical" name="LFXCEPS"> F  </i>
   <i type="logical" name="LFXHEG"> F  </i>
   <i type="int" name="NATURALO">     2</i>
   <i type="logical" name="L2ORDER"> F  </i>
   <i type="logical" name="LMP2LT"> F  </i>
   <i type="logical" name="LUSEW"> F  </i>
   <i name="ENCUTGW">     -2.00000000</i>
   <i name="ENCUTGWSOFT">     -2.00000000</i>
   <i name="ENCUTLF">     -1.00000000</i>
   <i type="int" name="LMAXMP2">    -1</i>
   <i name="SCISSOR">      0.00000000</i>
   <i type="int" name="NOMEGA">     0</i>
   <i type="int" name="NOMEGAR">     0</i>
   <i type="int" name="NBANDSGW">    -1</i>
   <i type="int" name="NBANDSO">    -1</i>
   <i type="int" name="NBANDSV">    -1</i>
   <i type="int" name="NELM">     1</i>
   <i type="int" name="NELMHF">     1</i>
   <i type="int" name="DIM">     3</i>
   <i type="int" name="ANTIRES">     0</i>
   <i name="OMEGAMAX">    -30.00000000</i>
   <i name="OMEGAMIN">    -30.00000000</i>
   <i name="OMEGATL">   -200.00000000</i>
   <i type="int" name="OMEGAGRID">   140</i>
   <i name="CSHIFT">     -0.10000000</i>
   <i type="logical" name="SELFENERGY"> F  </i>
   <i type="logical" name="LSPECTRAL"> F  </i>
   <i type="logical" name="LSPECTRALGW"> F  </i>
   <i type="logical" name="LSINGLES"> F  </i>
   <i type="logical" name="LFERMIGW"> F  </i>
   <i type="logical" name="ODDONLYGW"> F  </i>
   <i type="logical" name="EVENONLYGW"> F  </i>
   <i type="int" name="NKREDLFX">     1</i>
   <i type="int" name="NKREDLFY">     1</i>
   <i type="int" name="NKREDLFZ">     1</i>
   <i type="int" name="MAXMEM">  2800</i>
   <i type="int" name="TELESCOPE">     0</i>
   <i type="int" name="TAUPAR">     1</i>
   <i type="int" name="OMEGAPAR">    -1</i>
   <i name="LAMBDA">      1.00000000</i>
  </separator>
  <separator name="External order field" >
   <i name="OFIELD_KAPPA">      0.00000000</i>
   <v name="OFIELD_K">      0.00000000      0.00000000      0.00000000</v>
   <i name="OFIELD_Q6_NEAR">      0.00000000</i>
   <i name="OFIELD_Q6_FAR">      0.00000000</i>
   <i name="OFIELD_A">      0.00000000</i>
  </separator>
 </parameters>
 <atominfo>
  <atoms>      64 </atoms>
  <types>       1 </types>
  <array name="atoms" >
   <dimension dim="1">ion</dimension>
   <field type="string">element</field>
   <field type="int">atomtype</field>
   <set>
    <rc><c>C </c><c>   1</c></rc>
    <rc><c>C </c><c>   1</c></rc>
    <rc><c>C </c><c>   1</c></rc>
    <rc><c>C </c><c>   1</c></rc>
    <rc><c>C </c><c>   1</c></rc>
    <rc><c>C </c><c>   1</c></rc>
    <rc><c>C </c><c>   1</c></rc>
    <rc><c>C </c><c>   1</c></rc>
    <rc><c>C </c><c>   1</c></rc>
    <rc><c>C </c><c>   1</c></rc>
    <rc><c>C </c><c>   1</c></rc>
    <rc><c>C </c><c>   1</c></rc>
    <rc><c>C </c><c>   1</c></rc>
    <rc><c>C </c><c>   1</c></rc>
    <rc><c>C </c><c>   1</c></rc>
    <rc><c>C </c><c>   1</c></rc>
    <rc><c>C </c><c>   1</c></rc>
    <rc><c>C </c><c>   1</c></rc>
    <rc><c>C </c><c>   1</c></rc>
    <rc><c>C </c><c>   1</c></rc>
    <rc><c>C </c><c>   1</c></rc>
    <rc><c>C </c><c>   1</c></rc>
    <rc><c>C </c><c>   1</c></rc>
    <rc><c>C </c><c>   1</c></rc>
    <rc><c>C </c><c>   1</c></rc>
    <rc><c>C </c><c>   1</c></rc>
    <rc><c>C </c><c>   1</c></rc>
    <rc><c>C </c><c>   1</c></rc>
    <rc><c>C </c><c>   1</c></rc>
    <rc><c>C </c><c>   1</c></rc>
    <rc><c>C </c><c>   1</c></rc>
    <rc><c>C </c><c>   1</c></rc>
    <rc><c>C </c><c>   1</c></rc>
    <rc><c>C </c><c>   1</c></rc>
    <rc><c>C </c><c>   1</c></rc>
    <rc><c>C </c><c>   1</c></rc>
    <rc><c>C </c><c>   1</c></rc>
    <rc><c>C </c><c>   1</c></rc>
    <rc><c>C </c><c>   1</c></rc>
    <rc><c>C </c><c>   1</c></rc>
    <rc><c>C </c><c>   1</c></rc>
    <rc><c>C </c><c>   1</c></rc>
    <rc><c>C </c><c>   1</c></rc>
    <rc><c>C </c><c>   1</c></rc>
    <rc><c>C </c><c>   1</c></rc>
    <rc><c>C </c><c>   1</c></rc>
    <rc><c>C </c><c>   1</c></rc>
    <rc><c>C </c><c>   1</c></rc>
    <rc><c>C </c><c>   1</c></rc>
    <rc><c>C </c><c>   1</c></rc>
    <rc><c>C </c><c>   1</c></rc>
    <rc><c>C </c><c>   1</c></rc>
    <rc><c>C </c><c>   1</c></rc>
    <rc><c>C </c><c>   1</c></rc>
    <rc><c>C </c><c>   1</c></rc>
    <rc><c>C </c><c>   1</c></rc>
    <rc><c>C </c><c>   1</c></rc>
    <rc><c>C </c><c>   1</c></rc>
    <rc><c>C </c><c>   1</c></rc>
    <rc><c>C </c><c>   1</c></rc>
    <rc><c>C </c><c>   1</c></rc>
    <rc><c>C </c><c>   1</c></rc>
    <rc><c>C </c><c>   1</c></rc>
    <rc><c>C </c><c>   1</c></rc>
   </set>
  </array>
  <array name="atomtypes" >
   <dimension dim="1">type</dimension>
   <field type="int">atomspertype</field>
   <field type="string">element</field>
   <field>mass</field>
   <field>valence</field>
   <field type="string">pseudopotential</field>
   <set>
    <rc><c>  64</c><c>C </c><c>     12.01100000</c><c>      4.00000000</c><c> PAW_PBE C 08Apr2002                    </c></rc>
   </set>
  </array>
 </atominfo>
 <structure name="initialpos" >
  <crystal>
   <varray name="basis" >
    <v>       7.46167279       0.00000000       0.00000000 </v>
    <v>       0.00000000       7.46167279       0.00000000 </v>
    <v>       0.00000000       0.00000000       7.17999872 </v>
   </varray>
   <i name="volume">    399.75763571 </i>
   <varray name="rec_basis" >
    <v>       0.13401821       0.00000000       0.00000000 </v>
    <v>       0.00000000       0.13401821       0.00000000 </v>
    <v>       0.00000000       0.00000000       0.13927579 </v>
   </varray>
  </crystal>
  <varray name="positions" >
   <v>       0.12500000       0.37500000       0.12500000 </v>
   <v>       0.62500000       0.37500000       0.12500000 </v>
   <v>       0.12500000       0.87500000       0.12500000 </v>
   <v>       0.62500000       0.87500000       0.12500000 </v>
   <v>       0.12500000       0.37500000       0.62500000 </v>
   <v>       0.62500000       0.37500000       0.62500000 </v>
   <v>       0.12500000       0.87500000       0.62500000 </v>
   <v>       0.62500000       0.87500000       0.62500000 </v>
   <v>       0.00000000       0.00000000       0.25000000 </v>
   <v>       0.50000000       0.00000000       0.25000000 </v>
   <v>       0.00000000       0.50000000       0.25000000 </v>
   <v>       0.50000000       0.50000000       0.25000000 </v>
   <v>       0.00000000       0.00000000       0.75000000 </v>
   <v>       0.50000000       0.00000000       0.75000000 </v>
   <v>       0.00000000       0.50000000       0.75000000 </v>
   <v>       0.50000000       0.50000000       0.75000000 </v>
   <v>       0.12500000       0.12500000       0.37500000 </v>
   <v>       0.62500000       0.12500000       0.37500000 </v>
   <v>       0.12500000       0.62500000       0.37500000 </v>
   <v>       0.62500000       0.62500000       0.37500000 </v>
   <v>       0.12500000       0.12500000       0.87500000 </v>
   <v>       0.62500000       0.12500000       0.87500000 </v>
   <v>       0.12500000       0.62500000       0.87500000 </v>
   <v>       0.62500000       0.62500000       0.87500000 </v>
   <v>       0.00000000       0.25000000       0.00000000 </v>
   <v>       0.50000000       0.25000000       0.00000000 </v>
   <v>       0.00000000       0.75000000       0.00000000 </v>
   <v>       0.50000000       0.75000000       0.00000000 </v>
   <v>       0.00000000       0.25000000       0.50000000 </v>
   <v>       0.50000000       0.25000000       0.50000000 </v>
   <v>       0.00000000       0.75000000       0.50000000 </v>
   <v>       0.50000000       0.75000000       0.50000000 </v>
   <v>       0.37500000       0.37500000       0.37500000 </v>
   <v>       0.87500000       0.37500000       0.37500000 </v>
   <v>       0.37500000       0.87500000       0.37500000 </v>
   <v>       0.87500000       0.87500000       0.37500000 </v>
   <v>       0.37500000       0.37500000       0.87500000 </v>
   <v>       0.87500000       0.37500000       0.87500000 </v>
   <v>       0.37500000       0.87500000       0.87500000 </v>
   <v>       0.87500000       0.87500000       0.87500000 </v>
   <v>       0.25000000       0.00000000       0.00000000 </v>
   <v>       0.75000000       0.00000000       0.00000000 </v>
   <v>       0.25000000       0.50000000       0.00000000 </v>
   <v>       0.75000000       0.50000000       0.00000000 </v>
   <v>       0.25000000       0.00000000       0.50000000 </v>
   <v>       0.75000000       0.00000000       0.50000000 </v>
   <v>       0.25000000       0.50000000       0.50000000 </v>
   <v>       0.75000000       0.50000000       0.50000000 </v>
   <v>       0.37500000       0.12500000       0.12500000 </v>
   <v>       0.87500000       0.12500000       0.12500000 </v>
   <v>       0.37500000       0.62500000       0.12500000 </v>
   <v>       0.87500000       0.62500000       0.12500000 </v>
   <v>       0.37500000       0.12500000       0.62500000 </v>
   <v>       0.87500000       0.12500000       0.62500000 </v>
   <v>       0.37500000       0.62500000       0.62500000 </v>
   <v>       0.87500000       0.62500000       0.62500000 </v>
   <v>       0.25000000       0.25000000       0.25000000 </v>
   <v>       0.75000000       0.25000000       0.25000000 </v>
   <v>       0.25000000       0.75000000       0.25000000 </v>
   <v>       0.75000000       0.75000000       0.25000000 </v>
   <v>       0.25000000       0.25000000       0.75000000 </v>
   <v>       0.75000000       0.25000000       0.75000000 </v>
   <v>       0.25000000       0.75000000       0.75000000 </v>
   <v>       0.75000000       0.75000000       0.75000000 </v>
  </varray>
 </structure>
 <calculation>
  <scstep>
   <time name="dav">   11.76   11.77</time>
   <time name="total">   11.89   12.05</time>
   <energy>
    <i name="alphaZ">    834.86273165 </i>
    <i name="ewald"> -10784.98221272 </i>
    <i name="hartreedc">   -632.34950867 </i>
    <i name="XCdc">    896.00818348 </i>
    <i name="pawpsdc">   2421.21235816 </i>
    <i name="pawaedc">  -2494.84305711 </i>
    <i name="eentropy">     -0.01481110 </i>
    <i name="bandstr">    842.84488097 </i>
    <i name="atom">   9416.14232778 </i>
    <i name="e_fr_energy">    498.88089243 </i>
    <i name="e_wo_entrp">    498.89570353 </i>
    <i name="e_0_energy">    498.88829798 </i>
   </energy>
  </scstep>
  <scstep>
   <time name="dav">   14.72   14.72</time>
   <time name="total">   14.72   14.73</time>
   <energy>
    <i name="e_fr_energy">   -548.11472405 </i>
    <i name="e_wo_entrp">   -548.11472405 </i>
    <i name="e_0_energy">   -548.11472405 </i>
   </energy>
  </scstep>
  <scstep>
   <time name="dav">   14.91   14.92</time>
   <time name="total">   14.92   14.92</time>
   <energy>
    <i name="e_fr_energy">   -591.29037552 </i>
    <i name="e_wo_entrp">   -591.29037552 </i>
    <i name="e_0_energy">   -591.29037552 </i>
   </energy>
  </scstep>
  <scstep>
   <time name="dav">   15.18   15.18</time>
   <time name="total">   15.18   15.18</time>
   <energy>
    <i name="e_fr_energy">   -591.83570544 </i>
    <i name="e_wo_entrp">   -591.83570544 </i>
    <i name="e_0_energy">   -591.83570544 </i>
   </energy>
  </scstep>
  <scstep>
   <time name="dav">   13.90   13.90</time>
   <time name="total">   14.40   14.40</time>
   <energy>
    <i name="e_fr_energy">   -591.84478248 </i>
    <i name="e_wo_entrp">   -591.84478248 </i>
    <i name="e_0_energy">   -591.84478248 </i>
   </energy>
  </scstep>
  <scstep>
   <time name="dav">   13.60   13.60</time>
   <time name="total">   14.21   14.21</time>
   <energy>
    <i name="e_fr_energy">   -580.79891903 </i>
    <i name="e_wo_entrp">   -580.79891903 </i>
    <i name="e_0_energy">   -580.79891903 </i>
   </energy>
  </scstep>
  <scstep>
   <time name="dav">   13.47   13.47</time>
   <time name="total">   14.08   14.09</time>
   <energy>
    <i name="e_fr_energy">   -577.05879488 </i>
    <i name="e_wo_entrp">   -577.05879488 </i>
    <i name="e_0_energy">   -577.05879488 </i>
   </energy>
  </scstep>
  <scstep>
   <time name="dav">   14.52   14.52</time>
   <time name="total">   15.13   15.13</time>
   <energy>
    <i name="e_fr_energy">   -577.10863440 </i>
    <i name="e_wo_entrp">   -577.10863440 </i>
    <i name="e_0_energy">   -577.10863440 </i>
   </energy>
  </scstep>
  <scstep>
   <time name="dav">   14.33   14.33</time>
   <time name="total">   14.95   14.95</time>
   <energy>
    <i name="e_fr_energy">   -577.11078707 </i>
    <i name="e_wo_entrp">   -577.11078707 </i>
    <i name="e_0_energy">   -577.11078707 </i>
   </energy>
  </scstep>
  <scstep>
   <time name="dav">   14.27   14.27</time>
   <time name="total">   14.89   14.89</time>
   <energy>
    <i name="e_fr_energy">   -577.11124932 </i>
    <i name="e_wo_entrp">   -577.11124932 </i>
    <i name="e_0_energy">   -577.11124932 </i>
   </energy>
  </scstep>
  <scstep>
   <time name="dav">   14.88   14.88</time>
   <time name="total">   15.50   15.50</time>
   <energy>
    <i name="e_fr_energy">   -577.11125205 </i>
    <i name="e_wo_entrp">   -577.11125205 </i>
    <i name="e_0_energy">   -577.11125205 </i>
   </energy>
  </scstep>
  <scstep>
   <time name="dav">   14.74   14.74</time>
   <time name="total">   15.36   15.37</time>
   <energy>
    <i name="e_fr_energy">   -577.11125245 </i>
    <i name="e_wo_entrp">   -577.11125245 </i>
    <i name="e_0_energy">   -577.11125245 </i>
   </energy>
  </scstep>
  <scstep>
   <time name="dav">   12.62   12.62</time>
   <time name="total">   13.23   13.24</time>
   <energy>
    <i name="e_fr_energy">   -577.11125259 </i>
    <i name="e_wo_entrp">   -577.11125259 </i>
    <i name="e_0_energy">   -577.11125259 </i>
   </energy>
  </scstep>
  <scstep>
   <time name="dav">   11.46   11.46</time>
   <time name="total">   11.57   11.57</time>
   <energy>
    <i name="alphaZ">    834.86273165 </i>
    <i name="ewald"> -10784.98221272 </i>
    <i name="hartreedc">   -886.59534573 </i>
    <i name="XCdc">    919.80390026 </i>
    <i name="pawpsdc">   3842.22341882 </i>
    <i name="pawaedc">  -3921.34525298 </i>
    <i name="eentropy">     -0.00000000 </i>
    <i name="bandstr">      2.77918034 </i>
    <i name="atom">   9416.14232778 </i>
    <i name="e_fr_energy">   -577.11125259 </i>
    <i name="e_wo_entrp">   -577.11125259 </i>
    <i name="e_0_energy">   -577.11125259 </i>
   </energy>
  </scstep>
  <structure>
   <crystal>
    <varray name="basis" >
     <v>       7.46167279       0.00000000       0.00000000 </v>
     <v>       0.00000000       7.46167279       0.00000000 </v>
     <v>       0.00000000       0.00000000       7.17999872 </v>
    </varray>
    <i name="volume">    399.75763571 </i>
    <varray name="rec_basis" >
     <v>       0.13401821       0.00000000       0.00000000 </v>
     <v>       0.00000000       0.13401821       0.00000000 </v>
     <v>       0.00000000       0.00000000       0.13927579 </v>
    </varray>
   </crystal>
   <varray name="positions" >
    <v>       0.12500000       0.37500000       0.12500000 </v>
    <v>       0.62500000       0.37500000       0.12500000 </v>
    <v>       0.12500000       0.87500000       0.12500000 </v>
    <v>       0.62500000       0.87500000       0.12500000 </v>
    <v>       0.12500000       0.37500000       0.62500000 </v>
    <v>       0.62500000       0.37500000       0.62500000 </v>
    <v>       0.12500000       0.87500000       0.62500000 </v>
    <v>       0.62500000       0.87500000       0.62500000 </v>
    <v>       0.00000000       0.00000000       0.25000000 </v>
    <v>       0.50000000       0.00000000       0.25000000 </v>
    <v>       0.00000000       0.50000000       0.25000000 </v>
    <v>       0.50000000       0.50000000       0.25000000 </v>
    <v>       0.00000000       0.00000000       0.75000000 </v>
    <v>       0.50000000       0.00000000       0.75000000 </v>
    <v>       0.00000000       0.50000000       0.75000000 </v>
    <v>       0.50000000       0.50000000       0.75000000 </v>
    <v>       0.12500000       0.12500000       0.37500000 </v>
    <v>       0.62500000       0.12500000       0.37500000 </v>
    <v>       0.12500000       0.62500000       0.37500000 </v>
    <v>       0.62500000       0.62500000       0.37500000 </v>
    <v>       0.12500000       0.12500000       0.87500000 </v>
    <v>       0.62500000       0.12500000       0.87500000 </v>
    <v>       0.12500000       0.62500000       0.87500000 </v>
    <v>       0.62500000       0.62500000       0.87500000 </v>
    <v>       0.00000000       0.25000000       0.00000000 </v>
    <v>       0.50000000       0.25000000       0.00000000 </v>
    <v>       0.00000000       0.75000000       0.00000000 </v>
    <v>       0.50000000       0.75000000       0.00000000 </v>
    <v>       0.00000000       0.25000000       0.50000000 </v>
    <v>       0.50000000       0.25000000       0.50000000 </v>
    <v>       0.00000000       0.75000000       0.50000000 </v>
    <v>       0.50000000       0.75000000       0.50000000 </v>
    <v>       0.37500000       0.37500000       0.37500000 </v>
    <v>       0.87500000       0.37500000       0.37500000 </v>
    <v>       0.37500000       0.87500000       0.37500000 </v>
    <v>       0.87500000       0.87500000       0.37500000 </v>
    <v>       0.37500000       0.37500000       0.87500000 </v>
    <v>       0.87500000       0.37500000       0.87500000 </v>
    <v>       0.37500000       0.87500000       0.87500000 </v>
    <v>       0.87500000       0.87500000       0.87500000 </v>
    <v>       0.25000000       0.00000000       0.00000000 </v>
    <v>       0.75000000       0.00000000       0.00000000 </v>
    <v>       0.25000000       0.50000000       0.00000000 </v>
    <v>       0.75000000       0.50000000       0.00000000 </v>
    <v>       0.25000000       0.00000000       0.50000000 </v>
    <v>       0.75000000       0.00000000       0.50000000 </v>
    <v>       0.25000000       0.50000000       0.50000000 </v>
    <v>       0.75000000       0.50000000       0.50000000 </v>
    <v>       0.37500000       0.12500000       0.12500000 </v>
    <v>       0.87500000       0.12500000       0.12500000 </v>
    <v>       0.37500000       0.62500000       0.12500000 </v>
    <v>       0.87500000       0.62500000       0.12500000 </v>
    <v>       0.37500000       0.12500000       0.62500000 </v>
    <v>       0.87500000       0.12500000       0.62500000 </v>
    <v>       0.37500000       0.62500000       0.62500000 </v>
    <v>       0.87500000       0.62500000       0.62500000 </v>
    <v>       0.25000000       0.25000000       0.25000000 </v>
    <v>       0.75000000       0.25000000       0.25000000 </v>
    <v>       0.25000000       0.75000000       0.25000000 </v>
    <v>       0.75000000       0.75000000       0.25000000 </v>
    <v>       0.25000000       0.25000000       0.75000000 </v>
    <v>       0.75000000       0.25000000       0.75000000 </v>
    <v>       0.25000000       0.75000000       0.75000000 </v>
    <v>       0.75000000       0.75000000       0.75000000 </v>
   </varray>
  </structure>
  <varray name="forces" >
   <v>      -0.00000000      -0.00000000       0.00000000 </v>
   <v>       0.00000000      -0.00000000       0.00000000 </v>
   <v>       0.00000000      -0.00000000      -0.00000000 </v>
   <v>      -0.00000000       0.00000000       0.00000000 </v>
   <v>       0.00000000      -0.00000000      -0.00000000 </v>
   <v>      -0.00000000       0.00000000       0.00000000 </v>
   <v>      -0.00000000       0.00000000       0.00000000 </v>
   <v>       0.00000000      -0.00000000       0.00000000 </v>
   <v>      -0.00000000       0.00000000       0.00000000 </v>
   <v>       0.00000000       0.00000000      -0.00000000 </v>
   <v>      -0.00000000      -0.00000000       0.00000000 </v>
   <v>      -0.00000000       0.00000000      -0.00000000 </v>
   <v>       0.00000000      -0.00000000      -0.00000000 </v>
   <v>      -0.00000000      -0.00000000       0.00000000 </v>
   <v>       0.00000000       0.00000000      -0.00000000 </v>
   <v>       0.00000000      -0.00000000      -0.00000000 </v>
   <v>      -0.00000000       0.00000000      -0.00000000 </v>
   <v>      -0.00000000       0.00000000      -0.00000000 </v>
   <v>       0.00000000       0.00000000      -0.00000000 </v>
   <v>      -0.00000000      -0.00000000       0.00000000 </v>
   <v>      -0.00000000       0.00000000       0.00000000 </v>
   <v>      -0.00000000       0.00000000       0.00000000 </v>
   <v>       0.00000000      -0.00000000       0.00000000 </v>
   <v>       0.00000000       0.00000000      -0.00000000 </v>
   <v>      -0.00000000      -0.00000000       0.00000000 </v>
   <v>       0.00000000      -0.00000000      -0.00000000 </v>
   <v>       0.00000000       0.00000000       0.00000000 </v>
   <v>      -0.00000000      -0.00000000       0.00000000 </v>
   <v>       0.00000000      -0.00000000      -0.00000000 </v>
   <v>      -0.00000000      -0.00000000       0.00000000 </v>
   <v>       0.00000000      -0.00000000      -0.00000000 </v>
   <v>      -0.00000000       0.00000000      -0.00000000 </v>
   <v>      -0.00000000      -0.00000000      -0.00000000 </v>
   <v>       0.00000000       0.00000000      -0.00000000 </v>
   <v>       0.00000000      -0.00000000      -0.00000000 </v>
   <v>      -0.00000000       0.00000000      -0.00000000 </v>
   <v>       0.00000000      -0.00000000       0.00000000 </v>
   <v>      -0.00000000       0.00000000       0.00000000 </v>
   <v>      -0.00000000       0.00000000       0.00000000 </v>
   <v>       0.00000000      -0.00000000      -0.00000000 </v>
   <v>       0.00000000       0.00000000      -0.00000000 </v>
   <v>      -0.00000000      -0.00000000       0.00000000 </v>
   <v>       0.00000000       0.00000000       0.00000000 </v>
   <v>      -0.00000000      -0.00000000       0.00000000 </v>
   <v>      -0.00000000      -0.00000000       0.00000000 </v>
   <v>       0.00000000       0.00000000      -0.00000000 </v>
   <v>       0.00000000      -0.00000000       0.00000000 </v>
   <v>      -0.00000000       0.00000000      -0.00000000 </v>
   <v>       0.00000000       0.00000000      -0.00000000 </v>
   <v>       0.00000000       0.00000000       0.00000000 </v>
   <v>      -0.00000000      -0.00000000       0.00000000 </v>
   <v>      -0.00000000       0.00000000      -0.00000000 </v>
   <v>      -0.00000000       0.00000000       0.00000000 </v>
   <v>       0.00000000       0.00000000       0.00000000 </v>
   <v>       0.00000000       0.00000000      -0.00000000 </v>
   <v>       0.00000000      -0.00000000       0.00000000 </v>
   <v>      -0.00000000      -0.00000000       0.00000000 </v>
   <v>       0.00000000      -0.00000000      -0.00000000 </v>
   <v>       0.00000000       0.00000000      -0.00000000 </v>
   <v>       0.00000000      -0.00000000       0.00000000 </v>
   <v>       0.00000000      -0.00000000       0.00000000 </v>
   <v>       0.00000000       0.00000000       0.00000000 </v>
   <v>       0.00000000      -0.00000000       0.00000000 </v>
   <v>      -0.00000000       0.00000000       0.00000000 </v>
  </varray>
  <varray name="stress" >
   <v>    -475.52461738       0.00000000       0.00000000 </v>
   <v>       0.00000000    -475.52461738       0.00000000 </v>
   <v>       0.00000000       0.00000000    -166.78302227 </v>
  </varray>
  <energy>
   <i name="e_fr_energy">   -577.11125259 </i>
   <i name="e_wo_entrp">   -577.11125259 </i>
   <i name="e_0_energy">     -0.00000000 </i>
  </energy>
  <kpoints>
   <generation param="Gamma">
    <v type="int" name="divisions">       4        4        4 </v>
    <v name="usershift">      0.00000000       0.00000000       0.00000000 </v>
    <v name="genvec1">      0.25000000       0.00000000       0.00000000 </v>
    <v name="genvec2">      0.00000000       0.25000000       0.00000000 </v>
    <v name="genvec3">      0.00000000       0.00000000       0.25000000 </v>
    <v name="shift">      0.00000000       0.00000000       0.00000000 </v>
   </generation>
   <varray name="kpointlist" >
    <v>       0.00000000       0.00000000       0.00000000 </v>
    <v>       0.25000000       0.00000000       0.00000000 </v>
    <v>       0.50000000       0.00000000       0.00000000 </v>
    <v>       0.00000000       0.25000000       0.00000000 </v>
    <v>       0.25000000       0.25000000       0.00000000 </v>
    <v>       0.50000000       0.25000000       0.00000000 </v>
    <v>       0.00000000       0.50000000       0.00000000 </v>
    <v>       0.25000000       0.50000000       0.00000000 </v>
    <v>       0.50000000       0.50000000       0.00000000 </v>
    <v>       0.00000000       0.00000000       0.25000000 </v>
    <v>       0.25000000       0.00000000       0.25000000 </v>
    <v>       0.50000000       0.00000000       0.25000000 </v>
    <v>       0.00000000       0.25000000       0.25000000 </v>
    <v>       0.25000000       0.25000000       0.25000000 </v>
    <v>       0.50000000       0.25000000       0.25000000 </v>
    <v>       0.00000000       0.50000000       0.25000000 </v>
    <v>       0.25000000       0.50000000       0.25000000 </v>
    <v>       0.50000000       0.50000000       0.25000000 </v>
    <v>       0.00000000      -0.25000000       0.25000000 </v>
    <v>       0.25000000      -0.25000000       0.25000000 </v>
    <v>       0.50000000      -0.25000000       0.25000000 </v>
    <v>       0.00000000       0.00000000       0.50000000 </v>
    <v>       0.25000000       0.00000000       0.50000000 </v>
    <v>       0.50000000       0.00000000       0.50000000 </v>
    <v>       0.00000000       0.25000000       0.50000000 </v>
    <v>       0.25000000       0.25000000       0.50000000 </v>
    <v>       0.50000000       0.25000000       0.50000000 </v>
    <v>       0.00000000       0.50000000       0.50000000 </v>
    <v>       0.25000000       0.50000000       0.50000000 </v>
    <v>       0.50000000       0.50000000       0.50000000 </v>
   </varray>
   <varray name="weights" >
    <v>       0.01562500 </v>
    <v>       0.03125000 </v>
    <v>       0.01562500 </v>
    <v>       0.03125000 </v>
    <v>       0.06250000 </v>
    <v>       0.03125000 </v>
    <v>       0.01562500 </v>
    <v>       0.03125000 </v>
    <v>       0.01562500 </v>
    <v>       0.03125000 </v>
    <v>       0.06250000 </v>
    <v>       0.03125000 </v>
    <v>       0.03125000 </v>
    <v>       0.06250000 </v>
    <v>       0.03125000 </v>
    <v>       0.03125000 </v>
    <v>       0.06250000 </v>
    <v>       0.03125000 </v>
    <v>       0.03125000 </v>
    <v>       0.06250000 </v>
    <v>       0.03125000 </v>
    <v>       0.01562500 </v>
    <v>       0.03125000 </v>
    <v>       0.01562500 </v>
    <v>       0.03125000 </v>
    <v>       0.06250000 </v>
    <v>       0.03125000 </v>
    <v>       0.01562500 </v>
    <v>       0.03125000 </v>
    <v>       0.01562500 </v>
   </varray>
  </kpoints>
  <scstep>
   <time name="total">   26.94   26.95</time>
   <energy>
    <i name="e_fr_energy">   -349.12441497 </i>
    <i name="e_wo_entrp">   -349.12441497 </i>
    <i name="e_0_energy">   -349.12441497 </i>
   </energy>
  </scstep>
  <scstep>
   <time name="total">   20.03   20.03</time>
   <energy>
    <i name="e_fr_energy">   -301.27307104 </i>
    <i name="e_wo_entrp">   -301.27307104 </i>
    <i name="e_0_energy">   -301.27307104 </i>
   </energy>
  </scstep>
  <scstep>
   <time name="total">   20.68   20.69</time>
   <energy>
    <i name="e_fr_energy">   -301.09763777 </i>
    <i name="e_wo_entrp">   -301.09763777 </i>
    <i name="e_0_energy">   -301.09763777 </i>
   </energy>
  </scstep>
  <scstep>
   <time name="total">   20.71   20.71</time>
   <energy>
    <i name="e_fr_energy">   -301.60436597 </i>
    <i name="e_wo_entrp">   -301.60436597 </i>
    <i name="e_0_energy">   -301.60436597 </i>
   </energy>
  </scstep>
  <scstep>
   <time name="total">   20.82   20.82</time>
   <energy>
    <i name="e_fr_energy">   -301.76435347 </i>
    <i name="e_wo_entrp">   -301.76435347 </i>
    <i name="e_0_energy">   -301.76435347 </i>
   </energy>
  </scstep>
  <scstep>
   <time name="total">   21.08   21.08</time>
   <energy>
    <i name="e_fr_energy">   -301.71901884 </i>
    <i name="e_wo_entrp">   -301.71901884 </i>
    <i name="e_0_energy">   -301.71901884 </i>
   </energy>
  </scstep>
  <scstep>
   <time name="total">   21.03   21.04</time>
   <energy>
    <i name="e_fr_energy">   -301.69644834 </i>
    <i name="e_wo_entrp">   -301.69644834 </i>
    <i name="e_0_energy">   -301.69644834 </i>
   </energy>
  </scstep>
  <scstep>
   <time name="total">   21.75   21.75</time>
   <energy>
    <i name="e_fr_energy">   -301.69544009 </i>
    <i name="e_wo_entrp">   -301.69544009 </i>
    <i name="e_0_energy">   -301.69544009 </i>
   </energy>
  </scstep>
  <scstep>
   <time name="total">   22.25   22.26</time>
   <energy>
    <i name="e_fr_energy">   -301.69484561 </i>
    <i name="e_wo_entrp">   -301.69484561 </i>
    <i name="e_0_energy">   -301.69484561 </i>
   </energy>
  </scstep>
  <scstep>
   <time name="total">   22.54   22.55</time>
   <energy>
    <i name="e_fr_energy">   -301.69512367 </i>
    <i name="e_wo_entrp">   -301.69512367 </i>
    <i name="e_0_energy">   -301.69512367 </i>
   </energy>
  </scstep>
  <scstep>
   <time name="total">   22.58   22.58</time>
   <energy>
    <i name="e_fr_energy">   -301.69518987 </i>
    <i name="e_wo_entrp">   -301.69518987 </i>
    <i name="e_0_energy">   -301.69518987 </i>
   </energy>
  </scstep>
  <kpoints>
   <generation param="Gamma">
    <v type="int" name="divisions">       4        4        4 </v>
    <v name="usershift">      0.00000000       0.00000000       0.00000000 </v>
    <v name="genvec1">      0.25000000       0.00000000       0.00000000 </v>
    <v name="genvec2">      0.00000000       0.25000000       0.00000000 </v>
    <v name="genvec3">      0.00000000       0.00000000       0.25000000 </v>
    <v name="shift">      0.00000000       0.00000000       0.00000000 </v>
   </generation>
   <varray name="kpointlist" >
    <v>       0.00000000       0.00000000       0.00000000 </v>
    <v>       0.25000000       0.00000000       0.00000000 </v>
    <v>       0.50000000       0.00000000       0.00000000 </v>
    <v>       0.25000000       0.25000000       0.00000000 </v>
    <v>       0.50000000       0.25000000       0.00000000 </v>
    <v>      -0.25000000       0.25000000       0.00000000 </v>
    <v>       0.50000000       0.50000000       0.00000000 </v>
    <v>       0.00000000       0.00000000       0.25000000 </v>
    <v>       0.25000000       0.00000000       0.25000000 </v>
    <v>       0.50000000       0.00000000       0.25000000 </v>
    <v>       0.25000000       0.25000000       0.25000000 </v>
    <v>       0.50000000       0.25000000       0.25000000 </v>
    <v>      -0.25000000       0.25000000       0.25000000 </v>
    <v>       0.50000000       0.50000000       0.25000000 </v>
    <v>       0.00000000       0.00000000       0.50000000 </v>
    <v>       0.25000000       0.00000000       0.50000000 </v>
    <v>       0.50000000       0.00000000       0.50000000 </v>
    <v>       0.25000000       0.25000000       0.50000000 </v>
    <v>       0.50000000       0.25000000       0.50000000 </v>
    <v>      -0.25000000       0.25000000       0.50000000 </v>
    <v>       0.50000000       0.50000000       0.50000000 </v>
   </varray>
   <varray name="weights" >
    <v>       0.01562500 </v>
    <v>       0.06250000 </v>
    <v>       0.03125000 </v>
    <v>       0.03125000 </v>
    <v>       0.06250000 </v>
    <v>       0.03125000 </v>
    <v>       0.01562500 </v>
    <v>       0.03125000 </v>
    <v>       0.12500000 </v>
    <v>       0.06250000 </v>
    <v>       0.06250000 </v>
    <v>       0.12500000 </v>
    <v>       0.06250000 </v>
    <v>       0.03125000 </v>
    <v>       0.01562500 </v>
    <v>       0.06250000 </v>
    <v>       0.03125000 </v>
    <v>       0.03125000 </v>
    <v>       0.06250000 </v>
    <v>       0.03125000 </v>
    <v>       0.01562500 </v>
   </varray>
  </kpoints>
  <scstep>
   <time name="total">   18.21   18.22</time>
   <energy>
    <i name="e_fr_energy">   -346.23153163 </i>
    <i name="e_wo_entrp">   -346.23153163 </i>
    <i name="e_0_energy">   -346.23153163 </i>
   </energy>
  </scstep>
  <scstep>
   <time name="total">   13.84   13.84</time>
   <energy>
    <i name="e_fr_energy">   -301.60761995 </i>
    <i name="e_wo_entrp">   -301.60761995 </i>
    <i name="e_0_energy">   -301.60761995 </i>
   </energy>
  </scstep>
  <scstep>
   <time name="total">   14.12   14.12</time>
   <energy>
    <i name="e_fr_energy">   -301.54735288 </i>
    <i name="e_wo_entrp">   -301.54735288 </i>
    <i name="e_0_energy">   -301.54735288 </i>
   </energy>
  </scstep>
  <scstep>
   <time name="total">   14.20   14.20</time>
   <energy>
    <i name="e_fr_energy">   -302.07970022 </i>
    <i name="e_wo_entrp">   -302.07970022 </i>
    <i name="e_0_energy">   -302.07970022 </i>
   </energy>
  </scstep>
  <scstep>
   <time name="total">   14.37   14.37</time>
   <energy>
    <i name="e_fr_energy">   -302.22423709 </i>
    <i name="e_wo_entrp">   -302.22423709 </i>
    <i name="e_0_energy">   -302.22423709 </i>
   </energy>
  </scstep>
  <scstep>
   <time name="total">   14.52   14.53</time>
   <energy>
    <i name="e_fr_energy">   -302.17699967 </i>
    <i name="e_wo_entrp">   -302.17699967 </i>
    <i name="e_0_energy">   -302.17699967 </i>
   </energy>
  </scstep>
  <scstep>
   <time name="total">   14.63   14.63</time>
   <energy>
    <i name="e_fr_energy">   -302.15711240 </i>
    <i name="e_wo_entrp">   -302.15711240 </i>
    <i name="e_0_energy">   -302.15711240 </i>
   </energy>
  </scstep>
  <scstep>
   <time name="total">   14.70   14.70</time>
   <energy>
    <i name="e_fr_energy">   -302.15584079 </i>
    <i name="e_wo_entrp">   -302.15584079 </i>
    <i name="e_0_energy">   -302.15584079 </i>
   </energy>
  </scstep>
  <scstep>
   <time name="total">   15.15   15.15</time>
   <energy>
    <i name="e_fr_energy">   -302.15531056 </i>
    <i name="e_wo_entrp">   -302.15531056 </i>
    <i name="e_0_energy">   -302.15531056 </i>
   </energy>
  </scstep>
  <scstep>
   <time name="total">   15.31   15.32</time>
   <energy>
    <i name="e_fr_energy">   -302.15554608 </i>
    <i name="e_wo_entrp">   -302.15554608 </i>
    <i name="e_0_energy">   -302.15554608 </i>
   </energy>
  </scstep>
  <scstep>
   <time name="total">   15.31   15.31</time>
   <energy>
    <i name="e_fr_energy">   -302.15554412 </i>
    <i name="e_wo_entrp">   -302.15554412 </i>
    <i name="e_0_energy">   -302.15554412 </i>
   </energy>
  </scstep>
  <kpoints>
   <generation param="Gamma">
    <v type="int" name="divisions">       4        4        4 </v>
    <v name="usershift">      0.00000000       0.00000000       0.00000000 </v>
    <v name="genvec1">      0.25000000       0.00000000       0.00000000 </v>
    <v name="genvec2">      0.00000000       0.25000000       0.00000000 </v>
    <v name="genvec3">      0.00000000       0.00000000       0.25000000 </v>
    <v name="shift">      0.00000000       0.00000000       0.00000000 </v>
   </generation>
   <varray name="kpointlist" >
    <v>       0.00000000       0.00000000       0.00000000 </v>
    <v>       0.25000000       0.00000000       0.00000000 </v>
    <v>       0.50000000       0.00000000       0.00000000 </v>
    <v>       0.25000000       0.25000000       0.00000000 </v>
    <v>       0.50000000       0.25000000       0.00000000 </v>
    <v>       0.50000000       0.50000000       0.00000000 </v>
    <v>       0.00000000       0.00000000       0.25000000 </v>
    <v>       0.25000000       0.00000000       0.25000000 </v>
    <v>       0.50000000       0.00000000       0.25000000 </v>
    <v>       0.25000000       0.25000000       0.25000000 </v>
    <v>       0.50000000       0.25000000       0.25000000 </v>
    <v>       0.50000000       0.50000000       0.25000000 </v>
    <v>       0.00000000       0.00000000       0.50000000 </v>
    <v>       0.25000000       0.00000000       0.50000000 </v>
    <v>       0.50000000       0.00000000       0.50000000 </v>
    <v>       0.25000000       0.25000000       0.50000000 </v>
    <v>       0.50000000       0.25000000       0.50000000 </v>
    <v>       0.50000000       0.50000000       0.50000000 </v>
   </varray>
   <varray name="weights" >
    <v>       0.01562500 </v>
    <v>       0.06250000 </v>
    <v>       0.03125000 </v>
    <v>       0.06250000 </v>
    <v>       0.06250000 </v>
    <v>       0.01562500 </v>
    <v>       0.03125000 </v>
    <v>       0.12500000 </v>
    <v>       0.06250000 </v>
    <v>       0.12500000 </v>
    <v>       0.12500000 </v>
    <v>       0.03125000 </v>
    <v>       0.01562500 </v>
    <v>       0.06250000 </v>
    <v>       0.03125000 </v>
    <v>       0.06250000 </v>
    <v>       0.06250000 </v>
    <v>       0.01562500 </v>
   </varray>
  </kpoints>
  <dynmat>
   <varray name="hessian" >
    <v>      -2.97749741       0.00000000       0.00000000       0.01155160      -0.00000000       0.00000000       0.00708201       0.00000000       0.00000000       0.00642057       0.00000000       0.00000000       0.00616007       0.00000000      -0.00000000       0.00795133       0.00000000      -0.00000000      -0.04425122      -0.00000000       0.00000000       0.00370927       0.00000000      -0.00000000      -0.01168746      -0.00780443       0.00114402       0.00321233      -0.00399397      -0.01547321       0.61660901      -0.06550198      -0.05837316      -0.00610919      -0.00780443      -0.00805220       0.02640149      -0.01626664      -0.01523347      -0.00246999      -0.00278209      -0.00247916      -0.01118806      -0.00061093      -0.00585218       0.00644308      -0.01626664      -0.00833091      -0.10390858       0.05025483      -0.05344900      -0.00322968       0.00283149      -0.00264558      -0.10390858       0.05025483       0.05344900      -0.00322968       0.00283149       0.00264558      -0.10390858      -0.05025483      -0.05344900      -0.00322968      -0.00283149      -0.00264558      -0.10390858      -0.05025483       0.05344900      -0.00322968      -0.00283149       0.00264558       0.61660901       0.06550198       0.05837316      -0.00610919       0.00780443       0.00805220      -0.01168746       0.00780443      -0.00114402       0.00321233       0.00399397       0.01547321      -0.01118806       0.00061093       0.00585218       0.00644308       0.01626664       0.00833091       0.02640149       0.01626664       0.01523347      -0.00246999       0.00278209       0.00247916       0.11451167      -0.05025483       0.11772480       0.11451167      -0.05025483      -0.11772480       0.00624020      -0.00283149      -0.00630770       0.00624020      -0.00283149       0.00630770       0.11451167       0.05025483      -0.11772480       0.11451167       0.05025483       0.11772480       0.00624020       0.00283149       0.00630770       0.00624020       0.00283149      -0.00630770      -0.01168746       0.00780443       0.00114402       0.00321233       0.00399397      -0.01547321       0.61660901       0.06550198      -0.05837316      -0.00610919       0.00780443      -0.00805220       0.02640149       0.01626664      -0.01523347      -0.00246999       0.00278209      -0.00247916      -0.01118806       0.00061093      -0.00585218       0.00644308       0.01626664      -0.00833091       0.10340867      -0.10304584       0.05144447       0.10340867       0.10304584       0.05144447       0.10340867       0.10304584      -0.05144447       0.10340867      -0.10304584      -0.05144447       0.00648496       0.00685928       0.00249121       0.00648496      -0.00685928       0.00249121       0.00648496      -0.00685928      -0.00249121       0.00648496       0.00685928      -0.00249121       0.61660901      -0.06550198       0.05837316      -0.00610919      -0.00780443       0.00805220      -0.01168746      -0.00780443      -0.00114402       0.00321233      -0.00399397       0.01547321      -0.01118806      -0.00061093       0.00585218       0.00644308      -0.01626664       0.00833091       0.02640149      -0.01626664       0.01523347      -0.00246999      -0.00278209       0.00247916 </v>
    <v>       0.00000000      -2.97749741      -0.00000000      -0.00000000       0.00708201       0.00000000       0.00000000       0.01155160       0.00000000       0.00000000       0.00642057      -0.00000000       0.00000000       0.00616007       0.00000000       0.00000000      -0.04425122       0.00000000      -0.00000000       0.00795133      -0.00000000       0.00000000       0.00370927      -0.00000000      -0.00780443      -0.00610919       0.00805220      -0.00399397       0.00321233       0.01547321      -0.06550198       0.61660901       0.05837316      -0.00780443      -0.01168746      -0.00114402      -0.01626664       0.00644308       0.00833091      -0.00278209      -0.00246999       0.00247916      -0.00061093      -0.01118806       0.00585218      -0.01626664       0.02640149       0.01523347      -0.05025483       0.11451167      -0.11772480      -0.00283149       0.00624020       0.00630770      -0.05025483       0.11451167       0.11772480      -0.00283149       0.00624020      -0.00630770       0.05025483       0.11451167       0.11772480       0.00283149       0.00624020      -0.00630770       0.05025483       0.11451167      -0.11772480       0.00283149       0.00624020       0.00630770       0.06550198       0.61660901       0.05837316       0.00780443      -0.01168746      -0.00114402       0.00780443      -0.00610919       0.00805220       0.00399397       0.00321233       0.01547321       0.00061093      -0.01118806       0.00585218       0.01626664       0.02640149       0.01523347       0.01626664       0.00644308       0.00833091       0.00278209      -0.00246999       0.00247916       0.05025483      -0.10390858       0.05344900       0.05025483      -0.10390858      -0.05344900       0.00283149      -0.00322968       0.00264558       0.00283149      -0.00322968      -0.00264558      -0.05025483      -0.10390858       0.05344900      -0.05025483      -0.10390858      -0.05344900      -0.00283149      -0.00322968       0.00264558      -0.00283149      -0.00322968      -0.00264558       0.00780443      -0.00610919      -0.00805220       0.00399397       0.00321233      -0.01547321       0.06550198       0.61660901      -0.05837316       0.00780443      -0.01168746       0.00114402       0.01626664       0.00644308      -0.00833091       0.00278209      -0.00246999      -0.00247916       0.00061093      -0.01118806      -0.00585218       0.01626664       0.02640149      -0.01523347      -0.10304584       0.10340867      -0.05144447       0.10304584       0.10340867       0.05144447       0.10304584       0.10340867      -0.05144447      -0.10304584       0.10340867       0.05144447       0.00685928       0.00648496      -0.00249121      -0.00685928       0.00648496       0.00249121      -0.00685928       0.00648496      -0.00249121       0.00685928       0.00648496       0.00249121      -0.06550198       0.61660901      -0.05837316      -0.00780443      -0.01168746       0.00114402      -0.00780443      -0.00610919      -0.00805220      -0.00399397       0.00321233      -0.01547321      -0.00061093      -0.01118806      -0.00585218      -0.01626664       0.02640149      -0.01523347      -0.01626664       0.00644308      -0.00833091      -0.00278209      -0.00246999      -0.00247916 </v>
    <v>       0.00000000      -0.00000000      -3.09622224       0.00000000       0.00000000       0.00899692       0.00000000       0.00000000       0.00899692       0.00000000      -0.00000000      -0.04844053      -0.00000000       0.00000000       0.01075107      -0.00000000       0.00000000       0.00848954       0.00000000      -0.00000000       0.00848954      -0.00000000      -0.00000000       0.00405094       0.00114402       0.00805220      -0.01307675      -0.01547321       0.01547321       0.02996682      -0.05837316       0.05837316       0.64567008      -0.00805220      -0.00114402      -0.01307675      -0.01523347       0.00833091       0.00725009      -0.00247916       0.00247916      -0.00279596      -0.00585218       0.00585218      -0.00299390      -0.00833091       0.01523347       0.00725009       0.05344900      -0.11772480       0.10900689       0.00264558       0.00630770       0.00611318      -0.05344900       0.11772480       0.10900689      -0.00264558      -0.00630770       0.00611318       0.05344900       0.11772480       0.10900689       0.00264558      -0.00630770       0.00611318      -0.05344900      -0.11772480       0.10900689      -0.00264558       0.00630770       0.00611318       0.05837316       0.05837316       0.64567008       0.00805220      -0.00114402      -0.01307675      -0.00114402       0.00805220      -0.01307675       0.01547321       0.01547321       0.02996682       0.00585218       0.00585218      -0.00299390       0.00833091       0.01523347       0.00725009       0.01523347       0.00833091       0.00725009       0.00247916       0.00247916      -0.00279596       0.11772480      -0.05344900       0.10900689      -0.11772480       0.05344900       0.10900689      -0.00630770      -0.00264558       0.00611318       0.00630770       0.00264558       0.00611318      -0.11772480      -0.05344900       0.10900689       0.11772480       0.05344900       0.10900689       0.00630770      -0.00264558       0.00611318      -0.00630770       0.00264558       0.00611318       0.00114402      -0.00805220      -0.01307675      -0.01547321      -0.01547321       0.02996682      -0.05837316      -0.05837316       0.64567008      -0.00805220       0.00114402      -0.01307675      -0.01523347      -0.00833091       0.00725009      -0.00247916      -0.00247916      -0.00279596      -0.00585218      -0.00585218      -0.00299390      -0.00833091      -0.01523347       0.00725009      -0.05144447       0.05144447      -0.11011014      -0.05144447      -0.05144447      -0.11011014       0.05144447       0.05144447      -0.11011014       0.05144447      -0.05144447      -0.11011014      -0.00249121       0.00249121      -0.00460176      -0.00249121      -0.00249121      -0.00460176       0.00249121       0.00249121      -0.00460176       0.00249121      -0.00249121      -0.00460176       0.05837316      -0.05837316       0.64567008       0.00805220       0.00114402      -0.01307675      -0.00114402      -0.00805220      -0.01307675       0.01547321      -0.01547321       0.02996682       0.00585218      -0.00585218      -0.00299390       0.00833091      -0.01523347       0.00725009       0.01523347      -0.00833091       0.00725009       0.00247916      -0.00247916      -0.00279596 </v>
    <v>       0.01155160      -0.00000000       0.00000000      -2.97749741       0.00000000       0.00000000       0.00642057       0.00000000       0.00000000       0.00708201       0.00000000       0.00000000       0.00795133       0.00000000      -0.00000000       0.00616007       0.00000000      -0.00000000       0.00370927       0.00000000      -0.00000000      -0.04425122      -0.00000000       0.00000000       0.00321233      -0.00399397      -0.01547321      -0.01168746      -0.00780443       0.00114402      -0.00610919      -0.00780443      -0.00805220       0.61660901      -0.06550198      -0.05837316      -0.00246999      -0.00278209      -0.00247916       0.02640149      -0.01626664      -0.01523347       0.00644308      -0.01626664      -0.00833091      -0.01118806      -0.00061093      -0.00585218      -0.00322968       0.00283149      -0.00264558      -0.10390858       0.05025483      -0.05344900      -0.00322968       0.00283149       0.00264558      -0.10390858       0.05025483       0.05344900      -0.00322968      -0.00283149      -0.00264558      -0.10390858      -0.05025483      -0.05344900      -0.00322968      -0.00283149       0.00264558      -0.10390858      -0.05025483       0.05344900      -0.00610919       0.00780443       0.00805220       0.61660901       0.06550198       0.05837316       0.00321233       0.00399397       0.01547321      -0.01168746       0.00780443      -0.00114402       0.00644308       0.01626664       0.00833091      -0.01118806       0.00061093       0.00585218      -0.00246999       0.00278209       0.00247916       0.02640149       0.01626664       0.01523347       0.11451167      -0.05025483      -0.11772480       0.11451167      -0.05025483       0.11772480       0.00624020      -0.00283149       0.00630770       0.00624020      -0.00283149      -0.00630770       0.11451167       0.05025483       0.11772480       0.11451167       0.05025483      -0.11772480       0.00624020       0.00283149      -0.00630770       0.00624020       0.00283149       0.00630770       0.00321233       0.00399397      -0.01547321      -0.01168746       0.00780443       0.00114402      -0.00610919       0.00780443      -0.00805220       0.61660901       0.06550198      -0.05837316      -0.00246999       0.00278209      -0.00247916       0.02640149       0.01626664      -0.01523347       0.00644308       0.01626664      -0.00833091      -0.01118806       0.00061093      -0.00585218       0.10340867       0.10304584       0.05144447       0.10340867      -0.10304584       0.05144447       0.10340867      -0.10304584      -0.05144447       0.10340867       0.10304584      -0.05144447       0.00648496      -0.00685928       0.00249121       0.00648496       0.00685928       0.00249121       0.00648496       0.00685928      -0.00249121       0.00648496      -0.00685928      -0.00249121      -0.00610919      -0.00780443       0.00805220       0.61660901      -0.06550198       0.05837316       0.00321233      -0.00399397       0.01547321      -0.01168746      -0.00780443      -0.00114402       0.00644308      -0.01626664       0.00833091      -0.01118806      -0.00061093       0.00585218      -0.00246999      -0.00278209       0.00247916       0.02640149      -0.01626664       0.01523347 </v>
    <v>      -0.00000000       0.00708201       0.00000000       0.00000000      -2.97749741      -0.00000000       0.00000000       0.00642057      -0.00000000       0.00000000       0.01155160       0.00000000       0.00000000      -0.04425122       0.00000000       0.00000000       0.00616007       0.00000000       0.00000000       0.00370927      -0.00000000      -0.00000000       0.00795133      -0.00000000      -0.00399397       0.00321233       0.01547321      -0.00780443      -0.00610919       0.00805220      -0.00780443      -0.01168746      -0.00114402      -0.06550198       0.61660901       0.05837316      -0.00278209      -0.00246999       0.00247916      -0.01626664       0.00644308       0.00833091      -0.01626664       0.02640149       0.01523347      -0.00061093      -0.01118806       0.00585218      -0.00283149       0.00624020       0.00630770      -0.05025483       0.11451167      -0.11772480      -0.00283149       0.00624020      -0.00630770      -0.05025483       0.11451167       0.11772480       0.00283149       0.00624020      -0.00630770       0.05025483       0.11451167       0.11772480       0.00283149       0.00624020       0.00630770       0.05025483       0.11451167      -0.11772480       0.00780443      -0.01168746      -0.00114402       0.06550198       0.61660901       0.05837316       0.00399397       0.00321233       0.01547321       0.00780443      -0.00610919       0.00805220       0.01626664       0.02640149       0.01523347       0.00061093      -0.01118806       0.00585218       0.00278209      -0.00246999       0.00247916       0.01626664       0.00644308       0.00833091       0.05025483      -0.10390858      -0.05344900       0.05025483      -0.10390858       0.05344900       0.00283149      -0.00322968      -0.00264558       0.00283149      -0.00322968       0.00264558      -0.05025483      -0.10390858      -0.05344900      -0.05025483      -0.10390858       0.05344900      -0.00283149      -0.00322968      -0.00264558      -0.00283149      -0.00322968       0.00264558       0.00399397       0.00321233      -0.01547321       0.00780443      -0.00610919      -0.00805220       0.00780443      -0.01168746       0.00114402       0.06550198       0.61660901      -0.05837316       0.00278209      -0.00246999      -0.00247916       0.01626664       0.00644308      -0.00833091       0.01626664       0.02640149      -0.01523347       0.00061093      -0.01118806      -0.00585218       0.10304584       0.10340867       0.05144447      -0.10304584       0.10340867      -0.05144447      -0.10304584       0.10340867       0.05144447       0.10304584       0.10340867      -0.05144447      -0.00685928       0.00648496       0.00249121       0.00685928       0.00648496      -0.00249121       0.00685928       0.00648496       0.00249121      -0.00685928       0.00648496      -0.00249121      -0.00780443      -0.01168746       0.00114402      -0.06550198       0.61660901      -0.05837316      -0.00399397       0.00321233      -0.01547321      -0.00780443      -0.00610919      -0.00805220      -0.01626664       0.02640149      -0.01523347      -0.00061093      -0.01118806      -0.00585218      -0.00278209      -0.00246999      -0.00247916      -0.01626664       0.00644308      -0.00833091 </v>
    <v>       0.00000000       0.00000000       0.00899692       0.00000000      -0.00000000      -3.09622224       0.00000000      -0.00000000      -0.04844053       0.00000000       0.00000000       0.00899692      -0.00000000       0.00000000       0.00848954      -0.00000000       0.00000000       0.01075107      -0.00000000      -0.00000000       0.00405094       0.00000000      -0.00000000       0.00848954      -0.01547321       0.01547321       0.02996682       0.00114402       0.00805220      -0.01307675      -0.00805220      -0.00114402      -0.01307675      -0.05837316       0.05837316       0.64567008      -0.00247916       0.00247916      -0.00279596      -0.01523347       0.00833091       0.00725009      -0.00833091       0.01523347       0.00725009      -0.00585218       0.00585218      -0.00299390       0.00264558       0.00630770       0.00611318       0.05344900      -0.11772480       0.10900689      -0.00264558      -0.00630770       0.00611318      -0.05344900       0.11772480       0.10900689       0.00264558      -0.00630770       0.00611318       0.05344900       0.11772480       0.10900689      -0.00264558       0.00630770       0.00611318      -0.05344900      -0.11772480       0.10900689       0.00805220      -0.00114402      -0.01307675       0.05837316       0.05837316       0.64567008       0.01547321       0.01547321       0.02996682      -0.00114402       0.00805220      -0.01307675       0.00833091       0.01523347       0.00725009       0.00585218       0.00585218      -0.00299390       0.00247916       0.00247916      -0.00279596       0.01523347       0.00833091       0.00725009      -0.11772480       0.05344900       0.10900689       0.11772480      -0.05344900       0.10900689       0.00630770       0.00264558       0.00611318      -0.00630770      -0.00264558       0.00611318       0.11772480       0.05344900       0.10900689      -0.11772480      -0.05344900       0.10900689      -0.00630770       0.00264558       0.00611318       0.00630770      -0.00264558       0.00611318      -0.01547321      -0.01547321       0.02996682       0.00114402      -0.00805220      -0.01307675      -0.00805220       0.00114402      -0.01307675      -0.05837316      -0.05837316       0.64567008      -0.00247916      -0.00247916      -0.00279596      -0.01523347      -0.00833091       0.00725009      -0.00833091      -0.01523347       0.00725009      -0.00585218      -0.00585218      -0.00299390      -0.05144447      -0.05144447      -0.11011014      -0.05144447       0.05144447      -0.11011014       0.05144447      -0.05144447      -0.11011014       0.05144447       0.05144447      -0.11011014      -0.00249121      -0.00249121      -0.00460176      -0.00249121       0.00249121      -0.00460176       0.00249121      -0.00249121      -0.00460176       0.00249121       0.00249121      -0.00460176       0.00805220       0.00114402      -0.01307675       0.05837316      -0.05837316       0.64567008       0.01547321      -0.01547321       0.02996682      -0.00114402      -0.00805220      -0.01307675       0.00833091      -0.01523347       0.00725009       0.00585218      -0.00585218      -0.00299390       0.00247916      -0.00247916      -0.00279596       0.01523347      -0.00833091       0.00725009 </v>
    <v>       0.00708201       0.00000000       0.00000000       0.00642057       0.00000000       0.00000000      -2.97749741       0.00000000       0.00000000       0.01155160      -0.00000000       0.00000000      -0.04425122      -0.00000000       0.00000000       0.00370927       0.00000000      -0.00000000       0.00616007       0.00000000      -0.00000000       0.00795133       0.00000000      -0.00000000       0.61660901      -0.06550198      -0.05837316      -0.00610919      -0.00780443      -0.00805220      -0.01168746      -0.00780443       0.00114402       0.00321233      -0.00399397      -0.01547321      -0.01118806      -0.00061093      -0.00585218       0.00644308      -0.01626664      -0.00833091       0.02640149      -0.01626664      -0.01523347      -0.00246999      -0.00278209      -0.00247916      -0.10390858       0.05025483       0.05344900      -0.00322968       0.00283149       0.00264558      -0.10390858       0.05025483      -0.05344900      -0.00322968       0.00283149      -0.00264558      -0.10390858      -0.05025483       0.05344900      -0.00322968      -0.00283149       0.00264558      -0.10390858      -0.05025483      -0.05344900      -0.00322968      -0.00283149      -0.00264558      -0.01168746       0.00780443      -0.00114402       0.00321233       0.00399397       0.01547321       0.61660901       0.06550198       0.05837316      -0.00610919       0.00780443       0.00805220       0.02640149       0.01626664       0.01523347      -0.00246999       0.00278209       0.00247916      -0.01118806       0.00061093       0.00585218       0.00644308       0.01626664       0.00833091       0.00624020      -0.00283149      -0.00630770       0.00624020      -0.00283149       0.00630770       0.11451167      -0.05025483       0.11772480       0.11451167      -0.05025483      -0.11772480       0.00624020       0.00283149       0.00630770       0.00624020       0.00283149      -0.00630770       0.11451167       0.05025483      -0.11772480       0.11451167       0.05025483       0.11772480       0.61660901       0.06550198      -0.05837316      -0.00610919       0.00780443      -0.00805220      -0.01168746       0.00780443       0.00114402       0.00321233       0.00399397      -0.01547321      -0.01118806       0.00061093      -0.00585218       0.00644308       0.01626664      -0.00833091       0.02640149       0.01626664      -0.01523347      -0.00246999       0.00278209      -0.00247916       0.10340867       0.10304584      -0.05144447       0.10340867      -0.10304584      -0.05144447       0.10340867      -0.10304584       0.05144447       0.10340867       0.10304584       0.05144447       0.00648496      -0.00685928      -0.00249121       0.00648496       0.00685928      -0.00249121       0.00648496       0.00685928       0.00249121       0.00648496      -0.00685928       0.00249121      -0.01168746      -0.00780443      -0.00114402       0.00321233      -0.00399397       0.01547321       0.61660901      -0.06550198       0.05837316      -0.00610919      -0.00780443       0.00805220       0.02640149      -0.01626664       0.01523347      -0.00246999      -0.00278209       0.00247916      -0.01118806      -0.00061093       0.00585218       0.00644308      -0.01626664       0.00833091 </v>
    <v>       0.00000000       0.01155160       0.00000000       0.00000000       0.00642057      -0.00000000       0.00000000      -2.97749741      -0.00000000      -0.00000000       0.00708201       0.00000000      -0.00000000       0.00795133      -0.00000000       0.00000000       0.00370927      -0.00000000       0.00000000       0.00616007       0.00000000       0.00000000      -0.04425122       0.00000000      -0.06550198       0.61660901       0.05837316      -0.00780443      -0.01168746      -0.00114402      -0.00780443      -0.00610919       0.00805220      -0.00399397       0.00321233       0.01547321      -0.00061093      -0.01118806       0.00585218      -0.01626664       0.02640149       0.01523347      -0.01626664       0.00644308       0.00833091      -0.00278209      -0.00246999       0.00247916      -0.05025483       0.11451167       0.11772480      -0.00283149       0.00624020      -0.00630770      -0.05025483       0.11451167      -0.11772480      -0.00283149       0.00624020       0.00630770       0.05025483       0.11451167      -0.11772480       0.00283149       0.00624020       0.00630770       0.05025483       0.11451167       0.11772480       0.00283149       0.00624020      -0.00630770       0.00780443      -0.00610919       0.00805220       0.00399397       0.00321233       0.01547321       0.06550198       0.61660901       0.05837316       0.00780443      -0.01168746      -0.00114402       0.01626664       0.00644308       0.00833091       0.00278209      -0.00246999       0.00247916       0.00061093      -0.01118806       0.00585218       0.01626664       0.02640149       0.01523347       0.00283149      -0.00322968       0.00264558       0.00283149      -0.00322968      -0.00264558       0.05025483      -0.10390858       0.05344900       0.05025483      -0.10390858      -0.05344900      -0.00283149      -0.00322968       0.00264558      -0.00283149      -0.00322968      -0.00264558      -0.05025483      -0.10390858       0.05344900      -0.05025483      -0.10390858      -0.05344900       0.06550198       0.61660901      -0.05837316       0.00780443      -0.01168746       0.00114402       0.00780443      -0.00610919      -0.00805220       0.00399397       0.00321233      -0.01547321       0.00061093      -0.01118806      -0.00585218       0.01626664       0.02640149      -0.01523347       0.01626664       0.00644308      -0.00833091       0.00278209      -0.00246999      -0.00247916       0.10304584       0.10340867      -0.05144447      -0.10304584       0.10340867       0.05144447      -0.10304584       0.10340867      -0.05144447       0.10304584       0.10340867       0.05144447      -0.00685928       0.00648496      -0.00249121       0.00685928       0.00648496       0.00249121       0.00685928       0.00648496      -0.00249121      -0.00685928       0.00648496       0.00249121      -0.00780443      -0.00610919      -0.00805220      -0.00399397       0.00321233      -0.01547321      -0.06550198       0.61660901      -0.05837316      -0.00780443      -0.01168746       0.00114402      -0.01626664       0.00644308      -0.00833091      -0.00278209      -0.00246999      -0.00247916      -0.00061093      -0.01118806      -0.00585218      -0.01626664       0.02640149      -0.01523347 </v>
[...]
      </set>
     </set>
    </set>
   </array>
  </eigenvalues>
  <separator name="orbital magnetization" >
   <v name="MAGDIPOLOUT">      0.00000000      0.00000000      0.00000000</v>
  </separator>
  <dos>
   <i name="efermi">      9.10154117 </i>
   <total>
    <array>
     <dimension dim="1">gridpoints</dimension>
     <dimension dim="2">spin</dimension>
     <field>energy</field>
     <field>total</field>
     <field>integrated</field>
     <set>
      <set comment="spin 1">
       <r>   -13.3707     0.0000     0.0000 </r>
       <r>   -13.2567     0.0000     0.0000 </r>
       <r>   -13.1426     0.0000     0.0000 </r>
       <r>   -13.0286     0.0000     0.0000 </r>
       <r>   -12.9146     0.0000     0.0000 </r>
       <r>   -12.8005     0.0000     0.0000 </r>
       <r>   -12.6865     0.0000     0.0000 </r>
       <r>   -12.5725     0.0000     0.0000 </r>
       <r>   -12.4584     0.0000     0.0000 </r>
       <r>   -12.3444     0.0000     0.0000 </r>
       <r>   -12.2304     0.0000     0.0000 </r>
       <r>   -12.1163     0.0000     0.0000 </r>
       <r>   -12.0023     0.0000     0.0000 </r>
       <r>   -11.8882     0.0119     0.0014 </r>
       <r>   -11.7742     0.2405     0.0288 </r>
       <r>   -11.6602     1.1594     0.1610 </r>
       <r>   -11.5461     2.1447     0.4056 </r>
       <r>   -11.4321     2.3252     0.6707 </r>
       <r>   -11.3181     1.8001     0.8760 </r>
       <r>   -11.2040     1.8599     1.0881 </r>
       <r>   -11.0900     5.4834     1.7134 </r>
       <r>   -10.9760     5.6686     2.3598 </r>
       <r>   -10.8619     1.5181     2.5329 </r>
       <r>   -10.7479     1.4807     2.7018 </r>
       <r>   -10.6338     4.3306     3.1956 </r>
       <r>   -10.5198     6.9920     3.9930 </r>
       <r>   -10.4058     5.2684     4.5938 </r>
       <r>   -10.2917     5.3599     5.2050 </r>
       <r>   -10.1777     3.2262     5.5729 </r>
       <r>   -10.0637     4.3924     6.0738 </r>
       <r>    -9.9496     8.9985     7.0999 </r>
       <r>    -9.8356     6.3087     7.8194 </r>
       <r>    -9.7216     0.9052     7.9226 </r>
       <r>    -9.6075     3.6269     8.3362 </r>
       <r>    -9.4935     9.8198     9.4560 </r>
       <r>    -9.3794     8.2067    10.3919 </r>
       <r>    -9.2654     7.3345    11.2283 </r>
       <r>    -9.1514     6.0829    11.9219 </r>
       <r>    -9.0373     9.0942    12.9590 </r>
       <r>    -8.9233     8.0425    13.8761 </r>
       <r>    -8.8093     4.6155    14.4025 </r>
       <r>    -8.6952     2.4753    14.6847 </r>
       <r>    -8.5812     5.5483    15.3175 </r>
       <r>    -8.4672     9.6264    16.4152 </r>
       <r>    -8.3531    12.7402    17.8681 </r>
       <r>    -8.2391     9.0410    18.8991 </r>
       <r>    -8.1251     4.5647    19.4196 </r>
       <r>    -8.0110    14.0137    21.0177 </r>
       <r>    -7.8970    11.3328    22.3100 </r>
       <r>    -7.7829     3.5519    22.7151 </r>
       <r>    -7.6689     5.2104    23.3092 </r>
       <r>    -7.5549     8.5379    24.2828 </r>
       <r>    -7.4408    12.7481    25.7366 </r>
       <r>    -7.3268    11.0544    26.9972 </r>
       <r>    -7.2128     9.4551    28.0754 </r>
       <r>    -7.0987     9.3463    29.1412 </r>
       <r>    -6.9847    11.2633    30.4257 </r>
       <r>    -6.8707     7.4175    31.2715 </r>
       <r>    -6.7566     9.9486    32.4060 </r>
       <r>    -6.6426    12.7622    33.8614 </r>
       <r>    -6.5285    18.2081    35.9378 </r>
       <r>    -6.4145    12.8165    37.3993 </r>
       <r>    -6.3005    21.2760    39.8255 </r>
       <r>    -6.1864    10.2740    40.9971 </r>
       <r>    -6.0724     8.8558    42.0070 </r>
       <r>    -5.9584     5.6437    42.6506 </r>
       <r>    -5.8443    14.8080    44.3393 </r>
       <r>    -5.7303     9.0987    45.3768 </r>
       <r>    -5.6163    10.6651    46.5930 </r>
       <r>    -5.5022    13.1312    48.0905 </r>
       <r>    -5.3882    14.1939    49.7091 </r>
       <r>    -5.2741     6.6340    50.4656 </r>
       <r>    -5.1601     9.9496    51.6002 </r>
       <r>    -5.0461     8.9361    52.6192 </r>
       <r>    -4.9320    11.5926    53.9412 </r>
       <r>    -4.8180    10.2055    55.1050 </r>
       <r>    -4.7040    16.8716    57.0290 </r>
       <r>    -4.5899     7.8172    57.9204 </r>
       <r>    -4.4759     7.7096    58.7996 </r>
       <r>    -4.3619     6.7148    59.5653 </r>
       <r>    -4.2478     1.0009    59.6795 </r>
       <r>    -4.1338     3.5474    60.0840 </r>
       <r>    -4.0197     3.1055    60.4382 </r>
       <r>    -3.9057     3.7353    60.8641 </r>
       <r>    -3.7917     9.1362    61.9060 </r>
       <r>    -3.6776    13.8148    63.4814 </r>
       <r>    -3.5636     6.5737    64.2310 </r>
       <r>    -3.4496     6.9993    65.0292 </r>
       <r>    -3.3355     6.9121    65.8174 </r>
       <r>    -3.2215    17.5674    67.8207 </r>
       <r>    -3.1075     9.9839    68.9592 </r>
       <r>    -2.9934    15.9723    70.7807 </r>
       <r>    -2.8794     8.3121    71.7285 </r>
       <r>    -2.7653     7.7864    72.6165 </r>
       <r>    -2.6513     8.6908    73.6075 </r>
       <r>    -2.5373    17.7843    75.6356 </r>
       <r>    -2.4232    15.0967    77.3571 </r>
       <r>    -2.3092    23.6850    80.0581 </r>
       <r>    -2.1952    23.4515    82.7324 </r>
       <r>    -2.0811    18.5396    84.8466 </r>
       <r>    -1.9671    17.9039    86.8883 </r>
       <r>    -1.8531    18.8360    89.0363 </r>
       <r>    -1.7390    12.7928    90.4951 </r>
       <r>    -1.6250    13.7293    92.0608 </r>
       <r>    -1.5110    15.9809    93.8832 </r>
       <r>    -1.3969    12.1176    95.2650 </r>
       <r>    -1.2829    10.3469    96.4449 </r>
       <r>    -1.1688     5.8001    97.1063 </r>
       <r>    -1.0548     3.2418    97.4760 </r>
       <r>    -0.9408     8.4752    98.4425 </r>
       <r>    -0.8267    13.3222    99.9617 </r>
       <r>    -0.7127    15.5917   101.7397 </r>
       <r>    -0.5987     9.4994   102.8230 </r>
       <r>    -0.4846     1.4650   102.9901 </r>
       <r>    -0.3706     2.2366   103.2451 </r>
       <r>    -0.2566     8.6338   104.2297 </r>
       <r>    -0.1425    12.2296   105.6243 </r>
       <r>    -0.0285    14.1666   107.2398 </r>
       <r>     0.0856    17.0990   109.1897 </r>
       <r>     0.1996    16.6224   111.0852 </r>
       <r>     0.3136    19.1876   113.2733 </r>
       <r>     0.4277     7.8071   114.1636 </r>
       <r>     0.5417     5.3194   114.7702 </r>
       <r>     0.6557    18.5942   116.8906 </r>
       <r>     0.7698    21.8794   119.3857 </r>
       <r>     0.8838    10.7798   120.6150 </r>
       <r>     0.9978    14.3066   122.2464 </r>
       <r>     1.1119    37.5690   126.5307 </r>
       <r>     1.2259    26.0281   129.4988 </r>
       <r>     1.3400    17.7503   131.5230 </r>
       <r>     1.4540     9.3915   132.5939 </r>
       <r>     1.5680    12.1183   133.9759 </r>
       <r>     1.6821    14.3549   135.6128 </r>
       <r>     1.7961    17.6821   137.6292 </r>
       <r>     1.9101    17.1784   139.5882 </r>
       <r>     2.0242    22.5218   142.1565 </r>
       <r>     2.1382    16.2272   144.0070 </r>
       <r>     2.2522    26.6063   147.0411 </r>
       <r>     2.3663    28.3282   150.2715 </r>
       <r>     2.4803    32.6549   153.9953 </r>
       <r>     2.5944    30.6723   157.4931 </r>
       <r>     2.7084    22.0751   160.0105 </r>
       <r>     2.8224    17.4303   161.9981 </r>
       <r>     2.9365    14.5360   163.6558 </r>
       <r>     3.0505    14.4725   165.3062 </r>
       <r>     3.1645    25.6847   168.2351 </r>
       <r>     3.2786    34.8856   172.2134 </r>
       <r>     3.3926    35.7314   176.2880 </r>
       <r>     3.5066    26.5368   179.3142 </r>
       <r>     3.6207    32.3633   183.0048 </r>
       <r>     3.7347    32.7480   186.7392 </r>
       <r>     3.8487    23.2999   189.3963 </r>
       <r>     3.9628    19.8915   191.6646 </r>
       <r>     4.0768    14.6334   193.3334 </r>
       <r>     4.1909    22.2293   195.8683 </r>
       <r>     4.3049    29.3678   199.2173 </r>
       <r>     4.4189    22.2870   201.7588 </r>
       <r>     4.5330    26.6795   204.8012 </r>
       <r>     4.6470    25.2044   207.6755 </r>
       <r>     4.7610    24.1082   210.4247 </r>
       <r>     4.8751    22.0093   212.9345 </r>
       <r>     4.9891    27.9985   216.1274 </r>
       <r>     5.1031    24.1242   218.8784 </r>
       <r>     5.2172    23.9295   221.6072 </r>
       <r>     5.3312    14.9200   223.3086 </r>
       <r>     5.4453    25.9266   226.2652 </r>
       <r>     5.5593    21.9292   228.7659 </r>
       <r>     5.6733    16.8609   230.6887 </r>
       <r>     5.7874    14.9308   232.3913 </r>
       <r>     5.9014    23.3254   235.0513 </r>
       <r>     6.0154    22.7016   237.6401 </r>
       <r>     6.1295    23.0102   240.2641 </r>
       <r>     6.2435    13.9685   241.8570 </r>
       <r>     6.3575     5.3217   242.4639 </r>
       <r>     6.4716    11.0099   243.7194 </r>
       <r>     6.5856    10.8920   244.9615 </r>
       <r>     6.6997    11.9831   246.3280 </r>
       <r>     6.8137    11.2219   247.6077 </r>
       <r>     6.9277    10.0352   248.7520 </r>
       <r>     7.0418    12.0177   250.1225 </r>
       <r>     7.1558     8.8372   251.1303 </r>
       <r>     7.2698     4.5818   251.6528 </r>
       <r>     7.3839     2.2994   251.9150 </r>
       <r>     7.4979     5.7404   252.5696 </r>
       <r>     7.6119     4.9882   253.1384 </r>
       <r>     7.7260     5.3966   253.7538 </r>
       <r>     7.8400     7.3597   254.5931 </r>
       <r>     7.9541     4.3108   255.0847 </r>
       <r>     8.0681     2.3447   255.3521 </r>
       <r>     8.1821     1.1286   255.4808 </r>
       <r>     8.2962     1.3583   255.6357 </r>
       <r>     8.4102     1.7289   255.8328 </r>
       <r>     8.5242     1.1858   255.9680 </r>
       <r>     8.6383     0.0064   255.9688 </r>
       <r>     8.7523     0.0817   255.9781 </r>
       <r>     8.8663     0.1879   255.9995 </r>
       <r>     8.9804     0.0042   256.0000 </r>
       <r>     9.0944     0.0000   256.0000 </r>
       <r>     9.2085     0.0000   256.0000 </r>
       <r>     9.3225     0.0000   256.0000 </r>
       <r>     9.4365     0.0000   256.0000 </r>
       <r>     9.5506     0.0000   256.0000 </r>
       <r>     9.6646     0.0000   256.0000 </r>
       <r>     9.7786     0.0000   256.0000 </r>
       <r>     9.8927     0.0000   256.0000 </r>
       <r>    10.0067     0.0000   256.0000 </r>
       <r>    10.1207     0.0000   256.0000 </r>
       <r>    10.2348     0.0000   256.0000 </r>
       <r>    10.3488     0.0000   256.0000 </r>
       <r>    10.4628     0.0000   256.0000 </r>
       <r>    10.5769     0.0000   256.0000 </r>
       <r>    10.6909     0.0000   256.0000 </r>
       <r>    10.8050     0.0000   256.0000 </r>
       <r>    10.9190     0.0000   256.0000 </r>
       <r>    11.0330     0.0000   256.0000 </r>
       <r>    11.1471     0.0000   256.0000 </r>
       <r>    11.2611     0.0000   256.0000 </r>
       <r>    11.3751     0.0000   256.0000 </r>
       <r>    11.4892     0.0000   256.0000 </r>
       <r>    11.6032     0.0000   256.0000 </r>
       <r>    11.7172     0.0538   256.0061 </r>
       <r>    11.8313     0.6179   256.0766 </r>
       <r>    11.9453     0.7090   256.1575 </r>
       <r>    12.0594     0.2820   256.1896 </r>
       <r>    12.1734     0.4284   256.2385 </r>
       <r>    12.2874     0.4806   256.2933 </r>
       <r>    12.4015     2.8210   256.6150 </r>
       <r>    12.5155     3.6305   257.0290 </r>
       <r>    12.6295     5.4403   257.6494 </r>
       <r>    12.7436     5.5591   258.2833 </r>
       <r>    12.8576     3.1299   258.6402 </r>
       <r>    12.9716     2.8797   258.9686 </r>
       <r>    13.0857     2.8986   259.2992 </r>
       <r>    13.1997     5.6210   259.9402 </r>
       <r>    13.3138     9.8328   261.0615 </r>
       <r>    13.4278    15.1280   262.7866 </r>
       <r>    13.5418    19.4652   265.0063 </r>
       <r>    13.6559     9.1565   266.0505 </r>
       <r>    13.7699     9.6536   267.1514 </r>
       <r>    13.8839    18.7440   269.2889 </r>
       <r>    13.9980     6.5646   270.0375 </r>
       <r>    14.1120    11.3868   271.3360 </r>
       <r>    14.2260    24.0450   274.0780 </r>
       <r>    14.3401    17.7422   276.1012 </r>
       <r>    14.4541    16.8635   278.0243 </r>
       <r>    14.5682    24.9991   280.8751 </r>
       <r>    14.6822    19.1390   283.0576 </r>
       <r>    14.7962    12.4181   284.4738 </r>
       <r>    14.9103    21.8806   286.9689 </r>
       <r>    15.0243    28.1535   290.1795 </r>
       <r>    15.1383    22.0120   292.6896 </r>
       <r>    15.2524    33.2852   296.4853 </r>
       <r>    15.3664    23.9886   299.2209 </r>
       <r>    15.4804    24.2714   301.9887 </r>
       <r>    15.5945    18.8583   304.1392 </r>
       <r>    15.7085    24.5401   306.9377 </r>
       <r>    15.8225    37.3278   311.1944 </r>
       <r>    15.9366    40.0046   315.7564 </r>
       <r>    16.0506    40.1627   320.3364 </r>
       <r>    16.1647    52.3265   326.3035 </r>
       <r>    16.2787    35.7941   330.3853 </r>
       <r>    16.3927    19.7558   332.6382 </r>
       <r>    16.5068    30.3236   336.0962 </r>
       <r>    16.6208    19.1886   338.2844 </r>
       <r>    16.7348    28.2881   341.5103 </r>
       <r>    16.8489    45.3133   346.6776 </r>
       <r>    16.9629    44.5294   351.7556 </r>
       <r>    17.0769    39.0126   356.2044 </r>
       <r>    17.1910    30.2991   359.6596 </r>
       <r>    17.3050    16.9287   361.5901 </r>
       <r>    17.4191    22.2701   364.1297 </r>
       <r>    17.5331    25.1901   367.0023 </r>
       <r>    17.6471    25.9869   369.9657 </r>
       <r>    17.7612    29.7627   373.3598 </r>
       <r>    17.8752    23.1423   375.9988 </r>
       <r>    17.9892    22.9674   378.6179 </r>
       <r>    18.1033    17.0233   380.5592 </r>
       <r>    18.2173     7.2599   381.3871 </r>
       <r>    18.3313     4.0471   381.8486 </r>
       <r>    18.4454     9.0469   382.8803 </r>
       <r>    18.5594     3.5339   383.2833 </r>
       <r>    18.6735     1.7522   383.4831 </r>
       <r>    18.7875     0.1703   383.5025 </r>
       <r>    18.9015     1.1962   383.6389 </r>
       <r>    19.0156     0.9522   383.7475 </r>
       <r>    19.1296     0.0222   383.7500 </r>
       <r>    19.2436     0.3599   383.7911 </r>
       <r>    19.3577     1.7367   383.9891 </r>
       <r>    19.4717     0.0955   384.0000 </r>
       <r>    19.5857     0.0000   384.0000 </r>
       <r>    19.6998     0.0000   384.0000 </r>
       <r>    19.8138     0.0000   384.0000 </r>
       <r>    19.9279     0.0000   384.0000 </r>
       <r>    20.0419     0.0000   384.0000 </r>
       <r>    20.1559     0.0000   384.0000 </r>
       <r>    20.2700     0.0000   384.0000 </r>
       <r>    20.3840     0.0000   384.0000 </r>
       <r>    20.4980     0.0000   384.0000 </r>
       <r>    20.6121     0.0000   384.0000 </r>
       <r>    20.7261     0.0000   384.0000 </r>
       <r>    20.8401     0.0000   384.0000 </r>
      </set>
     </set>
    </array>
   </total>
  </dos>
 </calculation>
 <structure name="finalpos" >
  <crystal>
   <varray name="basis" >
    <v>       7.46167279       0.00000000       0.00000000 </v>
    <v>       0.00000000       7.46167279       0.00000000 </v>
    <v>       0.00000000       0.00000000       7.17999872 </v>
   </varray>
   <i name="volume">    399.75763571 </i>
   <varray name="rec_basis" >
    <v>       0.13401821       0.00000000       0.00000000 </v>
    <v>       0.00000000       0.13401821       0.00000000 </v>
    <v>       0.00000000       0.00000000       0.13927579 </v>
   </varray>
  </crystal>
  <varray name="positions" >
   <v>       0.12500000       0.37500000       0.12500000 </v>
   <v>       0.62500000       0.37500000       0.12500000 </v>
   <v>       0.12500000       0.87500000       0.12500000 </v>
   <v>       0.62500000       0.87500000       0.12500000 </v>
   <v>       0.12500000       0.37500000       0.62500000 </v>
   <v>       0.62500000       0.37500000       0.62500000 </v>
   <v>       0.12500000       0.87500000       0.62500000 </v>
   <v>       0.62500000       0.87500000       0.62500000 </v>
   <v>       0.00000000       0.00000000       0.25000000 </v>
   <v>       0.50000000       0.00000000       0.25000000 </v>
   <v>       0.00000000       0.50000000       0.25000000 </v>
   <v>       0.50000000       0.50000000       0.25000000 </v>
   <v>       0.00000000       0.00000000       0.75000000 </v>
   <v>       0.50000000       0.00000000       0.75000000 </v>
   <v>       0.00000000       0.50000000       0.75000000 </v>
   <v>       0.50000000       0.50000000       0.75000000 </v>
   <v>       0.12500000       0.12500000       0.37500000 </v>
   <v>       0.62500000       0.12500000       0.37500000 </v>
   <v>       0.12500000       0.62500000       0.37500000 </v>
   <v>       0.62500000       0.62500000       0.37500000 </v>
   <v>       0.12500000       0.12500000       0.87500000 </v>
   <v>       0.62500000       0.12500000       0.87500000 </v>
   <v>       0.12500000       0.62500000       0.87500000 </v>
   <v>       0.62500000       0.62500000       0.87500000 </v>
   <v>       0.00000000       0.25000000       0.00000000 </v>
   <v>       0.50000000       0.25000000       0.00000000 </v>
   <v>       0.00000000       0.75000000       0.00000000 </v>
   <v>       0.50000000       0.75000000       0.00000000 </v>
   <v>       0.00000000       0.25000000       0.50000000 </v>
   <v>       0.50000000       0.25000000       0.50000000 </v>
   <v>       0.00000000       0.75000000       0.50000000 </v>
   <v>       0.50000000       0.75000000       0.50000000 </v>
   <v>       0.37500000       0.37500000       0.37500000 </v>
   <v>       0.87500000       0.37500000       0.37500000 </v>
   <v>       0.37500000       0.87500000       0.37500000 </v>
   <v>       0.87500000       0.87500000       0.37500000 </v>
   <v>       0.37500000       0.37500000       0.87500000 </v>
   <v>       0.87500000       0.37500000       0.87500000 </v>
   <v>       0.37500000       0.87500000       0.87500000 </v>
   <v>       0.87500000       0.87500000       0.87500000 </v>
   <v>       0.25000000       0.00000000       0.00000000 </v>
   <v>       0.75000000       0.00000000       0.00000000 </v>
   <v>       0.25000000       0.50000000       0.00000000 </v>
   <v>       0.75000000       0.50000000       0.00000000 </v>
   <v>       0.25000000       0.00000000       0.50000000 </v>
   <v>       0.75000000       0.00000000       0.50000000 </v>
   <v>       0.25000000       0.50000000       0.50000000 </v>
   <v>       0.75000000       0.50000000       0.50000000 </v>
   <v>       0.37500000       0.12500000       0.12500000 </v>
   <v>       0.87500000       0.12500000       0.12500000 </v>
   <v>       0.37500000       0.62500000       0.12500000 </v>
   <v>       0.87500000       0.62500000       0.12500000 </v>
   <v>       0.37500000       0.12500000       0.62500000 </v>
   <v>       0.87500000       0.12500000       0.62500000 </v>
   <v>       0.37500000       0.62500000       0.62500000 </v>
   <v>       0.87500000       0.62500000       0.62500000 </v>
   <v>       0.25000000       0.25000000       0.25000000 </v>
   <v>       0.75000000       0.25000000       0.25000000 </v>
   <v>       0.25000000       0.75000000       0.25000000 </v>
   <v>       0.75000000       0.75000000       0.25000000 </v>
   <v>       0.25000000       0.25000000       0.75000000 </v>
   <v>       0.75000000       0.25000000       0.75000000 </v>
   <v>       0.25000000       0.75000000       0.75000000 </v>
   <v>       0.75000000       0.75000000       0.75000000 </v>
  </varray>
 </structure>
</modeling>
