   8   8   0   0
  0.5819264E+01  0.3609270E-09  0.3609270E-09  0.3573710E-09  0.2000000E-16
  1.000000000000000E-004
  CAR 
 unknown system                          
     22.65918800    -13.38676646  301      9.57000079      1.00000000
    -13.387  0.0000E+00  0.0000E+00
    -13.267  0.0000E+00  0.0000E+00
    -13.146  0.0000E+00  0.0000E+00
    -13.026  0.0000E+00  0.0000E+00
    -12.906  0.0000E+00  0.0000E+00
    -12.786  0.0000E+00  0.0000E+00
    -12.666  0.0000E+00  0.0000E+00
    -12.546  0.0000E+00  0.0000E+00
    -12.426  0.0000E+00  0.0000E+00
    -12.305  0.0000E+00  0.0000E+00
    -12.185  0.0000E+00  0.0000E+00
    -12.065  0.0000E+00  0.0000E+00
    -11.945  0.0000E+00  0.0000E+00
    -11.825  0.0000E+00  0.0000E+00
    -11.705  0.3533E-01  0.5146E-03
    -11.584  0.1561E+00  0.1494E-01
    -11.464  0.2446E+00  0.3901E-01
    -11.344  0.2767E+00  0.7000E-01
    -11.224  0.3248E+00  0.1062E+00
    -11.104  0.3655E+00  0.1481E+00
    -10.984  0.3951E+00  0.1937E+00
    -10.864  0.4267E+00  0.2430E+00
    -10.743  0.4656E+00  0.2966E+00
    -10.623  0.4889E+00  0.3541E+00
    -10.503  0.5126E+00  0.4143E+00
    -10.383  0.5390E+00  0.4774E+00
    -10.263  0.5678E+00  0.5439E+00
    -10.143  0.5952E+00  0.6138E+00
    -10.022  0.6147E+00  0.6864E+00
     -9.902  0.6351E+00  0.7615E+00
     -9.782  0.6573E+00  0.8392E+00
     -9.662  0.6805E+00  0.9195E+00
     -9.542  0.7053E+00  0.1003E+01
     -9.422  0.7268E+00  0.1089E+01
     -9.302  0.7449E+00  0.1177E+01
     -9.181  0.7630E+00  0.1268E+01
     -9.061  0.7835E+00  0.1361E+01
     -8.941  0.8045E+00  0.1456E+01
     -8.821  0.8266E+00  0.1554E+01
     -8.701  0.8490E+00  0.1655E+01
     -8.581  0.8667E+00  0.1758E+01
     -8.460  0.8847E+00  0.1863E+01
     -8.340  0.9040E+00  0.1971E+01
     -8.220  0.9239E+00  0.2080E+01
     -8.100  0.9443E+00  0.2193E+01
     -7.980  0.9833E+00  0.2308E+01
     -7.860  0.1034E+01  0.2430E+01
     -7.740  0.1073E+01  0.2556E+01
     -7.619  0.1108E+01  0.2688E+01
     -7.499  0.1104E+01  0.2821E+01
     -7.379  0.1075E+01  0.2952E+01
     -7.259  0.1062E+01  0.3080E+01
     -7.139  0.1086E+01  0.3209E+01
     -7.019  0.1096E+01  0.3340E+01
     -6.898  0.1100E+01  0.3472E+01
     -6.778  0.1138E+01  0.3606E+01
     -6.658  0.1208E+01  0.3747E+01
     -6.538  0.1268E+01  0.3895E+01
     -6.418  0.1365E+01  0.4053E+01
     -6.298  0.1403E+01  0.4220E+01
     -6.178  0.1551E+01  0.4396E+01
     -6.057  0.1668E+01  0.4590E+01
     -5.937  0.1602E+01  0.4785E+01
     -5.817  0.1555E+01  0.4975E+01
     -5.697  0.1443E+01  0.5157E+01
     -5.577  0.1445E+01  0.5329E+01
     -5.457  0.1410E+01  0.5503E+01
     -5.337  0.1446E+01  0.5672E+01
     -5.216  0.1389E+01  0.5842E+01
     -5.096  0.1264E+01  0.6001E+01
     -4.976  0.1238E+01  0.6150E+01
     -4.856  0.1209E+01  0.6297E+01
     -4.736  0.1212E+01  0.6442E+01
     -4.616  0.1144E+01  0.6586E+01
     -4.495  0.1113E+01  0.6719E+01
     -4.375  0.1082E+01  0.6851E+01
     -4.255  0.1029E+01  0.6982E+01
     -4.135  0.1002E+01  0.7105E+01
     -4.015  0.9809E+00  0.7223E+01
     -3.895  0.9834E+00  0.7342E+01
     -3.775  0.9302E+00  0.7458E+01
     -3.654  0.8449E+00  0.7564E+01
     -3.534  0.9432E+00  0.7668E+01
     -3.414  0.9090E+00  0.7781E+01
     -3.294  0.9867E+00  0.7894E+01
     -3.174  0.9784E+00  0.8013E+01
     -3.054  0.9103E+00  0.8127E+01
     -2.933  0.1010E+01  0.8238E+01
     -2.813  0.9618E+00  0.8354E+01
     -2.693  0.9707E+00  0.8469E+01
     -2.573  0.1070E+01  0.8592E+01
     -2.453  0.1255E+01  0.8729E+01
     -2.333  0.1472E+01  0.8894E+01
     -2.213  0.1713E+01  0.9085E+01
     -2.092  0.2002E+01  0.9307E+01
     -1.972  0.2585E+01  0.9580E+01
     -1.852  0.3222E+01  0.9933E+01
     -1.732  0.2637E+01  0.1030E+02
     -1.612  0.2067E+01  0.1058E+02
     -1.492  0.1809E+01  0.1081E+02
     -1.371  0.1671E+01  0.1102E+02
     -1.251  0.1568E+01  0.1122E+02
     -1.131  0.1485E+01  0.1140E+02
     -1.011  0.1426E+01  0.1157E+02
     -0.891  0.1397E+01  0.1174E+02
     -0.771  0.1361E+01  0.1191E+02
     -0.651  0.1328E+01  0.1207E+02
     -0.530  0.1238E+01  0.1223E+02
     -0.410  0.1177E+01  0.1237E+02
     -0.290  0.1113E+01  0.1251E+02
     -0.170  0.1095E+01  0.1264E+02
     -0.050  0.1082E+01  0.1277E+02
      0.070  0.1073E+01  0.1290E+02
      0.191  0.1025E+01  0.1303E+02
      0.311  0.1079E+01  0.1315E+02
      0.431  0.1335E+01  0.1330E+02
      0.551  0.1574E+01  0.1347E+02
      0.671  0.1807E+01  0.1368E+02
      0.791  0.2146E+01  0.1391E+02
      0.911  0.2302E+01  0.1419E+02
      1.032  0.2194E+01  0.1446E+02
      1.152  0.2231E+01  0.1472E+02
      1.272  0.2336E+01  0.1500E+02
      1.392  0.2163E+01  0.1527E+02
      1.512  0.1768E+01  0.1550E+02
      1.632  0.1478E+01  0.1569E+02
      1.753  0.1609E+01  0.1588E+02
      1.873  0.1949E+01  0.1609E+02
      1.993  0.2162E+01  0.1634E+02
      2.113  0.2357E+01  0.1661E+02
      2.233  0.2422E+01  0.1690E+02
      2.353  0.2402E+01  0.1719E+02
      2.473  0.2338E+01  0.1747E+02
      2.594  0.2373E+01  0.1776E+02
      2.714  0.2653E+01  0.1806E+02
      2.834  0.3046E+01  0.1839E+02
      2.954  0.3243E+01  0.1878E+02
      3.074  0.2775E+01  0.1913E+02
      3.194  0.2403E+01  0.1943E+02
      3.315  0.2673E+01  0.1974E+02
      3.435  0.2917E+01  0.2008E+02
      3.555  0.2957E+01  0.2042E+02
      3.675  0.3661E+01  0.2082E+02
      3.795  0.4214E+01  0.2129E+02
      3.915  0.3460E+01  0.2175E+02
      4.035  0.2951E+01  0.2214E+02
      4.156  0.2620E+01  0.2247E+02
      4.276  0.2658E+01  0.2278E+02
      4.396  0.3074E+01  0.2312E+02
      4.516  0.2789E+01  0.2348E+02
      4.636  0.3018E+01  0.2382E+02
      4.756  0.3046E+01  0.2419E+02
      4.877  0.2991E+01  0.2455E+02
      4.997  0.3043E+01  0.2491E+02
      5.117  0.3145E+01  0.2529E+02
      5.237  0.3042E+01  0.2566E+02
      5.357  0.2643E+01  0.2601E+02
      5.477  0.2473E+01  0.2631E+02
      5.597  0.2431E+01  0.2660E+02
      5.718  0.2492E+01  0.2689E+02
      5.838  0.2788E+01  0.2721E+02
      5.958  0.2859E+01  0.2755E+02
      6.078  0.2833E+01  0.2789E+02
      6.198  0.2718E+01  0.2823E+02
      6.318  0.2570E+01  0.2855E+02
      6.439  0.2486E+01  0.2885E+02
      6.559  0.2575E+01  0.2915E+02
      6.679  0.2950E+01  0.2948E+02
      6.799  0.1936E+01  0.2977E+02
      6.919  0.1741E+01  0.2999E+02
      7.039  0.1593E+01  0.3019E+02
      7.159  0.1466E+01  0.3037E+02
      7.280  0.1370E+01  0.3054E+02
      7.400  0.1287E+01  0.3070E+02
      7.520  0.1202E+01  0.3085E+02
      7.640  0.1087E+01  0.3099E+02
      7.760  0.9902E+00  0.3111E+02
      7.880  0.9156E+00  0.3123E+02
      8.000  0.8651E+00  0.3134E+02
      8.121  0.8083E+00  0.3144E+02
      8.241  0.7389E+00  0.3153E+02
      8.361  0.6521E+00  0.3161E+02
      8.481  0.5925E+00  0.3169E+02
      8.601  0.5485E+00  0.3176E+02
      8.721  0.4774E+00  0.3182E+02
      8.842  0.3740E+00  0.3187E+02
      8.962  0.3695E+00  0.3191E+02
      9.082  0.3128E+00  0.3195E+02
      9.202  0.1509E+00  0.3198E+02
      9.322  0.9849E-01  0.3200E+02
      9.442  0.7223E-02  0.3200E+02
      9.562  0.0000E+00  0.3200E+02
      9.683  0.0000E+00  0.3200E+02
      9.803  0.0000E+00  0.3200E+02
      9.923  0.0000E+00  0.3200E+02
     10.043  0.0000E+00  0.3200E+02
     10.163  0.0000E+00  0.3200E+02
     10.283  0.0000E+00  0.3200E+02
     10.404  0.0000E+00  0.3200E+02
     10.524  0.0000E+00  0.3200E+02
     10.644  0.0000E+00  0.3200E+02
     10.764  0.0000E+00  0.3200E+02
     10.884  0.0000E+00  0.3200E+02
     11.004  0.0000E+00  0.3200E+02
     11.124  0.0000E+00  0.3200E+02
     11.245  0.0000E+00  0.3200E+02
     11.365  0.0000E+00  0.3200E+02
     11.485  0.0000E+00  0.3200E+02
     11.605  0.0000E+00  0.3200E+02
     11.725  0.0000E+00  0.3200E+02
     11.845  0.0000E+00  0.3200E+02
     11.966  0.0000E+00  0.3200E+02
     12.086  0.0000E+00  0.3200E+02
     12.206  0.0000E+00  0.3200E+02
     12.326  0.0000E+00  0.3200E+02
     12.446  0.0000E+00  0.3200E+02
     12.566  0.0000E+00  0.3200E+02
     12.686  0.0000E+00  0.3200E+02
     12.807  0.0000E+00  0.3200E+02
     12.927  0.0000E+00  0.3200E+02
     13.047  0.0000E+00  0.3200E+02
     13.167  0.0000E+00  0.3200E+02
     13.287  0.0000E+00  0.3200E+02
     13.407  0.2085E-01  0.3200E+02
     13.528  0.7676E-01  0.3201E+02
     13.648  0.2001E+00  0.3202E+02
     13.768  0.3640E+00  0.3206E+02
     13.888  0.6365E+00  0.3211E+02
     14.008  0.5883E+00  0.3219E+02
     14.128  0.6756E+00  0.3226E+02
     14.248  0.8512E+00  0.3236E+02
     14.369  0.9897E+00  0.3246E+02
     14.489  0.1169E+01  0.3259E+02
     14.609  0.1661E+01  0.3275E+02
     14.729  0.1497E+01  0.3293E+02
     14.849  0.1523E+01  0.3312E+02
     14.969  0.1583E+01  0.3330E+02
     15.090  0.1620E+01  0.3350E+02
     15.210  0.1747E+01  0.3370E+02
     15.330  0.1869E+01  0.3391E+02
     15.450  0.2038E+01  0.3415E+02
     15.570  0.2255E+01  0.3441E+02
     15.690  0.2236E+01  0.3468E+02
     15.810  0.2126E+01  0.3494E+02
     15.931  0.2144E+01  0.3520E+02
     16.051  0.2181E+01  0.3546E+02
     16.171  0.2296E+01  0.3572E+02
     16.291  0.2433E+01  0.3601E+02
     16.411  0.2606E+01  0.3631E+02
     16.531  0.2763E+01  0.3663E+02
     16.652  0.2851E+01  0.3697E+02
     16.772  0.2925E+01  0.3732E+02
     16.892  0.3110E+01  0.3768E+02
     17.012  0.3329E+01  0.3807E+02
     17.132  0.3585E+01  0.3848E+02
     17.252  0.4043E+01  0.3894E+02
     17.372  0.4403E+01  0.3945E+02
     17.493  0.4696E+01  0.4000E+02
     17.613  0.4864E+01  0.4059E+02
     17.733  0.3268E+01  0.4103E+02
     17.853  0.3565E+01  0.4146E+02
     17.973  0.4047E+01  0.4191E+02
     18.093  0.3861E+01  0.4240E+02
     18.214  0.3774E+01  0.4284E+02
     18.334  0.3764E+01  0.4330E+02
     18.454  0.3519E+01  0.4374E+02
     18.574  0.3002E+01  0.4414E+02
     18.694  0.2779E+01  0.4448E+02
     18.814  0.2624E+01  0.4481E+02
     18.934  0.2580E+01  0.4512E+02
     19.055  0.2812E+01  0.4544E+02
     19.175  0.2889E+01  0.4578E+02
     19.295  0.2870E+01  0.4612E+02
     19.415  0.2794E+01  0.4647E+02
     19.535  0.2674E+01  0.4679E+02
     19.655  0.2508E+01  0.4711E+02
     19.776  0.2048E+01  0.4738E+02
     19.896  0.1559E+01  0.4760E+02
     20.016  0.1054E+01  0.4776E+02
     20.136  0.6066E+00  0.4785E+02
     20.256  0.3516E+00  0.4791E+02
     20.376  0.2370E+00  0.4794E+02
     20.496  0.1651E+00  0.4797E+02
     20.617  0.1081E+00  0.4798E+02
     20.737  0.5941E-01  0.4799E+02
     20.857  0.1914E-01  0.4800E+02
     20.977  0.1136E-02  0.4800E+02
     21.097  0.0000E+00  0.4800E+02
     21.217  0.0000E+00  0.4800E+02
     21.338  0.0000E+00  0.4800E+02
     21.458  0.0000E+00  0.4800E+02
     21.578  0.0000E+00  0.4800E+02
     21.698  0.0000E+00  0.4800E+02
     21.818  0.0000E+00  0.4800E+02
     21.938  0.0000E+00  0.4800E+02
     22.058  0.0000E+00  0.4800E+02
     22.179  0.0000E+00  0.4800E+02
     22.299  0.0000E+00  0.4800E+02
     22.419  0.0000E+00  0.4800E+02
     22.539  0.0000E+00  0.4800E+02
     22.659  0.0000E+00  0.4800E+02
