       N       E                     dE             d eps       ncg     rms          rms(c)
DAV:   1     0.578226510077E+02    0.57823E+02   -0.14405E+04  9408   0.105E+03
DAV:   2    -0.707863339544E+02   -0.12861E+03   -0.12186E+03 13032   0.221E+02
DAV:   3    -0.750073641997E+02   -0.42210E+01   -0.42012E+01 12224   0.374E+01
DAV:   4    -0.750517966149E+02   -0.44432E-01   -0.44397E-01 11880   0.418E+00
DAV:   5    -0.750527504450E+02   -0.95383E-03   -0.95337E-03 12200   0.542E-01    0.921E+00
DAV:   6    -0.732997269040E+02    0.17530E+01   -0.11661E+00 10928   0.609E+00    0.507E+00
DAV:   7    -0.727070924838E+02    0.59263E+00   -0.13258E+00 11104   0.668E+00    0.689E-01
DAV:   8    -0.727142416280E+02   -0.71491E-02   -0.26403E-02 12072   0.940E-01    0.785E-02
DAV:   9    -0.727144597685E+02   -0.21814E-03   -0.42812E-04 11416   0.138E-01    0.280E-02
DAV:  10    -0.727145158021E+02   -0.56034E-04   -0.49587E-05 11944   0.530E-02    0.268E-03
DAV:  11    -0.727145163627E+02   -0.56064E-06   -0.11140E-06  8800   0.730E-03
   1 F= -.72714516E+02 E0= -.72714516E+02  d E =0.000000E+00
