  64  64   0   0
  0.5780106E+01  0.7179999E-09  0.7179998E-09  0.7179998E-09  0.5000000E-15
  1.000000000000000E-004
  CAR 
 unknown system                          
     22.87298232    -13.39424218  301      9.82433717      1.00000000
    -13.394  0.0000E+00  0.0000E+00
    -13.273  0.0000E+00  0.0000E+00
    -13.152  0.0000E+00  0.0000E+00
    -13.032  0.0000E+00  0.0000E+00
    -12.911  0.0000E+00  0.0000E+00
    -12.790  0.0000E+00  0.0000E+00
    -12.669  0.0000E+00  0.0000E+00
    -12.548  0.0000E+00  0.0000E+00
    -12.427  0.0000E+00  0.0000E+00
    -12.306  0.0000E+00  0.0000E+00
    -12.185  0.0000E+00  0.0000E+00
    -12.064  0.2228E-14  0.2693E-15
    -11.944  0.1197E-06  0.1447E-07
    -11.823  0.2891E-02  0.3495E-03
    -11.702  0.2353E+00  0.2879E-01
    -11.581  0.1224E+01  0.1768E+00
    -11.460  0.1423E+01  0.3488E+00
    -11.339  0.2814E+01  0.6890E+00
    -11.218  0.1564E+01  0.8781E+00
    -11.097  0.3561E+01  0.1309E+01
    -10.976  0.2835E+01  0.1651E+01
    -10.856  0.3845E+01  0.2116E+01
    -10.735  0.2346E+01  0.2400E+01
    -10.614  0.4722E+01  0.2971E+01
    -10.493  0.4323E+01  0.3493E+01
    -10.372  0.4823E+01  0.4076E+01
    -10.251  0.2487E+01  0.4377E+01
    -10.130  0.4985E+01  0.4980E+01
    -10.009  0.6146E+01  0.5723E+01
     -9.888  0.5398E+01  0.6375E+01
     -9.768  0.4497E+01  0.6919E+01
     -9.647  0.4325E+01  0.7442E+01
     -9.526  0.6369E+01  0.8212E+01
     -9.405  0.5644E+01  0.8894E+01
     -9.284  0.5496E+01  0.9559E+01
     -9.163  0.7020E+01  0.1041E+02
     -9.042  0.6842E+01  0.1123E+02
     -8.921  0.6049E+01  0.1197E+02
     -8.800  0.5562E+01  0.1264E+02
     -8.680  0.4355E+01  0.1316E+02
     -8.559  0.9215E+01  0.1428E+02
     -8.438  0.7717E+01  0.1521E+02
     -8.317  0.8607E+01  0.1625E+02
     -8.196  0.5810E+01  0.1695E+02
     -8.075  0.6970E+01  0.1780E+02
     -7.954  0.6944E+01  0.1864E+02
     -7.833  0.7747E+01  0.1957E+02
     -7.712  0.7397E+01  0.2047E+02
     -7.591  0.1008E+02  0.2169E+02
     -7.471  0.8133E+01  0.2267E+02
     -7.350  0.8983E+01  0.2375E+02
     -7.229  0.7664E+01  0.2468E+02
     -7.108  0.9851E+01  0.2587E+02
     -6.987  0.9374E+01  0.2701E+02
     -6.866  0.7332E+01  0.2789E+02
     -6.745  0.7358E+01  0.2878E+02
     -6.624  0.1240E+02  0.3028E+02
     -6.503  0.9830E+01  0.3147E+02
     -6.383  0.1256E+02  0.3299E+02
     -6.262  0.1181E+02  0.3442E+02
     -6.141  0.9790E+01  0.3560E+02
     -6.020  0.1068E+02  0.3689E+02
     -5.899  0.1252E+02  0.3840E+02
     -5.778  0.9667E+01  0.3957E+02
     -5.657  0.1002E+02  0.4078E+02
     -5.536  0.1518E+02  0.4262E+02
     -5.415  0.1275E+02  0.4416E+02
     -5.295  0.8972E+01  0.4524E+02
     -5.174  0.1179E+02  0.4667E+02
     -5.053  0.1112E+02  0.4801E+02
     -4.932  0.1251E+02  0.4953E+02
     -4.811  0.5990E+01  0.5025E+02
     -4.690  0.9095E+01  0.5135E+02
     -4.569  0.9312E+01  0.5247E+02
     -4.448  0.7821E+01  0.5342E+02
     -4.327  0.7567E+01  0.5434E+02
     -4.207  0.1104E+02  0.5567E+02
     -4.086  0.1054E+02  0.5694E+02
     -3.965  0.5469E+01  0.5761E+02
     -3.844  0.8622E+01  0.5865E+02
     -3.723  0.8977E+01  0.5973E+02
     -3.602  0.6751E+01  0.6055E+02
     -3.481  0.5823E+01  0.6125E+02
     -3.360  0.5508E+01  0.6192E+02
     -3.239  0.9180E+01  0.6303E+02
     -3.119  0.9855E+01  0.6422E+02
     -2.998  0.5858E+01  0.6493E+02
     -2.877  0.1169E+02  0.6634E+02
     -2.756  0.1114E+02  0.6769E+02
     -2.635  0.1008E+02  0.6891E+02
     -2.514  0.6204E+01  0.6966E+02
     -2.393  0.1050E+02  0.7093E+02
     -2.272  0.1087E+02  0.7224E+02
     -2.151  0.1119E+02  0.7359E+02
     -2.031  0.1198E+02  0.7504E+02
     -1.910  0.1662E+02  0.7705E+02
     -1.789  0.2672E+02  0.8028E+02
     -1.668  0.2058E+02  0.8277E+02
     -1.547  0.1775E+02  0.8491E+02
     -1.426  0.1794E+02  0.8708E+02
     -1.305  0.1402E+02  0.8878E+02
     -1.184  0.9424E+01  0.8992E+02
     -1.063  0.1025E+02  0.9116E+02
     -0.942  0.9433E+01  0.9230E+02
     -0.822  0.1195E+02  0.9374E+02
     -0.701  0.1054E+02  0.9502E+02
     -0.580  0.8247E+01  0.9601E+02
     -0.459  0.1368E+02  0.9767E+02
     -0.338  0.1408E+02  0.9937E+02
     -0.217  0.1090E+02  0.1007E+03
     -0.096  0.5771E+01  0.1014E+03
      0.025  0.5364E+01  0.1020E+03
      0.146  0.7309E+01  0.1029E+03
      0.266  0.7882E+01  0.1039E+03
      0.387  0.1373E+02  0.1055E+03
      0.508  0.1078E+02  0.1068E+03
      0.629  0.6349E+01  0.1076E+03
      0.750  0.1550E+02  0.1095E+03
      0.871  0.2135E+02  0.1121E+03
      0.992  0.2140E+02  0.1146E+03
      1.113  0.1624E+02  0.1166E+03
      1.234  0.1298E+02  0.1182E+03
      1.354  0.1204E+02  0.1196E+03
      1.475  0.1454E+02  0.1214E+03
      1.596  0.1882E+02  0.1237E+03
      1.717  0.2059E+02  0.1261E+03
      1.838  0.1965E+02  0.1285E+03
      1.959  0.1280E+02  0.1301E+03
      2.080  0.1371E+02  0.1317E+03
      2.201  0.1976E+02  0.1341E+03
      2.322  0.2114E+02  0.1367E+03
      2.442  0.1810E+02  0.1389E+03
      2.563  0.1486E+02  0.1407E+03
      2.684  0.1967E+02  0.1430E+03
      2.805  0.1949E+02  0.1454E+03
      2.926  0.1753E+02  0.1475E+03
      3.047  0.2516E+02  0.1506E+03
      3.168  0.2336E+02  0.1534E+03
      3.289  0.2547E+02  0.1565E+03
      3.410  0.2457E+02  0.1594E+03
      3.530  0.1877E+02  0.1617E+03
      3.651  0.2403E+02  0.1646E+03
      3.772  0.2618E+02  0.1678E+03
      3.893  0.2765E+02  0.1711E+03
      4.014  0.2566E+02  0.1742E+03
      4.135  0.2824E+02  0.1776E+03
      4.256  0.2532E+02  0.1807E+03
      4.377  0.1755E+02  0.1828E+03
      4.498  0.2414E+02  0.1857E+03
      4.618  0.2376E+02  0.1886E+03
      4.739  0.2371E+02  0.1915E+03
      4.860  0.2380E+02  0.1943E+03
      4.981  0.2279E+02  0.1971E+03
      5.102  0.2722E+02  0.2004E+03
      5.223  0.2002E+02  0.2028E+03
      5.344  0.2287E+02  0.2056E+03
      5.465  0.2288E+02  0.2083E+03
      5.586  0.2139E+02  0.2109E+03
      5.706  0.1849E+02  0.2132E+03
      5.827  0.1912E+02  0.2155E+03
      5.948  0.2606E+02  0.2186E+03
      6.069  0.2372E+02  0.2215E+03
      6.190  0.2295E+02  0.2243E+03
      6.311  0.2005E+02  0.2267E+03
      6.432  0.1742E+02  0.2288E+03
      6.553  0.1579E+02  0.2307E+03
      6.674  0.2025E+02  0.2332E+03
      6.795  0.2406E+02  0.2361E+03
      6.915  0.2014E+02  0.2385E+03
      7.036  0.1142E+02  0.2399E+03
      7.157  0.1078E+02  0.2412E+03
      7.278  0.1340E+02  0.2428E+03
      7.399  0.1005E+02  0.2440E+03
      7.520  0.1083E+02  0.2453E+03
      7.641  0.1290E+02  0.2469E+03
      7.762  0.9191E+01  0.2480E+03
      7.883  0.7091E+01  0.2489E+03
      8.003  0.5986E+01  0.2496E+03
      8.124  0.7817E+01  0.2505E+03
      8.245  0.7987E+01  0.2515E+03
      8.366  0.5624E+01  0.2522E+03
      8.487  0.4225E+01  0.2527E+03
      8.608  0.6025E+01  0.2534E+03
      8.729  0.5443E+01  0.2541E+03
      8.850  0.3940E+01  0.2545E+03
      8.971  0.2031E+01  0.2548E+03
      9.091  0.3170E+01  0.2552E+03
      9.212  0.3908E+01  0.2556E+03
      9.333  0.1522E+01  0.2558E+03
      9.454  0.1018E+01  0.2559E+03
      9.575  0.4345E+00  0.2560E+03
      9.696  0.1452E-01  0.2560E+03
      9.817  0.1957E-05  0.2560E+03
      9.938  0.1268E-12  0.2560E+03
     10.059  0.0000E+00  0.2560E+03
     10.179  0.0000E+00  0.2560E+03
     10.300  0.0000E+00  0.2560E+03
     10.421  0.0000E+00  0.2560E+03
     10.542  0.0000E+00  0.2560E+03
     10.663  0.0000E+00  0.2560E+03
     10.784  0.0000E+00  0.2560E+03
     10.905  0.0000E+00  0.2560E+03
     11.026  0.0000E+00  0.2560E+03
     11.147  0.0000E+00  0.2560E+03
     11.267  0.0000E+00  0.2560E+03
     11.388  0.0000E+00  0.2560E+03
     11.509  0.0000E+00  0.2560E+03
     11.630  0.0000E+00  0.2560E+03
     11.751  0.0000E+00  0.2560E+03
     11.872  0.0000E+00  0.2560E+03
     11.993  0.0000E+00  0.2560E+03
     12.114  0.0000E+00  0.2560E+03
     12.235  0.0000E+00  0.2560E+03
     12.355  0.0000E+00  0.2560E+03
     12.476  0.0000E+00  0.2560E+03
     12.597  0.0000E+00  0.2560E+03
     12.718  0.0000E+00  0.2560E+03
     12.839  0.0000E+00  0.2560E+03
     12.960  0.0000E+00  0.2560E+03
     13.081  0.0000E+00  0.2560E+03
     13.202  0.3571E-15  0.2560E+03
     13.323  0.6961E-07  0.2560E+03
     13.444  0.5812E-02  0.2560E+03
     13.564  0.6202E+00  0.2561E+03
     13.685  0.1027E+01  0.2562E+03
     13.806  0.2320E+01  0.2565E+03
     13.927  0.6657E+01  0.2573E+03
     14.048  0.5961E+01  0.2580E+03
     14.169  0.4769E+01  0.2586E+03
     14.290  0.4944E+01  0.2592E+03
     14.411  0.8013E+01  0.2601E+03
     14.532  0.6436E+01  0.2609E+03
     14.652  0.8867E+01  0.2620E+03
     14.773  0.1425E+02  0.2637E+03
     14.894  0.1431E+02  0.2655E+03
     15.015  0.1173E+02  0.2669E+03
     15.136  0.1331E+02  0.2685E+03
     15.257  0.1156E+02  0.2699E+03
     15.378  0.1017E+02  0.2711E+03
     15.499  0.1345E+02  0.2727E+03
     15.620  0.1469E+02  0.2745E+03
     15.740  0.2079E+02  0.2770E+03
     15.861  0.2347E+02  0.2799E+03
     15.982  0.1901E+02  0.2822E+03
     16.103  0.1723E+02  0.2842E+03
     16.224  0.1540E+02  0.2861E+03
     16.345  0.1922E+02  0.2884E+03
     16.466  0.2096E+02  0.2910E+03
     16.587  0.1896E+02  0.2932E+03
     16.708  0.1892E+02  0.2955E+03
     16.828  0.1921E+02  0.2979E+03
     16.949  0.3117E+02  0.3016E+03
     17.070  0.3386E+02  0.3057E+03
     17.191  0.2851E+02  0.3092E+03
     17.312  0.2790E+02  0.3125E+03
     17.433  0.3612E+02  0.3169E+03
     17.554  0.3272E+02  0.3209E+03
     17.675  0.2657E+02  0.3241E+03
     17.796  0.1752E+02  0.3262E+03
     17.916  0.2083E+02  0.3287E+03
     18.037  0.2895E+02  0.3322E+03
     18.158  0.4372E+02  0.3375E+03
     18.279  0.3452E+02  0.3417E+03
     18.400  0.4110E+02  0.3466E+03
     18.521  0.3539E+02  0.3509E+03
     18.642  0.2587E+02  0.3540E+03
     18.763  0.2809E+02  0.3574E+03
     18.884  0.2789E+02  0.3608E+03
     19.004  0.2055E+02  0.3633E+03
     19.125  0.1844E+02  0.3655E+03
     19.246  0.2939E+02  0.3691E+03
     19.367  0.2850E+02  0.3725E+03
     19.488  0.2075E+02  0.3750E+03
     19.609  0.2677E+02  0.3783E+03
     19.730  0.1610E+02  0.3802E+03
     19.851  0.1033E+02  0.3815E+03
     19.972  0.6176E+01  0.3822E+03
     20.092  0.3338E+01  0.3826E+03
     20.213  0.2325E+01  0.3829E+03
     20.334  0.1309E+01  0.3831E+03
     20.455  0.2659E+01  0.3834E+03
     20.576  0.2858E+01  0.3837E+03
     20.697  0.6107E+00  0.3838E+03
     20.818  0.6101E-01  0.3838E+03
     20.939  0.1112E+01  0.3839E+03
     21.060  0.2086E+00  0.3840E+03
     21.181  0.4607E-01  0.3840E+03
     21.301  0.2497E+00  0.3840E+03
     21.422  0.1069E-01  0.3840E+03
     21.543  0.4780E-06  0.3840E+03
     21.664  0.8912E-14  0.3840E+03
     21.785  0.0000E+00  0.3840E+03
     21.906  0.0000E+00  0.3840E+03
     22.027  0.0000E+00  0.3840E+03
     22.148  0.0000E+00  0.3840E+03
     22.269  0.0000E+00  0.3840E+03
     22.389  0.0000E+00  0.3840E+03
     22.510  0.0000E+00  0.3840E+03
     22.631  0.0000E+00  0.3840E+03
     22.752  0.0000E+00  0.3840E+03
     22.873  0.0000E+00  0.3840E+03
