  64   64
1 1
    42.777363391160002    -1.822372097860000    -1.786982767350000
    -1.822372097860000    42.850267638849999    -1.751587791670000
    -1.786982767350000    -1.751587791670000    42.918968997419995
1 2
    -0.161433365060000    -0.002132913380000    -0.002091475430000
    -0.002132913380000    -0.092693811510000     0.000433476990000
    -0.002091475430000     0.000433476990000    -0.092710747020000
1 3
    -0.092806594800000    -0.003505770680000     0.000391558600000
    -0.003505770680000    -0.161320581770000    -0.002099763020000
     0.000391558600000    -0.002099763020000    -0.092710747020000
1 4
    -0.113767111010000     0.011563109810000     0.003145801010000
     0.011563109810000    -0.114229774730000     0.003083584030000
     0.003145801010000     0.003083584030000     0.566320932090000
1 5
    -0.092806594800000     0.000322735570000    -0.003512737060000
     0.000322735570000    -0.092819446570000    -0.003443193370000
    -0.003512737060000    -0.003443193370000    -0.161211762110000
1 6
    -0.113767111010000     0.003371968140000     0.011499211290000
     0.003371968140000     0.566180163170000    -0.010260396750000
     0.011499211290000    -0.010260396750000    -0.114089005810000
1 7
     0.566043117660000    -0.010227006170000    -0.010028344230000
    -0.010227006170000    -0.113629945390000     0.011702197190000
    -0.010028344230000     0.011702197190000    -0.114089005810000
1 8
    -0.051935323780000    -0.002311877280000    -0.002266956140000
    -0.002311877280000    -0.051842839080000    -0.002222155110000
    -0.002266956140000    -0.002222155110000    -0.051755759330000
1 9
     0.143790046830000     0.078408288440000    -0.015302854770000
     0.078408288440000     0.050884361280000    -0.086864272660000
    -0.015302854770000    -0.086864272660000     0.173002360260000
1 10
    -0.088352675780000     0.122844904700000     0.217224700280000
     0.122844904700000    -0.102578384070000    -0.224275757830000
     0.217224700280000    -0.224275757830000    -0.350951691090000
1 11
    -9.091944449649999     2.265095756210000     2.221108831790000
     2.265095756210000    -9.317588380489999    -2.340591016820000
     2.221108831790000    -2.340591016820000    -9.225782061769999
1 12
     0.089707396470000     0.103276703610000     0.101271106830000
     0.103276703610000     0.150976828680000     0.034930149980000
     0.101271106830000     0.034930149980000     0.149606733910000
1 13
    -0.311930114070000     0.214336054780000     0.210173762840000
     0.214336054780000    -0.056354531010000    -0.083915932490000
     0.210173762840000    -0.083915932490000    -0.053063036570000
1 14
     0.032805884520000     0.032419370540000     0.031789753920000
     0.032419370540000     0.034798749640000    -0.028786163150000
     0.031789753920000    -0.028786163150000     0.035927783640000
1 15
     0.143790046830000    -0.013762444020000     0.078693309470000
    -0.013762444020000     0.169549678200000    -0.089191403910000
     0.078693309470000    -0.089191403910000     0.054337043340000
1 16
    -0.088352675780000     0.219591708050000     0.118562022320000
     0.219591708050000    -0.359649696960000    -0.219234140580000
     0.118562022320000    -0.219234140580000    -0.093880378200000
1 17
     1.398581138590000    -0.738697279030000     0.726532177900000
     0.711908184850000    -1.529661625660000     1.616276429850000
    -0.752801075670000     1.649884048620000    -1.593716528880000
1 18
     0.058358206030000    -0.038867716110000     0.032689618040000
     0.031921154260000    -0.083189627320000    -0.078412612400000
    -0.039501176250000    -0.079508616150000    -0.080092470860000
1 19
     1.339993762680000    -0.745444938720000    -0.730968801080000
     0.608777054560000    -1.449403643220000    -1.465093852740000
     0.596954987590000    -1.465093852740000    -1.391937614270000
1 20
     0.051512896910000    -0.044227504750000    -0.043368598140000
     0.034262218270000    -0.081844155100000     0.071398068290000
     0.033596808870000     0.071398068290000    -0.084644639860000
1 21
     1.339993762680000     0.608777054560000     0.596954987590000
    -0.745444938720000    -1.449403643220000    -1.465093852740000
    -0.730968801080000    -1.465093852740000    -1.391937614270000
1 22
     0.051512896910000     0.034262218270000     0.033596808870000
    -0.044227504750000    -0.081844155100000     0.071398068290000
    -0.043368598140000     0.071398068290000    -0.084644639860000
1 23
     1.398581138590000     0.711908184850000    -0.752801075670000
    -0.738697279030000    -1.529661625660000     1.649884048620000
     0.726532177900000     1.616276429850000    -1.593716528880000
1 24
     0.058358206030000     0.031921154260000    -0.039501176250000
    -0.038867716110000    -0.083189627320000    -0.079508616150000
     0.032689618040000    -0.078412612400000    -0.080092470860000
1 25
    -7.914031685149999    -0.806699116960000    -0.791033529990000
    -0.806699116960000    -7.881756686829999    -0.775368903900000
    -0.791033529990000    -0.775368903900000    -7.851343753839999
1 26
     0.064392652540000    -0.102948923420000    -0.100949812580000
    -0.102948923420000     0.155363365990000     0.030346992600000
    -0.100949812580000     0.030346992600000     0.154172955780000
1 27
     0.151209842080000    -0.104685593910000     0.028321938000000
    -0.104685593910000     0.068546176450000    -0.101536429820000
     0.028321938000000    -0.101536429820000     0.154172955780000
1 28
    -0.085709174790000    -0.087024619510000    -0.198357941590000
    -0.087024619510000    -0.082227546220000    -0.194429744040000
    -0.198357941590000    -0.194429744040000    -0.338871267510000
1 29
     0.151209842080000     0.026263853150000    -0.105220804070000
     0.026263853150000     0.150158999690000    -0.103137015680000
    -0.105220804070000    -0.103137015680000     0.072560132540000
1 30
    -0.085709174790000    -0.200026269490000    -0.083118402090000
    -0.200026269490000    -0.346395918790000    -0.189248919300000
    -0.083118402090000    -0.189248919300000    -0.074702894940000
1 31
    -0.354290989310000    -0.194653508970000    -0.190873527160000
    -0.194653508970000    -0.077813984160000    -0.079316920590000
    -0.190873527160000    -0.079316920590000    -0.074702894940000
1 32
     0.028856427500000    -0.031372011340000    -0.030762813420000
    -0.031372011340000     0.030111456890000    -0.030153615500000
    -0.030762813420000    -0.030153615500000     0.031294180060000
1 33
    -1.451020443930000     0.664608146190000    -1.479420093100000
    -0.689613726980000     1.341610683500000    -0.701520951940000
    -1.452861610120000     0.626137153410000    -1.391937614270000
1 34
    -1.529026604090000     0.770472259420000     1.630484001530000
    -0.680133444680000     1.397945276250000     0.694061160060000
     1.634498317950000    -0.785648278030000    -1.593716528880000
1 35
    -0.081990088750000     0.036932744010000     0.070516460890000
    -0.041556858900000     0.051658830560000    -0.044787938010000
     0.072055790650000     0.032162215030000    -0.084644639860000
1 36
    -0.083271902670000     0.034754308940000    -0.077743119260000
    -0.036034561430000     0.058440481380000     0.034251288260000
    -0.080282725100000    -0.037903112700000    -0.080092470860000
1 37
    -1.529026604090000    -0.680133444680000     1.634498317950000
     0.770472259420000     1.397945276250000    -0.785648278030000
     1.630484001530000     0.694061160060000    -1.593716528880000
1 38
    -1.451020443930000    -0.689613726980000    -1.452861610120000
     0.664608146190000     1.341610683500000     0.626137153410000
    -1.479420093100000    -0.701520951940000    -1.391937614270000
1 39
    -0.083271902670000    -0.036034561430000    -0.080282725100000
     0.034754308940000     0.058440481380000    -0.037903112700000
    -0.077743119260000     0.034251288260000    -0.080092470860000
1 40
    -0.081990088750000    -0.041556858900000     0.072055790650000
     0.036932744010000     0.051658830560000     0.032162215030000
     0.070516460890000    -0.044787938010000    -0.084644639860000
1 41
     0.168989004720000    -0.087862626980000    -0.012546210160000
    -0.087862626980000     0.057526444280000     0.082164128140000
    -0.012546210160000     0.082164128140000     0.141161439480000
1 42
    -0.047884974360000    -0.075581259370000     0.210576491670000
    -0.075581259370000    -0.044861085000000     0.206406152360000
     0.210576491670000     0.206406152360000    -0.328601382070000
1 43
    -9.226913017529998    -2.250791736200000     2.312372853860000
    -2.250791736200000    -9.136861986349999     2.266577553280000
     2.312372853860000     2.266577553280000    -9.271538686929999
1 44
     0.054057187040000    -0.085563601470000     0.081896763280000
    -0.085563601470000     0.172458141850000    -0.014186912760000
     0.081896763280000    -0.014186912760000     0.141161439480000
1 45
    -0.350759274870000    -0.212368652980000     0.229048929230000
    -0.212368652980000    -0.089062165550000     0.122762509240000
     0.229048929230000     0.122762509240000    -0.102061310520000
1 46
     0.036094496320000    -0.027504829670000     0.032899209990000
    -0.027504829670000     0.037194824030000     0.032247613240000
     0.032899209990000     0.032247613240000     0.030243217560000
1 47
     0.155082548810000     0.038940863100000     0.101224864480000
     0.038940863100000     0.153524602000000     0.099220228580000
     0.101224864480000     0.099220228580000     0.081683808250000
1 48
    -0.097659879570000    -0.217431649810000     0.127318882090000
    -0.217431649810000    -0.342161440740000     0.226547878700000
     0.127318882090000     0.226547878700000    -0.102061310520000
1 49
    -1.529026604090000     1.620848176780000    -0.712051836410000
     1.645277950230000    -1.594361879910000     0.752745344630000
     0.738353644320000    -0.726963973350000     1.398590507170000
1 50
    -1.451020443930000    -1.466104218060000    -0.660993555850000
    -1.466104097950000    -1.392364485210000    -0.647903127280000
     0.693488715800000     0.679754978070000     1.342037554440000
1 51
    -1.451020443930000    -1.466104097950000     0.693488715800000
    -1.466104218060000    -1.392364485210000     0.679754978070000
    -0.660993555850000    -0.647903127280000     1.342037554440000
1 52
    -1.529026604090000     1.645277950230000     0.738353644320000
     1.620848176780000    -1.594361879910000    -0.726963973350000
    -0.712051836410000     0.752745344630000     1.398590507170000
1 53
    -0.083271902670000    -0.080973838040000    -0.034453433390000
    -0.077046721480000    -0.080110847690000     0.036968536790000
     0.036272018900000    -0.035185864170000     0.058458858210000
1 54
    -0.081990088750000     0.071227151760000    -0.042961785570000
     0.071227151760000    -0.084839698500000    -0.042110926330000
     0.035543071310000     0.034839106600000     0.051853889200000
1 55
    -0.081990088750000     0.071227151760000     0.035543071310000
     0.071227151760000    -0.084839698500000     0.034839106600000
    -0.042961785570000    -0.042110926330000     0.051853889200000
1 56
    -0.083271902670000    -0.077046721480000     0.036272018900000
    -0.080973838040000    -0.080110847690000    -0.035185864170000
    -0.034453433390000     0.036968536790000     0.058458858210000
1 57
    -9.226913017529998     2.267794988240000    -2.295699784210000
     2.267794988240000    -9.182618611510000     2.267474895090000
    -2.295699784210000     2.267474895090000    -9.225782061769999
1 58
     0.054057187040000     0.080203332390000    -0.087152896990000
     0.080203332390000     0.140617221070000    -0.013562460870000
    -0.087152896990000    -0.013562460870000     0.173002360260000
1 59
     0.155082548810000     0.101968945930000     0.036948478420000
     0.101968945930000     0.085601676340000     0.100552248480000
     0.036948478420000     0.100552248480000     0.149606733910000
1 60
    -0.097659879570000     0.123031075200000    -0.219886337880000
     0.123031075200000    -0.093271060170000     0.221666728410000
    -0.219886337880000     0.221666728410000    -0.350951691090000
1 61
     0.168989004720000    -0.014266545690000    -0.087599826300000
    -0.014266545690000     0.144350720310000     0.080461448780000
    -0.087599826300000     0.080461448780000     0.054337043340000
1 62
    -0.047884974360000     0.209053977310000    -0.079695747530000
     0.209053977310000    -0.320399550610000     0.211810021370000
    -0.079695747530000     0.211810021370000    -0.053063036570000
1 63
    -0.350759274870000     0.224840755270000    -0.216819088810000
     0.224840755270000    -0.097243097870000     0.122922856090000
    -0.216819088810000     0.122922856090000    -0.093880378200000
1 64
     0.036094496320000     0.032353550260000    -0.028144535530000
     0.032353550260000     0.031510257950000     0.032359075320000
    -0.028144535530000     0.032359075320000     0.035927783640000
2 1
    -0.161433365060000    -0.002132913380000    -0.002091475430000
    -0.002132913380000    -0.092693811510000     0.000433476990000
    -0.002091475430000     0.000433476990000    -0.092710747020000
2 2
    42.777363391160002    -1.822372097860000    -1.786982767350000
    -1.822372097860000    42.850267638849999    -1.751587791670000
    -1.786982767350000    -1.751587791670000    42.918968997419995
2 3
    -0.113767111010000     0.011563109810000     0.003145801010000
     0.011563109810000    -0.114229774730000     0.003083584030000
     0.003145801010000     0.003083584030000     0.566320932090000
2 4
    -0.092806594800000    -0.003505770680000     0.000391558600000
    -0.003505770680000    -0.161320581770000    -0.002099763020000
     0.000391558600000    -0.002099763020000    -0.092710747020000
2 5
    -0.113767111010000     0.003371968140000     0.011499211290000
     0.003371968140000     0.566180163170000    -0.010260396750000
     0.011499211290000    -0.010260396750000    -0.114089005810000
2 6
    -0.092806594800000     0.000322735570000    -0.003512737060000
     0.000322735570000    -0.092819446570000    -0.003443193370000
    -0.003512737060000    -0.003443193370000    -0.161211762110000
2 7
    -0.051935323780000    -0.002311877280000    -0.002266956140000
    -0.002311877280000    -0.051842839080000    -0.002222155110000
    -0.002266956140000    -0.002222155110000    -0.051755759330000
2 8
     0.566043117660000    -0.010227006170000    -0.010028344230000
    -0.010227006170000    -0.113629945390000     0.011702197190000
    -0.010028344230000     0.011702197190000    -0.114089005810000
2 9
    -0.088352675780000     0.122844904700000     0.217224700280000
     0.122844904700000    -0.102578384070000    -0.224275757830000
     0.217224700280000    -0.224275757830000    -0.350951691090000
2 10
     0.143790046830000     0.078408288440000    -0.015302854770000
     0.078408288440000     0.050884361280000    -0.086864272660000
    -0.015302854770000    -0.086864272660000     0.173002360260000
2 11
     0.089707396470000     0.103276703610000     0.101271106830000
     0.103276703610000     0.150976828680000     0.034930149980000
     0.101271106830000     0.034930149980000     0.149606733910000
2 12
    -9.091944449649999     2.265095756210000     2.221108831790000
     2.265095756210000    -9.317588380489999    -2.340591016820000
     2.221108831790000    -2.340591016820000    -9.225782061769999
2 13
     0.032805884520000     0.032419370540000     0.031789753920000
     0.032419370540000     0.034798749640000    -0.028786163150000
     0.031789753920000    -0.028786163150000     0.035927783640000
2 14
    -0.311930114070000     0.214336054780000     0.210173762840000
     0.214336054780000    -0.056354531010000    -0.083915932490000
     0.210173762840000    -0.083915932490000    -0.053063036570000
2 15
    -0.088352675780000     0.219591708050000     0.118562022320000
     0.219591708050000    -0.359649696960000    -0.219234140580000
     0.118562022320000    -0.219234140580000    -0.093880378200000
2 16
     0.143790046830000    -0.013762444020000     0.078693309470000
    -0.013762444020000     0.169549678200000    -0.089191403910000
     0.078693309470000    -0.089191403910000     0.054337043340000
2 17
     0.058358206030000    -0.038867716110000     0.032689618040000
     0.031921154260000    -0.083189627320000    -0.078412612400000
    -0.039501176250000    -0.079508616150000    -0.080092470860000
2 18
     1.398581138590000    -0.738697279030000     0.726532177900000
     0.711908184850000    -1.529661625660000     1.616276429850000
    -0.752801075670000     1.649884048620000    -1.593716528880000
2 19
     0.051512896910000    -0.044227504750000    -0.043368598140000
     0.034262218270000    -0.081844155100000     0.071398068290000
     0.033596808870000     0.071398068290000    -0.084644639860000
2 20
     1.339993762680000    -0.745444938720000    -0.730968801080000
     0.608777054560000    -1.449403643220000    -1.465093852740000
     0.596954987590000    -1.465093852740000    -1.391937614270000
2 21
     0.051512896910000     0.034262218270000     0.033596808870000
    -0.044227504750000    -0.081844155100000     0.071398068290000
    -0.043368598140000     0.071398068290000    -0.084644639860000
2 22
     1.339993762680000     0.608777054560000     0.596954987590000
    -0.745444938720000    -1.449403643220000    -1.465093852740000
    -0.730968801080000    -1.465093852740000    -1.391937614270000
2 23
     0.058358206030000     0.031921154260000    -0.039501176250000
    -0.038867716110000    -0.083189627320000    -0.079508616150000
     0.032689618040000    -0.078412612400000    -0.080092470860000
2 24
     1.398581138590000     0.711908184850000    -0.752801075670000
    -0.738697279030000    -1.529661625660000     1.649884048620000
     0.726532177900000     1.616276429850000    -1.593716528880000
2 25
     0.064392652540000    -0.102948923420000    -0.100949812580000
    -0.102948923420000     0.155363365990000     0.030346992600000
    -0.100949812580000     0.030346992600000     0.154172955780000
2 26
    -7.914031685149999    -0.806699116960000    -0.791033529990000
    -0.806699116960000    -7.881756686829999    -0.775368903900000
    -0.791033529990000    -0.775368903900000    -7.851343753839999
2 27
    -0.085709174790000    -0.087024619510000    -0.198357941590000
    -0.087024619510000    -0.082227546220000    -0.194429744040000
    -0.198357941590000    -0.194429744040000    -0.338871267510000
2 28
     0.151209842080000    -0.104685593910000     0.028321938000000
    -0.104685593910000     0.068546176450000    -0.101536429820000
     0.028321938000000    -0.101536429820000     0.154172955780000
2 29
    -0.085709174790000    -0.200026269490000    -0.083118402090000
    -0.200026269490000    -0.346395918790000    -0.189248919300000
    -0.083118402090000    -0.189248919300000    -0.074702894940000
2 30
     0.151209842080000     0.026263853150000    -0.105220804070000
     0.026263853150000     0.150158999690000    -0.103137015680000
    -0.105220804070000    -0.103137015680000     0.072560132540000
2 31
     0.028856427500000    -0.031372011340000    -0.030762813420000
    -0.031372011340000     0.030111456890000    -0.030153615500000
    -0.030762813420000    -0.030153615500000     0.031294180060000
2 32
    -0.354290989310000    -0.194653508970000    -0.190873527160000
    -0.194653508970000    -0.077813984160000    -0.079316920590000
    -0.190873527160000    -0.079316920590000    -0.074702894940000
2 33
    -1.529026604090000     0.770472259420000     1.630484001530000
    -0.680133444680000     1.397945276250000     0.694061160060000
     1.634498317950000    -0.785648278030000    -1.593716528880000
2 34
    -1.451020443930000     0.664608146190000    -1.479420093100000
    -0.689613726980000     1.341610683500000    -0.701520951940000
    -1.452861610120000     0.626137153410000    -1.391937614270000
2 35
    -0.083271902670000     0.034754308940000    -0.077743119260000
    -0.036034561430000     0.058440481380000     0.034251288260000
    -0.080282725100000    -0.037903112700000    -0.080092470860000
2 36
    -0.081990088750000     0.036932744010000     0.070516460890000
    -0.041556858900000     0.051658830560000    -0.044787938010000
     0.072055790650000     0.032162215030000    -0.084644639860000
2 37
    -1.451020443930000    -0.689613726980000    -1.452861610120000
     0.664608146190000     1.341610683500000     0.626137153410000
    -1.479420093100000    -0.701520951940000    -1.391937614270000
2 38
    -1.529026604090000    -0.680133444680000     1.634498317950000
     0.770472259420000     1.397945276250000    -0.785648278030000
     1.630484001530000     0.694061160060000    -1.593716528880000
2 39
    -0.081990088750000    -0.041556858900000     0.072055790650000
     0.036932744010000     0.051658830560000     0.032162215030000
     0.070516460890000    -0.044787938010000    -0.084644639860000
2 40
    -0.083271902670000    -0.036034561430000    -0.080282725100000
     0.034754308940000     0.058440481380000    -0.037903112700000
    -0.077743119260000     0.034251288260000    -0.080092470860000
2 41
    -0.047884974360000    -0.075581259370000     0.210576491670000
    -0.075581259370000    -0.044861085000000     0.206406152360000
     0.210576491670000     0.206406152360000    -0.328601382070000
2 42
     0.168989004720000    -0.087862626980000    -0.012546210160000
    -0.087862626980000     0.057526444280000     0.082164128140000
    -0.012546210160000     0.082164128140000     0.141161439480000
2 43
     0.054057187040000    -0.085563601470000     0.081896763280000
    -0.085563601470000     0.172458141850000    -0.014186912760000
     0.081896763280000    -0.014186912760000     0.141161439480000
2 44
    -9.226913017529998    -2.250791736200000     2.312372853860000
    -2.250791736200000    -9.136861986349999     2.266577553280000
     2.312372853860000     2.266577553280000    -9.271538686929999
2 45
     0.036094496320000    -0.027504829670000     0.032899209990000
    -0.027504829670000     0.037194824030000     0.032247613240000
     0.032899209990000     0.032247613240000     0.030243217560000
2 46
    -0.350759274870000    -0.212368652980000     0.229048929230000
    -0.212368652980000    -0.089062165550000     0.122762509240000
     0.229048929230000     0.122762509240000    -0.102061310520000
2 47
    -0.097659879570000    -0.217431649810000     0.127318882090000
    -0.217431649810000    -0.342161440740000     0.226547878700000
     0.127318882090000     0.226547878700000    -0.102061310520000
2 48
     0.155082548810000     0.038940863100000     0.101224864480000
     0.038940863100000     0.153524602000000     0.099220228580000
     0.101224864480000     0.099220228580000     0.081683808250000
2 49
    -1.451020443930000    -1.466104218060000    -0.660993555850000
    -1.466104097950000    -1.392364485210000    -0.647903127280000
     0.693488715800000     0.679754978070000     1.342037554440000
2 50
    -1.529026604090000     1.620848176780000    -0.712051836410000
     1.645277950230000    -1.594361879910000     0.752745344630000
     0.738353644320000    -0.726963973350000     1.398590507170000
2 51
    -1.529026604090000     1.645277950230000     0.738353644320000
     1.620848176780000    -1.594361879910000    -0.726963973350000
    -0.712051836410000     0.752745344630000     1.398590507170000
2 52
    -1.451020443930000    -1.466104097950000     0.693488715800000
    -1.466104218060000    -1.392364485210000     0.679754978070000
    -0.660993555850000    -0.647903127280000     1.342037554440000
2 53
    -0.081990088750000     0.071227151760000    -0.042961785570000
     0.071227151760000    -0.084839698500000    -0.042110926330000
     0.035543071310000     0.034839106600000     0.051853889200000
2 54
    -0.083271902670000    -0.080973838040000    -0.034453433390000
    -0.077046721480000    -0.080110847690000     0.036968536790000
     0.036272018900000    -0.035185864170000     0.058458858210000
2 55
    -0.083271902670000    -0.077046721480000     0.036272018900000
    -0.080973838040000    -0.080110847690000    -0.035185864170000
    -0.034453433390000     0.036968536790000     0.058458858210000
2 56
    -0.081990088750000     0.071227151760000     0.035543071310000
     0.071227151760000    -0.084839698500000     0.034839106600000
    -0.042961785570000    -0.042110926330000     0.051853889200000
2 57
     0.054057187040000     0.080203332390000    -0.087152896990000
     0.080203332390000     0.140617221070000    -0.013562460870000
    -0.087152896990000    -0.013562460870000     0.173002360260000
2 58
    -9.226913017529998     2.267794988240000    -2.295699784210000
     2.267794988240000    -9.182618611510000     2.267474895090000
    -2.295699784210000     2.267474895090000    -9.225782061769999
2 59
    -0.097659879570000     0.123031075200000    -0.219886337880000
     0.123031075200000    -0.093271060170000     0.221666728410000
    -0.219886337880000     0.221666728410000    -0.350951691090000
2 60
     0.155082548810000     0.101968945930000     0.036948478420000
     0.101968945930000     0.085601676340000     0.100552248480000
     0.036948478420000     0.100552248480000     0.149606733910000
2 61
    -0.047884974360000     0.209053977310000    -0.079695747530000
     0.209053977310000    -0.320399550610000     0.211810021370000
    -0.079695747530000     0.211810021370000    -0.053063036570000
2 62
     0.168989004720000    -0.014266545690000    -0.087599826300000
    -0.014266545690000     0.144350720310000     0.080461448780000
    -0.087599826300000     0.080461448780000     0.054337043340000
2 63
     0.036094496320000     0.032353550260000    -0.028144535530000
     0.032353550260000     0.031510257950000     0.032359075320000
    -0.028144535530000     0.032359075320000     0.035927783640000
2 64
    -0.350759274870000     0.224840755270000    -0.216819088810000
     0.224840755270000    -0.097243097870000     0.122922856090000
    -0.216819088810000     0.122922856090000    -0.093880378200000
3 1
    -0.092806594800000    -0.003505770680000     0.000391558600000
    -0.003505770680000    -0.161320581770000    -0.002099763020000
     0.000391558600000    -0.002099763020000    -0.092710747020000
3 2
    -0.113767111010000     0.011563109810000     0.003145801010000
     0.011563109810000    -0.114229774730000     0.003083584030000
     0.003145801010000     0.003083584030000     0.566320932090000
3 3
    42.777363391160002    -1.822372097860000    -1.786982767350000
    -1.822372097860000    42.850267638849999    -1.751587791670000
    -1.786982767350000    -1.751587791670000    42.918968997419995
3 4
    -0.161433365060000    -0.002132913380000    -0.002091475430000
    -0.002132913380000    -0.092693811510000     0.000433476990000
    -0.002091475430000     0.000433476990000    -0.092710747020000
3 5
     0.566043117660000    -0.010227006170000    -0.010028344230000
    -0.010227006170000    -0.113629945390000     0.011702197190000
    -0.010028344230000     0.011702197190000    -0.114089005810000
3 6
    -0.051935323780000    -0.002311877280000    -0.002266956140000
    -0.002311877280000    -0.051842839080000    -0.002222155110000
    -0.002266956140000    -0.002222155110000    -0.051755759330000
3 7
    -0.092806594800000     0.000322735570000    -0.003512737060000
     0.000322735570000    -0.092819446570000    -0.003443193370000
    -0.003512737060000    -0.003443193370000    -0.161211762110000
3 8
    -0.113767111010000     0.003371968140000     0.011499211290000
     0.003371968140000     0.566180163170000    -0.010260396750000
     0.011499211290000    -0.010260396750000    -0.114089005810000
3 9
    -9.091944449649999     2.265095756210000     2.221108831790000
     2.265095756210000    -9.317588380489999    -2.340591016820000
     2.221108831790000    -2.340591016820000    -9.225782061769999
3 10
     0.089707396470000     0.103276703610000     0.101271106830000
     0.103276703610000     0.150976828680000     0.034930149980000
     0.101271106830000     0.034930149980000     0.149606733910000
3 11
     0.143790046830000     0.078408288440000    -0.015302854770000
     0.078408288440000     0.050884361280000    -0.086864272660000
    -0.015302854770000    -0.086864272660000     0.173002360260000
3 12
    -0.088352675780000     0.122844904700000     0.217224700280000
     0.122844904700000    -0.102578384070000    -0.224275757830000
     0.217224700280000    -0.224275757830000    -0.350951691090000
3 13
     0.143790046830000    -0.013762444020000     0.078693309470000
    -0.013762444020000     0.169549678200000    -0.089191403910000
     0.078693309470000    -0.089191403910000     0.054337043340000
3 14
    -0.088352675780000     0.219591708050000     0.118562022320000
     0.219591708050000    -0.359649696960000    -0.219234140580000
     0.118562022320000    -0.219234140580000    -0.093880378200000
3 15
    -0.311930114070000     0.214336054780000     0.210173762840000
     0.214336054780000    -0.056354531010000    -0.083915932490000
     0.210173762840000    -0.083915932490000    -0.053063036570000
3 16
     0.032805884520000     0.032419370540000     0.031789753920000
     0.032419370540000     0.034798749640000    -0.028786163150000
     0.031789753920000    -0.028786163150000     0.035927783640000
3 17
     1.339993762680000    -0.745444938720000    -0.730968801080000
     0.608777054560000    -1.449403643220000    -1.465093852740000
     0.596954987590000    -1.465093852740000    -1.391937614270000
3 18
     0.051512896910000    -0.044227504750000    -0.043368598140000
     0.034262218270000    -0.081844155100000     0.071398068290000