       N       E                     dE             d eps       ncg     rms          rms(c)
DAV:   1     0.505832942324E+03    0.50583E+03   -0.11346E+05 12288   0.106E+03
DAV:   2    -0.558896558492E+03   -0.10647E+04   -0.10149E+04 16128   0.231E+02
DAV:   3    -0.599950396545E+03   -0.41054E+02   -0.40811E+02 16384   0.425E+01
DAV:   4    -0.600401052160E+03   -0.45066E+00   -0.44975E+00 16192   0.490E+00
DAV:   5    -0.600410020468E+03   -0.89683E-02   -0.89643E-02 15232   0.642E-01    0.263E+01
DAV:   6    -0.585983383936E+03    0.14427E+02   -0.95930E+00 14528   0.622E+00    0.145E+01
DAV:   7    -0.581114762545E+03    0.48686E+01   -0.11047E+01 15072   0.687E+00    0.195E+00
DAV:   8    -0.581174855051E+03   -0.60093E-01   -0.26629E-01 15392   0.104E+00    0.214E-01
DAV:   9    -0.581177052655E+03   -0.21976E-02   -0.38165E-03 15968   0.148E-01    0.832E-02
DAV:  10    -0.581177521971E+03   -0.46932E-03   -0.38896E-04 14688   0.519E-02    0.900E-03
DAV:  11    -0.581177531384E+03   -0.94130E-05   -0.13038E-05 16160   0.877E-03    0.264E-03
DAV:  12    -0.581177531533E+03   -0.14960E-06   -0.41647E-07 15776   0.155E-03    0.342E-04
DAV:  13    -0.581177531607E+03   -0.73329E-07   -0.78401E-09 11968   0.225E-04    0.144E-04
DAV:  14    -0.581177531632E+03   -0.25088E-07   -0.20450E-09 10816   0.130E-04    0.106E-04
DAV:  15    -0.581177531636E+03   -0.43219E-08   -0.33260E-10  9536   0.436E-05
   1 F= -.58117753E+03 E0= -.58117753E+03  d E =-.130521E-14
 Linear response reoptimize wavefunctions
DAV:   1    -0.581177531635E+03    0.43474E-09   -0.61628E-11  9216   0.196E-05
DAV:   2    -0.581177531635E+03    0.18008E-09   -0.12007E-11  9216   0.943E-06
DAV:   3    -0.581177531635E+03   -0.18736E-09   -0.18710E-12  9216   0.460E-06
 Linear response DOF=           1
 Linear response progress:
  Degree of freedom:   1/  1
       N       E                     dE             d eps       ncg     rms          rms(c)
RMM:   1    -0.145036187036E+00   -0.14504E+00    0.37213E-03 73281   0.735E-01
RMM:   2    -0.123477451330E+00    0.21559E-01   -0.71897E-03 44326   0.191E-01    0.177E-01
RMM:   3    -0.123330234546E+00    0.14722E-03   -0.88014E-04 46682   0.499E-02    0.901E-02
RMM:   4    -0.123585656142E+00   -0.25542E-03   -0.23907E-04 46856   0.272E-02    0.274E-02
RMM:   5    -0.123667487051E+00   -0.81831E-04   -0.15158E-05 47389   0.766E-03    0.654E-03
RMM:   6    -0.123650464037E+00    0.17023E-04   -0.17522E-06 48034   0.197E-03    0.136E-03
RMM:   7    -0.123642053494E+00    0.84105E-05   -0.10649E-06 49047   0.616E-04    0.382E-04
RMM:   8    -0.123641557901E+00    0.49559E-06   -0.14530E-06 50866   0.257E-04    0.862E-05
RMM:   9    -0.123641361729E+00    0.19617E-06   -0.16255E-06 53840   0.152E-04    0.374E-05
RMM:  10    -0.123641416030E+00   -0.54301E-07   -0.14812E-06 55928   0.143E-04    0.115E-05
RMM:  11    -0.123641425352E+00   -0.93221E-08   -0.15339E-06 56908   0.139E-04    0.469E-06
 Linear response finished
