 vasp.5.4.4.18Apr17-6-g9f103f2a35 (build Mar 12 2022 03:36:41) complex          
  
 executed on IFC19.0.3.199_CrayMP date 2022.12.02  03:03:50
 running on   32 total cores
 distrk:  each k-point on   32 cores,    1 groups
 distr:  one band on NCORES_PER_BAND=   1 cores,   32 groups


--------------------------------------------------------------------------------------------------------


 INCAR:
 POTCAR:   PAW_PBE C 08Apr2002                    

 ----------------------------------------------------------------------------- 
|                                                                             |
|           W    W    AA    RRRRR   N    N  II  N    N   GGGG   !!!           |
|           W    W   A  A   R    R  NN   N  II  NN   N  G    G  !!!           |
|           W    W  A    A  R    R  N N  N  II  N N  N  G       !!!           |
|           W WW W  AAAAAA  RRRRR   N  N N  II  N  N N  G  GGG   !            |
|           WW  WW  A    A  R   R   N   NN  II  N   NN  G    G                |
|           W    W  A    A  R    R  N    N  II  N    N   GGGG   !!!           |
|                                                                             |
|      For optimal performance we recommend to set                            |
|        NCORE= 4 - approx SQRT( number of cores)                             |
|      NCORE specifies how many cores store one orbital (NPAR=cpu/NCORE).     |
|      This setting can  greatly improve the performance of VASP for DFT.     |
|      The default,   NCORE=1            might be grossly inefficient         |
|      on modern multi-core architectures or massively parallel machines.     |
|      Do your own testing !!!!                                               |
|      Unfortunately you need to use the default for GW and RPA calculations. |
|      (for HF NCORE is supported but not extensively tested yet)             |
|                                                                             |
 ----------------------------------------------------------------------------- 

 POTCAR:   PAW_PBE C 08Apr2002                    
   VRHFIN =C: s2p2                                                              
   LEXCH  = PE                                                                  
   EATOM  =   147.1560 eV,   10.8157 Ry                                         
                                                                                
   TITEL  = PAW_PBE C 08Apr2002                                                 
   LULTRA =        F    use ultrasoft PP ?                                      
   IUNSCR =        0    unscreen: 0-lin 1-nonlin 2-no                           
   RPACOR =     .000    partial core radius                                     
   POMASS =   12.011; ZVAL   =    4.000    mass and valenz                      
   RCORE  =    1.500    outmost cutoff radius                                   
   RWIGS  =    1.630; RWIGS  =     .863    wigner-seitz radius (au A)           
   ENMAX  =  400.000; ENMIN  =  300.000 eV                                      
   ICORE  =        2    local potential                                         
   LCOR   =        T    correct aug charges                                     
   LPAW   =        T    paw PP                                                  
   EAUG   =  644.873                                                            
   DEXC   =     .000                                                            
   RMAX   =    2.266    core radius for proj-oper                               
   RAUG   =    1.300    factor for augmentation sphere                          
   RDEP   =    1.501    radius for radial grids                                 
   RDEPT  =    1.300    core radius for aug-charge                              
   QCUT   =   -5.516; QGAM   =   11.032    optimization parameters              
                                                                                
   Description                                                                  
     l     E      TYP  RCUT    TYP  RCUT                                        
     0   .000     23  1.200                                                     
     0   .000     23  1.200                                                     
     1   .000     23  1.500                                                     
     1  2.500     23  1.500                                                     
     2   .000      7  1.500                                                     
  local pseudopotential read in
  atomic valenz-charges read in
  non local Contribution for L=           0  read in
    real space projection operators read in
  non local Contribution for L=           0  read in
    real space projection operators read in
  non local Contribution for L=           1  read in
    real space projection operators read in
  non local Contribution for L=           1  read in
    real space projection operators read in
    PAW grid and wavefunctions read in
 
   number of l-projection  operators is LMAX  =           4
   number of lm-projection operators is LMMAX =           8
 

 ----------------------------------------------------------------------------- 
|                                                                             |
|  ADVICE TO THIS USER RUNNING 'VASP/VAMP'   (HEAR YOUR MASTER'S VOICE ...):  |
|                                                                             |
|      You have a (more or less) 'large supercell' and for larger cells       |
|      it might be more efficient to use real space projection operators      |
|      So try LREAL= Auto  in the INCAR   file.                               |
|      Mind: If you want to do a very accurate calculations keep the          |
|      reciprocal projection scheme          (i.e. LREAL=.FALSE.)             |
|                                                                             |
 ----------------------------------------------------------------------------- 

 PAW_PBE C 08Apr2002                    :
 energy of atom  1       EATOM= -147.1560
 kinetic energy error for atom=    0.0288 (will be added to EATOM!!)
 
 
 POSCAR: generated by phonopy                    
  positions in direct lattice
  No initial velocities read in
 exchange correlation table for  LEXCH =        8
   RHO(1)=    0.500       N(1)  =     2000
   RHO(2)=  100.500       N(2)  =     4000
 


--------------------------------------------------------------------------------------------------------


 ion  position               nearest neighbor table
   1  0.125  0.375  0.125-  43 1.54  57 1.54  11 1.54  25 1.59
   2  0.625  0.375  0.125-  44 1.54  58 1.54  12 1.54  26 1.59
   3  0.125  0.875  0.125-  41 1.54  59 1.54   9 1.54  27 1.59
   4  0.625  0.875  0.125-  42 1.54  60 1.54  10 1.54  28 1.59
   5  0.125  0.375  0.625-  47 1.54  61 1.54  15 1.54  29 1.59
   6  0.625  0.375  0.625-  48 1.54  62 1.54  16 1.54  30 1.59
   7  0.125  0.875  0.625-  45 1.54  63 1.54  13 1.54  31 1.59
   8  0.625  0.875  0.625-  46 1.54  64 1.54  14 1.54  32 1.59
   9  0.000  0.000  0.250-  36 1.54  50 1.54   3 1.54  17 1.59
  10  0.500  0.000  0.250-  35 1.54  49 1.54   4 1.54  18 1.59
  11  0.000  0.500  0.250-  34 1.54  52 1.54   1 1.54  19 1.59
  12  0.500  0.500  0.250-  33 1.54  51 1.54   2 1.54  20 1.59
  13  0.000  0.000  0.750-  40 1.54  54 1.54   7 1.54  21 1.59
  14  0.500  0.000  0.750-  39 1.54  53 1.54   8 1.54  22 1.59
  15  0.000  0.500  0.750-  38 1.54  56 1.54   5 1.54  23 1.59
  16  0.500  0.500  0.750-  37 1.54  55 1.54   6 1.54  24 1.59
  17  0.125  0.125  0.375-  45 1.54  57 1.54  29 1.54   9 1.59
  18  0.625  0.125  0.375-  46 1.54  58 1.54  30 1.54  10 1.59
  19  0.125  0.625  0.375-  47 1.54  59 1.54  31 1.54  11 1.59
  20  0.625  0.625  0.375-  48 1.54  60 1.54  32 1.54  12 1.59
  21  0.125  0.125  0.875-  41 1.54  61 1.54  25 1.54  13 1.59
  22  0.625  0.125  0.875-  42 1.54  62 1.54  26 1.54  14 1.59
  23  0.125  0.625  0.875-  43 1.54  63 1.54  27 1.54  15 1.59
  24  0.625  0.625  0.875-  44 1.54  64 1.54  28 1.54  16 1.59
  25  0.000  0.250  0.000-  38 1.54  50 1.54  21 1.54   1 1.59
  26  0.500  0.250  0.000-  37 1.54  49 1.54  22 1.54   2 1.59
  27  0.000  0.750  0.000-  40 1.54  52 1.54  23 1.54   3 1.59
  28  0.500  0.750  0.000-  39 1.54  51 1.54  24 1.54   4 1.59
  29  0.000  0.250  0.500-  34 1.54  54 1.54  17 1.54   5 1.59
  30  0.500  0.250  0.500-  33 1.54  53 1.54  18 1.54   6 1.59
  31  0.000  0.750  0.500-  36 1.54  56 1.54  19 1.54   7 1.59
  32  0.500  0.750  0.500-  35 1.54  55 1.54  20 1.54   8 1.59
  33  0.375  0.375  0.375-  12 1.54  30 1.54  47 1.54  57 1.59
  34  0.875  0.375  0.375-  11 1.54  29 1.54  48 1.54  58 1.59
  35  0.375  0.875  0.375-  10 1.54  32 1.54  45 1.54  59 1.59
  36  0.875  0.875  0.375-   9 1.54  31 1.54  46 1.54  60 1.59
  37  0.375  0.375  0.875-  16 1.54  26 1.54  43 1.54  61 1.59
  38  0.875  0.375  0.875-  15 1.54  25 1.54  44 1.54  62 1.59
  39  0.375  0.875  0.875-  14 1.54  28 1.54  41 1.54  63 1.59
  40  0.875  0.875  0.875-  13 1.54  27 1.54  42 1.54  64 1.59
  41  0.250  0.000  0.000-   3 1.54  21 1.54  39 1.54  49 1.59
  42  0.750  0.000  0.000-   4 1.54  22 1.54  40 1.54  50 1.59
  43  0.250  0.500  0.000-   1 1.54  23 1.54  37 1.54  51 1.59
  44  0.750  0.500  0.000-   2 1.54  24 1.54  38 1.54  52 1.59
  45  0.250  0.000  0.500-   7 1.54  17 1.54  35 1.54  53 1.59
  46  0.750  0.000  0.500-   8 1.54  18 1.54  36 1.54  54 1.59
  47  0.250  0.500  0.500-   5 1.54  19 1.54  33 1.54  55 1.59
  48  0.750  0.500  0.500-   6 1.54  20 1.54  34 1.54  56 1.59
  49  0.375  0.125  0.125-  10 1.54  26 1.54  57 1.54  41 1.59
  50  0.875  0.125  0.125-   9 1.54  25 1.54  58 1.54  42 1.59
  51  0.375  0.625  0.125-  12 1.54  28 1.54  59 1.54  43 1.59
  52  0.875  0.625  0.125-  11 1.54  27 1.54  60 1.54  44 1.59
  53  0.375  0.125  0.625-  14 1.54  30 1.54  61 1.54  45 1.59
  54  0.875  0.125  0.625-  13 1.54  29 1.54  62 1.54  46 1.59
  55  0.375  0.625  0.625-  16 1.54  32 1.54  63 1.54  47 1.59
  56  0.875  0.625  0.625-  15 1.54  31 1.54  64 1.54  48 1.59
  57  0.250  0.250  0.250-   1 1.54  17 1.54  49 1.54  33 1.59
  58  0.750  0.250  0.250-   2 1.54  18 1.54  50 1.54  34 1.59
  59  0.250  0.750  0.250-   3 1.54  19 1.54  51 1.54  35 1.59
  60  0.750  0.750  0.250-   4 1.54  20 1.54  52 1.54  36 1.59
  61  0.250  0.250  0.750-   5 1.54  21 1.54  53 1.54  37 1.59
  62  0.750  0.250  0.750-   6 1.54  22 1.54  54 1.54  38 1.59
  63  0.250  0.750  0.750-   7 1.54  23 1.54  55 1.54  39 1.59
  64  0.750  0.750  0.750-   8 1.54  24 1.54  56 1.54  40 1.59
 
  LATTYP: Found a trigonal (rhomboedric) cell.
 ALAT       =     7.1799983352
 COS(alpha) =     0.0199999451
  
  Lattice vectors:
  
 A1 = (   7.1799987179,   0.0000000000,   0.0000000000)
 A2 = (   0.1435995725,   7.1785621998,   0.0000000000)
 A3 = (   0.1435995725,   0.1407566731,   7.1771819370)


Analysis of symmetry for initial positions (statically):
=====================================================================
 Subroutine PRICEL returns following result:
 
  LATTYP: Found a trigonal (rhomboedric) cell.
 ALAT       =     2.5637722777
 COS(alpha) =     0.5196078137
  
  Lattice vectors:
  
 A1 = (  -0.0717997863,  -1.8298297182,  -1.7942954842)
 A2 = (  -1.8308995726,  -1.7946405500,   0.0000000000)
 A3 = (  -1.8308995726,  -0.0351891683,  -1.7942954842)
 
  32 primitive cells build up your supercell.
 

 Routine SETGRP: Setting up the symmetry group for a 
 trigonal (rhombohedral) supercell.


 Subroutine GETGRP returns: Found 12 space group operations
 (whereof  6 operations were pure point group operations)
 out of a pool of 12 trial point group operations.


The static configuration has the point symmetry C_3v.
 The point group associated with its full space group is D_3d.


Analysis of symmetry for dynamics (positions and initial velocities):
=====================================================================
 Subroutine PRICEL returns following result:
 
  LATTYP: Found a trigonal (rhomboedric) cell.
 ALAT       =     2.5637722777
 COS(alpha) =     0.5196078137
  
  Lattice vectors:
  
 A1 = (  -0.0717997863,  -1.8298297182,  -1.7942954842)
 A2 = (  -1.8308995726,  -1.7946405500,   0.0000000000)
 A3 = (  -1.8308995726,  -0.0351891683,  -1.7942954842)
 
  32 primitive cells build up your supercell.
 

 Routine SETGRP: Setting up the symmetry group for a 
 trigonal (rhombohedral) supercell.


 Subroutine GETGRP returns: Found 12 space group operations
 (whereof  6 operations were pure point group operations)
 out of a pool of 12 trial point group operations.


The dynamic configuration has the point symmetry C_3v.
 The point group associated with its full space group is D_3d.


 Subroutine INISYM returns: Found 12 space group operations
 (whereof  6 operations are pure point group operations),
 and found    32 'primitive' translations

 
 
 KPOINTS: kpt_density=3000                        

Automatic generation of k-mesh.
Space group operators:
 irot       det(A)        alpha          n_x          n_y          n_z        tau_x        tau_y        tau_z
    1     1.000000     0.000000     1.000000     0.000000     0.000000     0.000000     0.000000     0.000000
    2    -1.000000   180.000000     0.000000    -0.700140     0.714006     0.000000     0.000000     0.000000
    3     1.000000   120.000000    -0.588784    -0.577124    -0.565916     0.000000     0.000000     0.000000
    4    -1.000000   180.000000    -0.700000     0.714143    -0.000000     0.000000     0.000000     0.000000
    5     1.000000   120.000000     0.588784     0.577124     0.565916     0.000000     0.000000     0.000000
    6    -1.000000   180.000000    -0.700000     0.014003     0.714006     0.000000     0.000000     0.000000
    7    -1.000000     0.000000     1.000000     0.000000     0.000000    -0.375000    -0.375000    -0.375000
    8     1.000000   180.000000     0.000000    -0.700140     0.714006    -0.375000    -0.375000    -0.375000
    9    -1.000000   120.000000    -0.588784    -0.577124    -0.565916    -0.375000    -0.375000    -0.375000
   10     1.000000   180.000000    -0.700000     0.714143    -0.000000    -0.375000    -0.375000    -0.375000
   11    -1.000000   120.000000     0.588784     0.577124     0.565916    -0.375000    -0.375000    -0.375000
   12     1.000000   180.000000    -0.700000     0.014003     0.714006    -0.375000    -0.375000    -0.375000
 
 Subroutine IBZKPT returns following result:
 ===========================================
 
 Found     32 irreducible k-points:
 
 Following reciprocal coordinates:
            Coordinates               Weight
  0.000000  0.000000  0.000000      1.000000
  0.166667 -0.000000 -0.000000      6.000000
  0.333333 -0.000000  0.000000      6.000000
  0.500000 -0.000000  0.000000      3.000000
  0.166667  0.166667  0.000000      6.000000
  0.333333  0.166667  0.000000     12.000000
  0.500000  0.166667  0.000000     12.000000
 -0.333333  0.166667  0.000000     12.000000
 -0.166667  0.166667 -0.000000      6.000000
  0.333333  0.333333  0.000000      6.000000
  0.500000  0.333333  0.000000     12.000000
 -0.333333  0.333333  0.000000      6.000000
  0.500000  0.500000  0.000000      3.000000
  0.166667  0.166667  0.166667      2.000000
  0.333333  0.166667  0.166667      6.000000
  0.500000  0.166667  0.166667      6.000000
 -0.333333  0.166667  0.166667      6.000000
 -0.166667  0.166667  0.166667      6.000000
  0.333333  0.333333  0.166667      6.000000
  0.500000  0.333333  0.166667     12.000000
 -0.333333  0.333333  0.166667     12.000000
 -0.166667  0.333333  0.166667     12.000000
  0.500000  0.500000  0.166667      6.000000
 -0.333333  0.500000  0.166667     12.000000
 -0.166667  0.500000  0.166667      6.000000
 -0.333333 -0.333333  0.166667      6.000000
  0.333333  0.333333  0.333333      2.000000
  0.500000  0.333333  0.333333      6.000000
 -0.333333  0.333333  0.333333      6.000000
  0.500000  0.500000  0.333333      6.000000
 -0.333333  0.500000  0.333333      6.000000
  0.500000  0.500000  0.500000      1.000000
 
 Following cartesian coordinates:
            Coordinates               Weight
  0.000000  0.000000  0.000000      1.000000
  0.023213 -0.000464 -0.000455      6.000000
  0.046425 -0.000929 -0.000911      6.000000
  0.069638 -0.001393 -0.001366      3.000000
  0.023213  0.022753 -0.000911      6.000000
  0.046425  0.022289 -0.001366     12.000000
  0.069638  0.021824 -0.001821     12.000000
 -0.046425  0.024146  0.000455     12.000000
 -0.023213  0.023682 -0.000000      6.000000
  0.046425  0.045506 -0.001821      6.000000
  0.069638  0.045042 -0.002277     12.000000
 -0.046425  0.047363 -0.000000      6.000000
  0.069638  0.068259 -0.002732      3.000000
  0.023213  0.022753  0.022311      2.000000
  0.046425  0.022289  0.021856      6.000000
  0.069638  0.021824  0.021400      6.000000
 -0.046425  0.024146  0.023677      6.000000
 -0.023213  0.023682  0.023222      6.000000
  0.046425  0.045506  0.021400      6.000000
  0.069638  0.045042  0.020945     12.000000
 -0.046425  0.047363  0.023222     12.000000
 -0.023213  0.046899  0.022766     12.000000
  0.069638  0.068259  0.020490      6.000000
 -0.046425  0.070581  0.022766     12.000000
 -0.023213  0.070116  0.022311      6.000000
 -0.046425 -0.045506  0.025043      6.000000
  0.046425  0.045506  0.044622      2.000000
  0.069638  0.045042  0.044167      6.000000
 -0.046425  0.047363  0.046443      6.000000
  0.069638  0.068259  0.043712      6.000000
 -0.046425  0.070581  0.045988      6.000000
  0.069638  0.068259  0.066933      1.000000
 
 
 Subroutine IBZKPT_HF returns following result:
 ==============================================
 
 Found    216 k-points in 1st BZ
 the following    216 k-points will be used (e.g. in the exchange kernel)
 Following reciprocal coordinates:   # in IRBZ
  0.000000  0.000000  0.000000    0.00462963   1 t-inv F
  0.166667 -0.000000 -0.000000    0.00462963   2 t-inv F
  0.333333 -0.000000  0.000000    0.00462963   3 t-inv F
  0.500000 -0.000000  0.000000    0.00462963   4 t-inv F
  0.166667  0.166667  0.000000    0.00462963   5 t-inv F
  0.333333  0.166667  0.000000    0.00462963   6 t-inv F
  0.500000  0.166667  0.000000    0.00462963   7 t-inv F
 -0.333333  0.166667  0.000000    0.00462963   8 t-inv F
 -0.166667  0.166667 -0.000000    0.00462963   9 t-inv F
  0.333333  0.333333  0.000000    0.00462963  10 t-inv F
  0.500000  0.333333  0.000000    0.00462963  11 t-inv F
 -0.333333  0.333333  0.000000    0.00462963  12 t-inv F
  0.500000  0.500000  0.000000    0.00462963  13 t-inv F
  0.166667  0.166667  0.166667    0.00462963  14 t-inv F
  0.333333  0.166667  0.166667    0.00462963  15 t-inv F
  0.500000  0.166667  0.166667    0.00462963  16 t-inv F
 -0.333333  0.166667  0.166667    0.00462963  17 t-inv F
 -0.166667  0.166667  0.166667    0.00462963  18 t-inv F
  0.333333  0.333333  0.166667    0.00462963  19 t-inv F
  0.500000  0.333333  0.166667    0.00462963  20 t-inv F
 -0.333333  0.333333  0.166667    0.00462963  21 t-inv F
 -0.166667  0.333333  0.166667    0.00462963  22 t-inv F
  0.500000  0.500000  0.166667    0.00462963  23 t-inv F
 -0.333333  0.500000  0.166667    0.00462963  24 t-inv F
 -0.166667  0.500000  0.166667    0.00462963  25 t-inv F
 -0.333333 -0.333333  0.166667    0.00462963  26 t-inv F
  0.333333  0.333333  0.333333    0.00462963  27 t-inv F
  0.500000  0.333333  0.333333    0.00462963  28 t-inv F
 -0.333333  0.333333  0.333333    0.00462963  29 t-inv F
  0.500000  0.500000  0.333333    0.00462963  30 t-inv F
 -0.333333  0.500000  0.333333    0.00462963  31 t-inv F
  0.500000  0.500000  0.500000    0.00462963  32 t-inv F
 -0.000000  0.166667 -0.000000    0.00462963   2 t-inv F
 -0.000000 -0.000000  0.166667    0.00462963   2 t-inv F
 -0.166667  0.000000  0.000000    0.00462963   2 t-inv F
  0.000000 -0.166667  0.000000    0.00462963   2 t-inv F
  0.000000  0.000000 -0.166667    0.00462963   2 t-inv F
  0.000000  0.333333 -0.000000    0.00462963   3 t-inv F
 -0.000000  0.000000  0.333333    0.00462963   3 t-inv F
 -0.333333  0.000000 -0.000000    0.00462963   3 t-inv F
 -0.000000 -0.333333  0.000000    0.00462963   3 t-inv F
  0.000000 -0.000000 -0.333333    0.00462963   3 t-inv F
  0.000000  0.500000 -0.000000    0.00462963   4 t-inv F
 -0.000000  0.000000  0.500000    0.00462963   4 t-inv F
  0.166667  0.000000  0.166667    0.00462963   5 t-inv F
  0.000000  0.166667  0.166667    0.00462963   5 t-inv F
 -0.166667 -0.166667 -0.000000    0.00462963   5 t-inv F
 -0.166667 -0.000000 -0.166667    0.00462963   5 t-inv F
 -0.000000 -0.166667 -0.166667    0.00462963   5 t-inv F
  0.333333  0.000000  0.166667    0.00462963   6 t-inv F
  0.000000  0.333333  0.166667    0.00462963   6 t-inv F
  0.166667  0.333333  0.000000    0.00462963   6 t-inv F
  0.166667  0.000000  0.333333    0.00462963   6 t-inv F
  0.000000  0.166667  0.333333    0.00462963   6 t-inv F
 -0.333333 -0.166667 -0.000000    0.00462963   6 t-inv F
 -0.333333 -0.000000 -0.166667    0.00462963   6 t-inv F
 -0.000000 -0.333333 -0.166667    0.00462963   6 t-inv F
 -0.166667 -0.333333 -0.000000    0.00462963   6 t-inv F
 -0.166667 -0.000000 -0.333333    0.00462963   6 t-inv F
 -0.000000 -0.166667 -0.333333    0.00462963   6 t-inv F
  0.500000  0.000000  0.166667    0.00462963   7 t-inv F
  0.000000  0.500000  0.166667    0.00462963   7 t-inv F
  0.166667  0.500000  0.000000    0.00462963   7 t-inv F
  0.166667  0.000000  0.500000    0.00462963   7 t-inv F
  0.000000  0.166667  0.500000    0.00462963   7 t-inv F
 -0.500000 -0.166667 -0.000000    0.00462963   7 t-inv F
 -0.500000 -0.000000 -0.166667    0.00462963   7 t-inv F
 -0.000000 -0.500000 -0.166667    0.00462963   7 t-inv F
 -0.166667 -0.500000 -0.000000    0.00462963   7 t-inv F
 -0.166667 -0.000000 -0.500000    0.00462963   7 t-inv F
 -0.000000 -0.166667 -0.500000    0.00462963   7 t-inv F
 -0.333333  0.000000  0.166667    0.00462963   8 t-inv F
  0.000000 -0.333333  0.166667    0.00462963   8 t-inv F
  0.166667 -0.333333  0.000000    0.00462963   8 t-inv F
  0.166667  0.000000 -0.333333    0.00462963   8 t-inv F
  0.000000  0.166667 -0.333333    0.00462963   8 t-inv F
  0.333333 -0.166667 -0.000000    0.00462963   8 t-inv F
  0.333333 -0.000000 -0.166667    0.00462963   8 t-inv F
 -0.000000  0.333333 -0.166667    0.00462963   8 t-inv F
 -0.166667  0.333333 -0.000000    0.00462963   8 t-inv F
 -0.166667 -0.000000  0.333333    0.00462963   8 t-inv F
 -0.000000 -0.166667  0.333333    0.00462963   8 t-inv F
 -0.166667 -0.000000  0.166667    0.00462963   9 t-inv F
 -0.000000 -0.166667  0.166667    0.00462963   9 t-inv F
  0.166667 -0.166667 -0.000000    0.00462963   9 t-inv F
  0.166667 -0.000000 -0.166667    0.00462963   9 t-inv F
 -0.000000  0.166667 -0.166667    0.00462963   9 t-inv F
  0.333333  0.000000  0.333333    0.00462963  10 t-inv F
  0.000000  0.333333  0.333333    0.00462963  10 t-inv F
 -0.333333 -0.333333 -0.000000    0.00462963  10 t-inv F
 -0.333333 -0.000000 -0.333333    0.00462963  10 t-inv F
 -0.000000 -0.333333 -0.333333    0.00462963  10 t-inv F
  0.500000  0.000000  0.333333    0.00462963  11 t-inv F
  0.000000  0.500000  0.333333    0.00462963  11 t-inv F
  0.333333  0.500000  0.000000    0.00462963  11 t-inv F
  0.333333  0.000000  0.500000    0.00462963  11 t-inv F
  0.000000  0.333333  0.500000    0.00462963  11 t-inv F
 -0.500000 -0.333333 -0.000000    0.00462963  11 t-inv F
 -0.500000 -0.000000 -0.333333    0.00462963  11 t-inv F
 -0.000000 -0.500000 -0.333333    0.00462963  11 t-inv F
 -0.333333 -0.500000 -0.000000    0.00462963  11 t-inv F
 -0.333333 -0.000000 -0.500000    0.00462963  11 t-inv F
 -0.000000 -0.333333 -0.500000    0.00462963  11 t-inv F
 -0.333333  0.000000  0.333333    0.00462963  12 t-inv F
  0.000000 -0.333333  0.333333    0.00462963  12 t-inv F
  0.333333 -0.333333  0.000000    0.00462963  12 t-inv F
  0.333333  0.000000 -0.333333    0.00462963  12 t-inv F
  0.000000  0.333333 -0.333333    0.00462963  12 t-inv F
  0.500000  0.000000  0.500000    0.00462963  13 t-inv F
  0.000000  0.500000  0.500000    0.00462963  13 t-inv F
 -0.166667 -0.166667 -0.166667    0.00462963  14 t-inv F
  0.166667  0.333333  0.166667    0.00462963  15 t-inv F
  0.166667  0.166667  0.333333    0.00462963  15 t-inv F
 -0.333333 -0.166667 -0.166667    0.00462963  15 t-inv F
 -0.166667 -0.333333 -0.166667    0.00462963  15 t-inv F
 -0.166667 -0.166667 -0.333333    0.00462963  15 t-inv F
  0.166667  0.500000  0.166667    0.00462963  16 t-inv F
  0.166667  0.166667  0.500000    0.00462963  16 t-inv F
 -0.500000 -0.166667 -0.166667    0.00462963  16 t-inv F
 -0.166667 -0.500000 -0.166667    0.00462963  16 t-inv F
 -0.166667 -0.166667 -0.500000    0.00462963  16 t-inv F
  0.166667 -0.333333  0.166667    0.00462963  17 t-inv F
  0.166667  0.166667 -0.333333    0.00462963  17 t-inv F
  0.333333 -0.166667 -0.166667    0.00462963  17 t-inv F
 -0.166667  0.333333 -0.166667    0.00462963  17 t-inv F
 -0.166667 -0.166667  0.333333    0.00462963  17 t-inv F
  0.166667 -0.166667  0.166667    0.00462963  18 t-inv F
  0.166667  0.166667 -0.166667    0.00462963  18 t-inv F
  0.166667 -0.166667 -0.166667    0.00462963  18 t-inv F
 -0.166667  0.166667 -0.166667    0.00462963  18 t-inv F
 -0.166667 -0.166667  0.166667    0.00462963  18 t-inv F
  0.333333  0.166667  0.333333    0.00462963  19 t-inv F
  0.166667  0.333333  0.333333    0.00462963  19 t-inv F
 -0.333333 -0.333333 -0.166667    0.00462963  19 t-inv F
 -0.333333 -0.166667 -0.333333    0.00462963  19 t-inv F
 -0.166667 -0.333333 -0.333333    0.00462963  19 t-inv F
  0.500000  0.166667  0.333333    0.00462963  20 t-inv F
  0.166667  0.500000  0.333333    0.00462963  20 t-inv F
  0.333333  0.500000  0.166667    0.00462963  20 t-inv F
  0.333333  0.166667  0.500000    0.00462963  20 t-inv F
  0.166667  0.333333  0.500000    0.00462963  20 t-inv F
 -0.500000 -0.333333 -0.166667    0.00462963  20 t-inv F
 -0.500000 -0.166667 -0.333333    0.00462963  20 t-inv F
 -0.166667 -0.500000 -0.333333    0.00462963  20 t-inv F
 -0.333333 -0.500000 -0.166667    0.00462963  20 t-inv F
 -0.333333 -0.166667 -0.500000    0.00462963  20 t-inv F
 -0.166667 -0.333333 -0.500000    0.00462963  20 t-inv F
 -0.333333  0.166667  0.333333    0.00462963  21 t-inv F
  0.166667 -0.333333  0.333333    0.00462963  21 t-inv F
  0.333333 -0.333333  0.166667    0.00462963  21 t-inv F
  0.333333  0.166667 -0.333333    0.00462963  21 t-inv F
  0.166667  0.333333 -0.333333    0.00462963  21 t-inv F
  0.333333 -0.333333 -0.166667    0.00462963  21 t-inv F
  0.333333 -0.166667 -0.333333    0.00462963  21 t-inv F
 -0.166667  0.333333 -0.333333    0.00462963  21 t-inv F
 -0.333333  0.333333 -0.166667    0.00462963  21 t-inv F
 -0.333333 -0.166667  0.333333    0.00462963  21 t-inv F
 -0.166667 -0.333333  0.333333    0.00462963  21 t-inv F
 -0.166667  0.166667  0.333333    0.00462963  22 t-inv F
  0.166667 -0.166667  0.333333    0.00462963  22 t-inv F
  0.333333 -0.166667  0.166667    0.00462963  22 t-inv F
  0.333333  0.166667 -0.166667    0.00462963  22 t-inv F
  0.166667  0.333333 -0.166667    0.00462963  22 t-inv F
  0.166667 -0.333333 -0.166667    0.00462963  22 t-inv F
  0.166667 -0.166667 -0.333333    0.00462963  22 t-inv F
 -0.166667  0.166667 -0.333333    0.00462963  22 t-inv F
 -0.333333  0.166667 -0.166667    0.00462963  22 t-inv F
 -0.333333 -0.166667  0.166667    0.00462963  22 t-inv F
 -0.166667 -0.333333  0.166667    0.00462963  22 t-inv F
  0.500000  0.166667  0.500000    0.00462963  23 t-inv F
  0.166667  0.500000  0.500000    0.00462963  23 t-inv F
 -0.500000 -0.500000 -0.166667    0.00462963  23 t-inv F
 -0.500000 -0.166667 -0.500000    0.00462963  23 t-inv F
 -0.166667 -0.500000 -0.500000    0.00462963  23 t-inv F
 -0.333333  0.166667  0.500000    0.00462963  24 t-inv F
  0.166667 -0.333333  0.500000    0.00462963  24 t-inv F
  0.500000 -0.333333  0.166667    0.00462963  24 t-inv F
  0.500000  0.166667 -0.333333    0.00462963  24 t-inv F
  0.166667  0.500000 -0.333333    0.00462963  24 t-inv F
  0.333333 -0.500000 -0.166667    0.00462963  24 t-inv F
  0.333333 -0.166667 -0.500000    0.00462963  24 t-inv F
 -0.166667  0.333333 -0.500000    0.00462963  24 t-inv F
 -0.500000  0.333333 -0.166667    0.00462963  24 t-inv F
 -0.500000 -0.166667  0.333333    0.00462963  24 t-inv F
 -0.166667 -0.500000  0.333333    0.00462963  24 t-inv F
 -0.166667  0.166667  0.500000    0.00462963  25 t-inv F
  0.166667 -0.166667  0.500000    0.00462963  25 t-inv F
  0.500000 -0.166667  0.166667    0.00462963  25 t-inv F
  0.500000  0.166667 -0.166667    0.00462963  25 t-inv F
  0.166667  0.500000 -0.166667    0.00462963  25 t-inv F
 -0.333333  0.166667 -0.333333    0.00462963  26 t-inv F
  0.166667 -0.333333 -0.333333    0.00462963  26 t-inv F
  0.333333  0.333333 -0.166667    0.00462963  26 t-inv F
  0.333333 -0.166667  0.333333    0.00462963  26 t-inv F
 -0.166667  0.333333  0.333333    0.00462963  26 t-inv F
 -0.333333 -0.333333 -0.333333    0.00462963  27 t-inv F
  0.333333  0.500000  0.333333    0.00462963  28 t-inv F
  0.333333  0.333333  0.500000    0.00462963  28 t-inv F
 -0.500000 -0.333333 -0.333333    0.00462963  28 t-inv F
 -0.333333 -0.500000 -0.333333    0.00462963  28 t-inv F
 -0.333333 -0.333333 -0.500000    0.00462963  28 t-inv F
  0.333333 -0.333333  0.333333    0.00462963  29 t-inv F
  0.333333  0.333333 -0.333333    0.00462963  29 t-inv F
  0.333333 -0.333333 -0.333333    0.00462963  29 t-inv F
 -0.333333  0.333333 -0.333333    0.00462963  29 t-inv F
 -0.333333 -0.333333  0.333333    0.00462963  29 t-inv F
  0.500000  0.333333  0.500000    0.00462963  30 t-inv F
  0.333333  0.500000  0.500000    0.00462963  30 t-inv F
 -0.500000 -0.500000 -0.333333    0.00462963  30 t-inv F
 -0.500000 -0.333333 -0.500000    0.00462963  30 t-inv F
 -0.333333 -0.500000 -0.500000    0.00462963  30 t-inv F
 -0.333333  0.333333  0.500000    0.00462963  31 t-inv F
  0.333333 -0.333333  0.500000    0.00462963  31 t-inv F
  0.500000 -0.333333  0.333333    0.00462963  31 t-inv F
  0.500000  0.333333 -0.333333    0.00462963  31 t-inv F
  0.333333  0.500000 -0.333333    0.00462963  31 t-inv F


--------------------------------------------------------------------------------------------------------




 Dimension of arrays:
   k-points           NKPTS =     32   k-points in BZ     NKDIM =     32   number of bands    NBANDS=    192
   number of dos      NEDOS =    301   number of ions     NIONS =     64
   non local maximal  LDIM  =      4   non local SUM 2l+1 LMDIM =      8
   total plane-waves  NPLWV = 110592
   max r-space proj   IRMAX =      1   max aug-charges    IRDMAX=  28420
   dimension x,y,z NGX =    48 NGY =   48 NGZ =   48
   dimension x,y,z NGXF=    96 NGYF=   96 NGZF=   96
   support grid    NGXF=   192 NGYF=  192 NGZF=  192
   ions per type =              64
   NGX,Y,Z   is equivalent  to a cutoff of  11.11, 11.11, 11.11 a.u.
   NGXF,Y,Z  is equivalent  to a cutoff of  22.23, 22.23, 22.23 a.u.

 SYSTEM =  unknown system                          
 POSCAR =  generated by phonopy                    

 Startparameter for this run:
   NWRITE =      2    write-flag & timer
   PREC   = accura    normal or accurate (medium, high low for compatibility)
   ISTART =      0    job   : 0-new  1-cont  2-samecut
   ICHARG =      2    charge: 1-file 2-atom 10-const
   ISPIN  =      1    spin polarized calculation?
   LNONCOLLINEAR =      F non collinear calculations
   LSORBIT =      F    spin-orbit coupling
   INIWAV =      1    electr: 0-lowe 1-rand  2-diag
   LASPH  =      F    aspherical Exc in radial PAW
   METAGGA=      F    non-selfconsistent MetaGGA calc.

 Electronic Relaxation 1
   ENCUT  =  400.0 eV  29.40 Ry    5.42 a.u.  11.71 11.71 11.71*2*pi/ulx,y,z
   ENINI  =  400.0     initial cutoff
   ENAUG  =  644.9 eV  augmentation charge cutoff
   NELM   =     60;   NELMIN=  2; NELMDL= -5     # of ELM steps 
   EDIFF  = 0.1E-07   stopping-criterion for ELM
   LREAL  =      F    real-space projection
   NLSPLINE    = F    spline interpolate recip. space projectors
   LCOMPAT=      F    compatible to vasp.4.4
   GGA_COMPAT  = T    GGA compatible to vasp.4.4-vasp.4.6
   LMAXPAW     = -100 max onsite density
   LMAXMIX     =    2 max onsite mixed and CHGCAR
   VOSKOWN=      0    Vosko Wilk Nusair interpolation
   ROPT   =    0.00000
 Ionic relaxation
   EDIFFG = 0.1E-06   stopping-criterion for IOM
   NSW    =      1    number of steps for IOM
   NBLOCK =      1;   KBLOCK =      1    inner block; outer block 
   IBRION =      8    ionic relax: 0-MD 1-quasi-New 2-CG
   NFREE  =      0    steps in history (QN), initial steepest desc. (CG)
   ISIF   =      2    stress and relaxation
   IWAVPR =     11    prediction:  0-non 1-charg 2-wave 3-comb
   ISYM   =      2    0-nonsym 1-usesym 2-fastsym
   LCORR  =      T    Harris-Foulkes like correction to forces

   POTIM  = 0.5000    time-step for ionic-motion
   TEIN   =    0.0    initial temperature
   TEBEG  =    0.0;   TEEND  =   0.0 temperature during run
   SMASS  =  -3.00    Nose mass-parameter (am)
   estimated Nose-frequenzy (Omega)   =  0.10E-29 period in steps =****** mass=  -0.118E-26a.u.
   SCALEE = 1.0000    scale energy and forces
   NPACO  =    256;   APACO  = 16.0  distance and # of slots for P.C.
   PSTRESS=    0.0 pullay stress

  Mass of Ions in am
   POMASS =  12.01
  Ionic Valenz
   ZVAL   =   4.00
  Atomic Wigner-Seitz radii
   RWIGS  =  -1.00
  virtual crystal weights 
   VCA    =   1.00
   NELECT =     256.0000    total number of electrons
   NUPDOWN=      -1.0000    fix difference up-down

 DOS related values:
   EMIN   =  10.00;   EMAX   =-10.00  energy-range for DOS
   EFERMI =   0.00
   ISMEAR =     0;   SIGMA  =   0.06  broadening in eV -4-tet -1-fermi 0-gaus

 Electronic relaxation 2 (details)
   IALGO  =     38    algorithm
   LDIAG  =      T    sub-space diagonalisation (order eigenvalues)
   LSUBROT=      F    optimize rotation matrix (better conditioning)
   TURBO    =      0    0=normal 1=particle mesh
   IRESTART =      0    0=no restart 2=restart with 2 vectors
   NREBOOT  =      0    no. of reboots
   NMIN     =      0    reboot dimension
   EREF     =   0.00    reference energy to select bands
   IMIX   =      4    mixing-type and parameters
     AMIX     =   0.40;   BMIX     =  1.00
     AMIX_MAG =   1.60;   BMIX_MAG =  1.00
     AMIN     =   0.10
     WC   =   100.;   INIMIX=   1;  MIXPRE=   1;  MAXMIX= -45

 Intra band minimization:
   WEIMIN = 0.0010     energy-eigenvalue tresh-hold
   EBREAK =  0.13E-10  absolut break condition
   DEPER  =   0.30     relativ break condition  

   TIME   =   0.40     timestep for ELM

  volume/ion in A,a.u.               =       5.78        39.01
  Fermi-wavevector in a.u.,A,eV,Ry     =   1.448048  2.736414 28.529272  2.096842
  Thomas-Fermi vector in A             =   2.565933
 
 Write flags
   LWAVE        =      F    write WAVECAR
   LDOWNSAMPLE  =      F    k-point downsampling of WAVECAR
   LCHARG       =      F    write CHGCAR
   LVTOT        =      F    write LOCPOT, total local potential
   LVHAR        =      F    write LOCPOT, Hartree potential only
   LELF         =      F    write electronic localiz. function (ELF)
   LORBIT       =      0    0 simple, 1 ext, 2 COOP (PROOUT), +10 PAW based schemes


 Dipole corrections
   LMONO  =      F    monopole corrections only (constant potential shift)
   LDIPOL =      F    correct potential (dipole corrections)
   IDIPOL =      0    1-x, 2-y, 3-z, 4-all directions 
   EPSILON=  1.0000000 bulk dielectric constant

 Exchange correlation treatment:
   GGA     =    --    GGA type
   LEXCH   =     8    internal setting for exchange type
   VOSKOWN=      0    Vosko Wilk Nusair interpolation
   LHFCALC =     F    Hartree Fock is set to
   LHFONE  =     F    Hartree Fock one center treatment
   AEXX    =    0.0000 exact exchange contribution

 Linear response parameters
   LEPSILON=     F    determine dielectric tensor
   LRPA    =     F    only Hartree local field effects (RPA)
   LNABLA  =     F    use nabla operator in PAW spheres
   LVEL    =     F    velocity operator in full k-point grid
   LINTERFAST=   F  fast interpolation
   KINTER  =     0    interpolate to denser k-point grid
   CSHIFT  =0.1000    complex shift for real part using Kramers Kronig
   OMEGAMAX=  -1.0    maximum frequency
   DEG_THRESHOLD= 0.2000000E-02 threshold for treating states as degnerate
   RTIME   =   -0.100 relaxation time in fs
  (WPLASMAI=    0.000 imaginary part of plasma frequency in eV, 0.658/RTIME)
   DFIELD  = 0.0000000 0.0000000 0.0000000 field for delta impulse in time
 
 Orbital magnetization related:
   ORBITALMAG=     F  switch on orbital magnetization
   LCHIMAG   =     F  perturbation theory with respect to B field
   DQ        =  0.001000  dq finite difference perturbation B field
   LLRAUG    =     F  two centre corrections for induced B field



--------------------------------------------------------------------------------------------------------


 linear response using symmetry
 charge density and potential will be updated during run
 non-spin polarized calculation
 Variant of blocked Davidson
 Davidson routine will perform the subspace rotation
 perform sub-space diagonalisation
    after iterative eigenvector-optimisation
 modified Broyden-mixing scheme, WC =      100.0
 initial mixing is a Kerker type mixing with AMIX =  0.4000 and BMIX =      1.0000
 Hartree-type preconditioning will be used
 using additional bands           64
 reciprocal scheme for non local part
 calculate Harris-corrections to forces 
   (improved forces if not selfconsistent)
 use gradient corrections 
 use of overlap-Matrix (Vanderbilt PP)
 Gauss-broadening in eV      SIGMA  =   0.06


--------------------------------------------------------------------------------------------------------


  energy-cutoff  :      400.00
  volume of cell :      369.93
      direct lattice vectors                 reciprocal lattice vectors
     7.179998718  0.000000000  0.000000000     0.139275791 -0.002786065 -0.002731962
     0.143599573  7.178562200  0.000000000     0.000000000  0.139303662 -0.002731980
     0.143599573  0.140756673  7.177181937     0.000000000  0.000000000  0.139330452

  length of vectors
     7.179998718  7.179998335  7.179998178     0.139330441  0.139330448  0.139330452


 
 k-points in units of 2pi/SCALE and weight: kpt_density=3000                        
   0.00000000  0.00000000  0.00000000       0.005
   0.02321263 -0.00046434 -0.00045533       0.028
   0.04642526 -0.00092869 -0.00091065       0.028
   0.06963790 -0.00139303 -0.00136598       0.014
   0.02321263  0.02275293 -0.00091066       0.028
   0.04642526  0.02228859 -0.00136598       0.056
   0.06963790  0.02182424 -0.00182131       0.056
  -0.04642526  0.02414597  0.00045532       0.056
  -0.02321263  0.02368162 -0.00000000       0.028
   0.04642526  0.04550587 -0.00182131       0.028
   0.06963790  0.04504152 -0.00227664       0.056
  -0.04642526  0.04736324 -0.00000001       0.028
   0.06963790  0.06825880 -0.00273197       0.014
   0.02321263  0.02275293  0.02231108       0.009
   0.04642526  0.02228859  0.02185576       0.028
   0.06963790  0.02182424  0.02140043       0.028
  -0.04642526  0.02414597  0.02367707       0.028
  -0.02321263  0.02368162  0.02322174       0.028
   0.04642526  0.04550587  0.02140043       0.028
   0.06963790  0.04504152  0.02094510       0.056
  -0.04642526  0.04736324  0.02322174       0.056
  -0.02321263  0.04689890  0.02276641       0.056
   0.06963790  0.06825880  0.02048977       0.028
  -0.04642526  0.07058052  0.02276641       0.056
  -0.02321263  0.07011618  0.02231108       0.028
  -0.04642526 -0.04550587  0.02504306       0.028
   0.04642526  0.04550587  0.04462217       0.009
   0.06963790  0.04504152  0.04416684       0.028
  -0.04642526  0.04736324  0.04644348       0.028
   0.06963790  0.06825880  0.04371151       0.028
  -0.04642526  0.07058052  0.04598815       0.028
   0.06963790  0.06825880  0.06693325       0.005
 
 k-points in reciprocal lattice and weights: kpt_density=3000                        
   0.00000000  0.00000000  0.00000000       0.005
   0.16666667 -0.00000000 -0.00000000       0.028
   0.33333333 -0.00000000  0.00000000       0.028
   0.50000000 -0.00000000  0.00000000       0.014
   0.16666667  0.16666667  0.00000000       0.028
   0.33333333  0.16666667  0.00000000       0.056
   0.50000000  0.16666667  0.00000000       0.056
  -0.33333333  0.16666667  0.00000000       0.056
  -0.16666667  0.16666667 -0.00000000       0.028
   0.33333333  0.33333333  0.00000000       0.028
   0.50000000  0.33333333  0.00000000       0.056
  -0.33333333  0.33333333  0.00000000       0.028
   0.50000000  0.50000000  0.00000000       0.014
   0.16666667  0.16666667  0.16666667       0.009
   0.33333333  0.16666667  0.16666667       0.028
   0.50000000  0.16666667  0.16666667       0.028
  -0.33333333  0.16666667  0.16666667       0.028
  -0.16666667  0.16666667  0.16666667       0.028
   0.33333333  0.33333333  0.16666667       0.028
   0.50000000  0.33333333  0.16666667       0.056
  -0.33333333  0.33333333  0.16666667       0.056
  -0.16666667  0.33333333  0.16666667       0.056
   0.50000000  0.50000000  0.16666667       0.028
  -0.33333333  0.50000000  0.16666667       0.056
  -0.16666667  0.50000000  0.16666667       0.028
  -0.33333333 -0.33333333  0.16666667       0.028
   0.33333333  0.33333333  0.33333333       0.009
   0.50000000  0.33333333  0.33333333       0.028
  -0.33333333  0.33333333  0.33333333       0.028
   0.50000000  0.50000000  0.33333333       0.028
  -0.33333333  0.50000000  0.33333333       0.028
   0.50000000  0.50000000  0.50000000       0.005
 
 position of ions in fractional coordinates (direct lattice) 
   0.12500000  0.37500000  0.12500000
   0.62500000  0.37500000  0.12500000
   0.12500000  0.87500000  0.12500000
   0.62500000  0.87500000  0.12500000
   0.12500000  0.37500000  0.62500000
   0.62500000  0.37500000  0.62500000
   0.12500000  0.87500000  0.62500000
   0.62500000  0.87500000  0.62500000
   0.00000000  0.00000000  0.25000000
   0.50000000  0.00000000  0.25000000
   0.00000000  0.50000000  0.25000000
   0.50000000  0.50000000  0.25000000
   0.00000000  0.00000000  0.75000000
   0.50000000  0.00000000  0.75000000
   0.00000000  0.50000000  0.75000000
   0.50000000  0.50000000  0.75000000
   0.12500000  0.12500000  0.37500000
   0.62500000  0.12500000  0.37500000
   0.12500000  0.62500000  0.37500000
   0.62500000  0.62500000  0.37500000
   0.12500000  0.12500000  0.87500000
   0.62500000  0.12500000  0.87500000
   0.12500000  0.62500000  0.87500000
   0.62500000  0.62500000  0.87500000
   0.00000000  0.25000000  0.00000000
   0.50000000  0.25000000  0.00000000
   0.00000000  0.75000000  0.00000000
   0.50000000  0.75000000  0.00000000
   0.00000000  0.25000000  0.50000000
   0.50000000  0.25000000  0.50000000
   0.00000000  0.75000000  0.50000000
   0.50000000  0.75000000  0.50000000
   0.37500000  0.37500000  0.37500000
   0.87500000  0.37500000  0.37500000
   0.37500000  0.87500000  0.37500000
   0.87500000  0.87500000  0.37500000
   0.37500000  0.37500000  0.87500000
   0.87500000  0.37500000  0.87500000
   0.37500000  0.87500000  0.87500000
   0.87500000  0.87500000  0.87500000
   0.25000000  0.00000000  0.00000000
   0.75000000  0.00000000  0.00000000
   0.25000000  0.50000000  0.00000000
   0.75000000  0.50000000  0.00000000
   0.25000000  0.00000000  0.50000000
   0.75000000  0.00000000  0.50000000
   0.25000000  0.50000000  0.50000000
   0.75000000  0.50000000  0.50000000
   0.37500000  0.12500000  0.12500000
   0.87500000  0.12500000  0.12500000
   0.37500000  0.62500000  0.12500000
   0.87500000  0.62500000  0.12500000
   0.37500000  0.12500000  0.62500000
   0.87500000  0.12500000  0.62500000
   0.37500000  0.62500000  0.62500000
   0.87500000  0.62500000  0.62500000
   0.25000000  0.25000000  0.25000000
   0.75000000  0.25000000  0.25000000
   0.25000000  0.75000000  0.25000000
   0.75000000  0.75000000  0.25000000
   0.25000000  0.25000000  0.75000000
   0.75000000  0.25000000  0.75000000
   0.25000000  0.75000000  0.75000000
   0.75000000  0.75000000  0.75000000
 
 position of ions in cartesian coordinates  (Angst):
   0.96929963  2.70955541  0.89714774
   4.55929898  2.70955541  0.89714774
   1.04109941  6.29883651  0.89714774
   4.63109877  6.29883651  0.89714774
   1.04109941  2.77993375  4.48573871
   4.63109877  2.77993375  4.48573871
   1.11289920  6.36921485  4.48573871
   4.70289856  6.36921485  4.48573871
   0.03589989  0.03518917  1.79429548
   3.62589925  0.03518917  1.79429548
   0.10769968  3.62447027  1.79429548
   3.69769904  3.62447027  1.79429548
   0.10769968  0.10556750  5.38288645
   3.69769904  0.10556750  5.38288645
   0.17949947  3.69484860  5.38288645
   3.76949882  3.69484860  5.38288645
   0.96929963  0.95010403  2.69144323
   4.55929898  0.95010403  2.69144323
   1.04109941  4.53938513  2.69144323
   4.63109877  4.53938513  2.69144323
   1.04109941  1.02048236  6.28003419
   4.63109877  1.02048236  6.28003419
   1.11289920  4.60976346  6.28003419
   4.70289856  4.60976346  6.28003419
   0.03589989  1.79464055  0.00000000
   3.62589925  1.79464055  0.00000000
   0.10769968  5.38392165  0.00000000
   3.69769904  5.38392165  0.00000000
   0.10769968  1.86501889  3.58859097
   3.69769904  1.86501889  3.58859097
   0.17949947  5.45429999  3.58859097
   3.76949882  5.45429999  3.58859097
   2.80019920  2.74474458  2.69144323
   6.39019856  2.74474458  2.69144323
   2.87199898  6.33402568  2.69144323
   6.46199834  6.33402568  2.69144323
   2.87199898  2.81512291  6.28003419
   6.46199834  2.81512291  6.28003419
   2.94379877  6.40440401  6.28003419
   6.53379813  6.40440401  6.28003419
   1.79499968  0.00000000  0.00000000
   5.38499904  0.00000000  0.00000000
   1.86679947  3.58928110  0.00000000
   5.45679882  3.58928110  0.00000000
   1.86679947  0.07037834  3.58859097
   5.45679882  0.07037834  3.58859097
   1.93859925  3.65965944  3.58859097
   5.52859861  3.65965944  3.58859097
   2.72839941  0.91491486  0.89714774
   6.31839877  0.91491486  0.89714774
   2.80019920  4.50419596  0.89714774
   6.39019856  4.50419596  0.89714774
   2.80019920  0.98529320  4.48573871
   6.39019856  0.98529320  4.48573871
   2.87199898  4.57457430  4.48573871
   6.46199834  4.57457430  4.48573871
   1.86679947  1.82982972  1.79429548
   5.45679882  1.82982972  1.79429548
   1.93859925  5.41911082  1.79429548
   5.52859861  5.41911082  1.79429548
   1.93859925  1.90020805  5.38288645
   5.52859861  1.90020805  5.38288645
   2.01039904  5.48948915  5.38288645
   5.60039840  5.48948915  5.38288645
 


--------------------------------------------------------------------------------------------------------


 k-point  1 :   0.0000 0.0000 0.0000  plane waves:    6775
 k-point  2 :   0.1667-0.0000-0.0000  plane waves:    6732
 k-point  3 :   0.3333-0.0000 0.0000  plane waves:    6714
 k-point  4 :   0.5000-0.0000 0.0000  plane waves:    6718
 k-point  5 :   0.1667 0.1667 0.0000  plane waves:    6724
 k-point  6 :   0.3333 0.1667 0.0000  plane waves:    6723
 k-point  7 :   0.5000 0.1667 0.0000  plane waves:    6728
 k-point  8 :  -0.3333 0.1667 0.0000  plane waves:    6725
 k-point  9 :  -0.1667 0.1667-0.0000  plane waves:    6737
 k-point 10 :   0.3333 0.3333 0.0000  plane waves:    6714
 k-point 11 :   0.5000 0.3333 0.0000  plane waves:    6708
 k-point 12 :  -0.3333 0.3333 0.0000  plane waves:    6720
 k-point 13 :   0.5000 0.5000 0.0000  plane waves:    6726
 k-point 14 :   0.1667 0.1667 0.1667  plane waves:    6734
 k-point 15 :   0.3333 0.1667 0.1667  plane waves:    6712
 k-point 16 :   0.5000 0.1667 0.1667  plane waves:    6733
 k-point 17 :  -0.3333 0.1667 0.1667  plane waves:    6705
 k-point 18 :  -0.1667 0.1667 0.1667  plane waves:    6721
 k-point 19 :   0.3333 0.3333 0.1667  plane waves:    6717
 k-point 20 :   0.5000 0.3333 0.1667  plane waves:    6721
 k-point 21 :  -0.3333 0.3333 0.1667  plane waves:    6711
 k-point 22 :  -0.1667 0.3333 0.1667  plane waves:    6720
 k-point 23 :   0.5000 0.5000 0.1667  plane waves:    6713
 k-point 24 :  -0.3333 0.5000 0.1667  plane waves:    6717
 k-point 25 :  -0.1667 0.5000 0.1667  plane waves:    6724
 k-point 26 :  -0.3333-0.3333 0.1667  plane waves:    6709
 k-point 27 :   0.3333 0.3333 0.3333  plane waves:    6755
 k-point 28 :   0.5000 0.3333 0.3333  plane waves:    6736
 k-point 29 :  -0.3333 0.3333 0.3333  plane waves:    6721
 k-point 30 :   0.5000 0.5000 0.3333  plane waves:    6721
 k-point 31 :  -0.3333 0.5000 0.3333  plane waves:    6712
 k-point 32 :   0.5000 0.5000 0.5000  plane waves:    6722

 maximum and minimum number of plane-waves per node :      6775     6705

 maximum number of plane-waves:      6775
 maximum index in each direction: 
   IXMAX=   12   IYMAX=   12   IZMAX=   11
   IXMIN=  -12   IYMIN=  -12   IZMIN=  -12


 serial   3D FFT for wavefunctions
 parallel 3D FFT for charge:
    minimum data exchange during FFTs selected (reduces bandwidth)


 total amount of memory used by VASP MPI-rank0    83792. kBytes
=======================================================================

   base      :      30000. kBytes
   nonl-proj :      20840. kBytes
   fftplans  :       4537. kBytes
   grid      :       5806. kBytes
   one-center:        196. kBytes
   wavefun   :      22413. kBytes
 
     INWAV:  cpu time    0.0004: real time    0.0005
 Broyden mixing: mesh for mixing (old mesh)
   NGX = 23   NGY = 23   NGZ = 23
  (NGX  = 96   NGY  = 96   NGZ  = 96)
  gives a total of  12167 points

 initial charge density was supplied:
 charge density of overlapping atoms calculated
 number of electron     256.0000000 magnetization 
 keeping initial charge density in first step


--------------------------------------------------------------------------------------------------------


 Maximum index for augmentation-charges         1097 (set IRDMAX)


--------------------------------------------------------------------------------------------------------


 First call to EWALD:  gamma=   0.247
 Maximum number of real-space cells 3x 3x 3
 Maximum number of reciprocal cells 3x 3x 3

    FEWALD:  cpu time    0.0084: real time    0.0084


--------------------------------------- Iteration      1(   1)  ---------------------------------------


    POTLOK:  cpu time    0.0710: real time    0.1551
    SETDIJ:  cpu time    0.0413: real time    0.0415
     EDDAV:  cpu time   22.1060: real time   22.1179
       DOS:  cpu time    0.0072: real time    0.0072
    --------------------------------------------
      LOOP:  cpu time   22.2256: real time   22.3218

 eigenvalue-minimisations  : 12288
 total energy-change (2. order) : 0.5058329E+03  (-0.1134650E+05)
 number of electron     256.0000000 magnetization 
 augmentation part      256.0000000 magnetization 

 Free energy of the ion-electron system (eV)
  ---------------------------------------------------
  alpha Z        PSCENC =       902.18593566
  Ewald energy   TEWEN  =    -11062.46483150
  -Hartree energ DENC   =      -578.13996783
  -exchange      EXHF   =         0.00000000
  -V(xc)+E(xc)   XCENC  =       911.30147338
  PAW double counting   =      2421.21235816    -2494.84305711
  entropy T*S    EENTRO =        -0.01122988
  eigenvalues    EBANDS =       990.44993366
  atomic energy  EATOM  =      9416.14232778
  Solvation  Ediel_sol  =         0.00000000
  ---------------------------------------------------
  free energy    TOTEN  =       505.83294232 eV

  energy without entropy =      505.84417220  energy(sigma->0) =      505.83855726


--------------------------------------------------------------------------------------------------------




--------------------------------------- Iteration      1(   2)  ---------------------------------------


     EDDAV:  cpu time   28.4651: real time   28.4669
       DOS:  cpu time    0.0040: real time    0.0040
    --------------------------------------------
      LOOP:  cpu time   28.4691: real time   28.4709

 eigenvalue-minimisations  : 16128
 total energy-change (2. order) :-0.1064730E+04  (-0.1014947E+04)
 number of electron     256.0000000 magnetization 
 augmentation part      256.0000000 magnetization 

 Free energy of the ion-electron system (eV)
  ---------------------------------------------------
  alpha Z        PSCENC =       902.18593566
  Ewald energy   TEWEN  =    -11062.46483150
  -Hartree energ DENC   =      -578.13996783
  -exchange      EXHF   =         0.00000000
  -V(xc)+E(xc)   XCENC  =       911.30147338
  PAW double counting   =      2421.21235816    -2494.84305711
  entropy T*S    EENTRO =        -0.00000000
  eigenvalues    EBANDS =       -74.29079704
  atomic energy  EATOM  =      9416.14232778
  Solvation  Ediel_sol  =         0.00000000
  ---------------------------------------------------
  free energy    TOTEN  =      -558.89655849 eV

  energy without entropy =     -558.89655849  energy(sigma->0) =     -558.89655849


--------------------------------------------------------------------------------------------------------




--------------------------------------- Iteration      1(   3)  ---------------------------------------


     EDDAV:  cpu time   28.2212: real time   28.2230
       DOS:  cpu time    0.0037: real time    0.0037
    --------------------------------------------
      LOOP:  cpu time   28.2249: real time   28.2267

 eigenvalue-minimisations  : 16384
 total energy-change (2. order) :-0.4105384E+02  (-0.4081053E+02)
 number of electron     256.0000000 magnetization 
 augmentation part      256.0000000 magnetization 

 Free energy of the ion-electron system (eV)
  ---------------------------------------------------
  alpha Z        PSCENC =       902.18593566
  Ewald energy   TEWEN  =    -11062.46483150
  -Hartree energ DENC   =      -578.13996783
  -exchange      EXHF   =         0.00000000
  -V(xc)+E(xc)   XCENC  =       911.30147338
  PAW double counting   =      2421.21235816    -2494.84305711
  entropy T*S    EENTRO =        -0.00000000
  eigenvalues    EBANDS =      -115.34463509
  atomic energy  EATOM  =      9416.14232778
  Solvation  Ediel_sol  =         0.00000000
  ---------------------------------------------------
  free energy    TOTEN  =      -599.95039655 eV

  energy without entropy =     -599.95039655  energy(sigma->0) =     -599.95039655


--------------------------------------------------------------------------------------------------------




--------------------------------------- Iteration      1(   4)  ---------------------------------------


     EDDAV:  cpu time   27.3367: real time   27.3383
       DOS:  cpu time    0.0041: real time    0.0041
    --------------------------------------------
      LOOP:  cpu time   27.3408: real time   27.3424

 eigenvalue-minimisations  : 16192
 total energy-change (2. order) :-0.4506556E+00  (-0.4497506E+00)
 number of electron     256.0000000 magnetization 
 augmentation part      256.0000000 magnetization 

 Free energy of the ion-electron system (eV)
  ---------------------------------------------------
  alpha Z        PSCENC =       902.18593566
  Ewald energy   TEWEN  =    -11062.46483150
  -Hartree energ DENC   =      -578.13996783
  -exchange      EXHF   =         0.00000000
  -V(xc)+E(xc)   XCENC  =       911.30147338
  PAW double counting   =      2421.21235816    -2494.84305711
  entropy T*S    EENTRO =        -0.00000000
  eigenvalues    EBANDS =      -115.79529070
  atomic energy  EATOM  =      9416.14232778
  Solvation  Ediel_sol  =         0.00000000
  ---------------------------------------------------
  free energy    TOTEN  =      -600.40105216 eV

  energy without entropy =     -600.40105216  energy(sigma->0) =     -600.40105216


--------------------------------------------------------------------------------------------------------




--------------------------------------- Iteration      1(   5)  ---------------------------------------


     EDDAV:  cpu time   26.4602: real time   26.4620
       DOS:  cpu time    0.0038: real time    0.0038
    CHARGE:  cpu time    0.6556: real time    0.6558
    MIXING:  cpu time    0.0039: real time    0.0039
    --------------------------------------------
      LOOP:  cpu time   27.1235: real time   27.1256

 eigenvalue-minimisations  : 15232
 total energy-change (2. order) :-0.8968308E-02  (-0.8964321E-02)
 number of electron     255.9999994 magnetization 
 augmentation part        6.1929976 magnetization 

 Broyden mixing:
  rms(total) = 0.26321E+01    rms(broyden)= 0.26316E+01
  rms(prec ) = 0.38480E+01
  weight for this iteration     100.00

 Free energy of the ion-electron system (eV)
  ---------------------------------------------------
  alpha Z        PSCENC =       902.18593566
  Ewald energy   TEWEN  =    -11062.46483150
  -Hartree energ DENC   =      -578.13996783
  -exchange      EXHF   =         0.00000000
  -V(xc)+E(xc)   XCENC  =       911.30147338
  PAW double counting   =      2421.21235816    -2494.84305711
  entropy T*S    EENTRO =        -0.00000000
  eigenvalues    EBANDS =      -115.80425901
  atomic energy  EATOM  =      9416.14232778
  Solvation  Ediel_sol  =         0.00000000
  ---------------------------------------------------
  free energy    TOTEN  =      -600.41002047 eV

  energy without entropy =     -600.41002047  energy(sigma->0) =     -600.41002047


--------------------------------------------------------------------------------------------------------




--------------------------------------- Iteration      1(   6)  ---------------------------------------


    POTLOK:  cpu time    0.0584: real time    0.0588
    SETDIJ:  cpu time    0.0396: real time    0.0396
     EDDAV:  cpu time   25.4969: real time   25.4983
       DOS:  cpu time    0.0038: real time    0.0038
    CHARGE:  cpu time    0.6474: real time    0.6474
    MIXING:  cpu time    0.0043: real time    0.0043
    --------------------------------------------
      LOOP:  cpu time   26.2504: real time   26.2522

 eigenvalue-minimisations  : 14528
 total energy-change (2. order) : 0.1442664E+02  (-0.9592999E+00)
 number of electron     255.9999994 magnetization 
 augmentation part        6.0509591 magnetization 

 Broyden mixing:
  rms(total) = 0.14469E+01    rms(broyden)= 0.14469E+01
  rms(prec ) = 0.20954E+01
  weight for this iteration     100.00

 eigenvalues of (default mixing * dielectric matrix)
  average eigenvalue GAMMA=   2.1733
  2.1733

 Free energy of the ion-electron system (eV)
  ---------------------------------------------------
  alpha Z        PSCENC =       902.18593566
  Ewald energy   TEWEN  =    -11062.46483150
  -Hartree energ DENC   =      -697.82733410
  -exchange      EXHF   =         0.00000000
  -V(xc)+E(xc)   XCENC  =       922.47397253
  PAW double counting   =      3125.68075351    -3203.46245822
  entropy T*S    EENTRO =        -0.00000000
  eigenvalues    EBANDS =        11.28825038
  atomic energy  EATOM  =      9416.14232778
  Solvation  Ediel_sol  =         0.00000000
  ---------------------------------------------------
  free energy    TOTEN  =      -585.98338394 eV

  energy without entropy =     -585.98338394  energy(sigma->0) =     -585.98338394


--------------------------------------------------------------------------------------------------------




--------------------------------------- Iteration      1(   7)  ---------------------------------------


    POTLOK:  cpu time    0.0595: real time    0.0597
    SETDIJ:  cpu time    0.0459: real time    0.0459
     EDDAV:  cpu time   25.3964: real time   25.3976
       DOS:  cpu time    0.0040: real time    0.0040
    CHARGE:  cpu time    0.6464: real time    0.6465
    MIXING:  cpu time    0.0044: real time    0.0044
    --------------------------------------------
      LOOP:  cpu time   26.1565: real time   26.1581

 eigenvalue-minimisations  : 15072
 total energy-change (2. order) : 0.4868621E+01  (-0.1104746E+01)
 number of electron     255.9999994 magnetization 
 augmentation part        5.9017968 magnetization 

 Broyden mixing:
  rms(total) = 0.19533E+00    rms(broyden)= 0.19439E+00
  rms(prec ) = 0.23937E+00
  weight for this iteration     100.00

 eigenvalues of (default mixing * dielectric matrix)
  average eigenvalue GAMMA=   2.2742
  2.0189  2.5296

 Free energy of the ion-electron system (eV)
  ---------------------------------------------------
  alpha Z        PSCENC =       902.18593566
  Ewald energy   TEWEN  =    -11062.46483150
  -Hartree energ DENC   =      -851.15782688
  -exchange      EXHF   =         0.00000000
  -V(xc)+E(xc)   XCENC  =       936.96488466
  PAW double counting   =      4083.66573216    -4165.39284104
  entropy T*S    EENTRO =        -0.00000000
  eigenvalues    EBANDS =       158.94185661
  atomic energy  EATOM  =      9416.14232778
  Solvation  Ediel_sol  =         0.00000000
  ---------------------------------------------------
  free energy    TOTEN  =      -581.11476254 eV

  energy without entropy =     -581.11476254  energy(sigma->0) =     -581.11476254


--------------------------------------------------------------------------------------------------------




--------------------------------------- Iteration      1(   8)  ---------------------------------------


    POTLOK:  cpu time    0.0596: real time    0.0614
    SETDIJ:  cpu time    0.0400: real time    0.0400
     EDDAV:  cpu time   25.9665: real time   25.9679
       DOS:  cpu time    0.0038: real time    0.0038
    CHARGE:  cpu time    0.6444: real time    0.6444
    MIXING:  cpu time    0.0045: real time    0.0044
    --------------------------------------------
      LOOP:  cpu time   26.7188: real time   26.7219

 eigenvalue-minimisations  : 15392
 total energy-change (2. order) :-0.6009251E-01  (-0.2662941E-01)
 number of electron     255.9999994 magnetization 
 augmentation part        5.9099990 magnetization 

 Broyden mixing:
  rms(total) = 0.21362E-01    rms(broyden)= 0.21068E-01
  rms(prec ) = 0.25920E-01
  weight for this iteration     100.00

 eigenvalues of (default mixing * dielectric matrix)
  average eigenvalue GAMMA=   2.0965
  1.4629  2.6792  2.1472

 Free energy of the ion-electron system (eV)
  ---------------------------------------------------
  alpha Z        PSCENC =       902.18593566
  Ewald energy   TEWEN  =    -11062.46483150
  -Hartree energ DENC   =      -853.97063860
  -exchange      EXHF   =         0.00000000
  -V(xc)+E(xc)   XCENC  =       937.26031365
  PAW double counting   =      4147.86200240    -4228.54249810
  entropy T*S    EENTRO =        -0.00000000
  eigenvalues    EBANDS =       160.35253363
  atomic energy  EATOM  =      9416.14232778
  Solvation  Ediel_sol  =         0.00000000
  ---------------------------------------------------
  free energy    TOTEN  =      -581.17485505 eV

  energy without entropy =     -581.17485505  energy(sigma->0) =     -581.17485505


--------------------------------------------------------------------------------------------------------




--------------------------------------- Iteration      1(   9)  ---------------------------------------


    POTLOK:  cpu time    0.0672: real time    0.0675
    SETDIJ:  cpu time    0.0404: real time    0.0404
     EDDAV:  cpu time   27.5047: real time   27.5061
       DOS:  cpu time    0.0037: real time    0.0037
    CHARGE:  cpu time    0.6460: real time    0.6461
    MIXING:  cpu time    0.0048: real time    0.0048
    --------------------------------------------
      LOOP:  cpu time   28.2669: real time   28.2686

 eigenvalue-minimisations  : 15968
 total energy-change (2. order) :-0.2197605E-02  (-0.3816489E-03)
 number of electron     255.9999994 magnetization 
 augmentation part        5.9089018 magnetization 

 Broyden mixing:
  rms(total) = 0.83208E-02    rms(broyden)= 0.82989E-02
  rms(prec ) = 0.10518E-01
  weight for this iteration     100.00

 eigenvalues of (default mixing * dielectric matrix)
  average eigenvalue GAMMA=   2.0104
  0.9473  2.7233  2.4024  1.9684

 Free energy of the ion-electron system (eV)
  ---------------------------------------------------
  alpha Z        PSCENC =       902.18593566
  Ewald energy   TEWEN  =    -11062.46483150
  -Hartree energ DENC   =      -853.61179729
  -exchange      EXHF   =         0.00000000
  -V(xc)+E(xc)   XCENC  =       937.22519792
  PAW double counting   =      4144.21181138    -4224.79677242
  entropy T*S    EENTRO =        -0.00000000
  eigenvalues    EBANDS =       159.93107580
  atomic energy  EATOM  =      9416.14232778
  Solvation  Ediel_sol  =         0.00000000
  ---------------------------------------------------
  free energy    TOTEN  =      -581.17705266 eV

  energy without entropy =     -581.17705266  energy(sigma->0) =     -581.17705266


--------------------------------------------------------------------------------------------------------




--------------------------------------- Iteration      1(  10)  ---------------------------------------


    POTLOK:  cpu time    0.0810: real time    0.0814
    SETDIJ:  cpu time    0.0427: real time    0.0427
     EDDAV:  cpu time   25.8565: real time   25.8578
       DOS:  cpu time    0.0039: real time    0.0039
    CHARGE:  cpu time    0.6471: real time    0.6471
    MIXING:  cpu time    0.0049: real time    0.0049
    --------------------------------------------
      LOOP:  cpu time   26.6361: real time   26.6378

 eigenvalue-minimisations  : 14688
 total energy-change (2. order) :-0.4693152E-03  (-0.3889627E-04)
 number of electron     255.9999994 magnetization 
 augmentation part        5.9086319 magnetization 

 Broyden mixing:
  rms(total) = 0.90034E-03    rms(broyden)= 0.88603E-03
  rms(prec ) = 0.13149E-02
  weight for this iteration     100.00

 eigenvalues of (default mixing * dielectric matrix)
  average eigenvalue GAMMA=   1.9521
  2.9268  2.5470  2.0602  0.9855  1.2409

 Free energy of the ion-electron system (eV)
  ---------------------------------------------------
  alpha Z        PSCENC =       902.18593566
  Ewald energy   TEWEN  =    -11062.46483150
  -Hartree energ DENC   =      -854.00156447
  -exchange      EXHF   =         0.00000000
  -V(xc)+E(xc)   XCENC  =       937.25905919
  PAW double counting   =      4140.85168369    -4221.44927734
  entropy T*S    EENTRO =        -0.00000000
  eigenvalues    EBANDS =       160.29914501
  atomic energy  EATOM  =      9416.14232778
  Solvation  Ediel_sol  =         0.00000000
  ---------------------------------------------------
  free energy    TOTEN  =      -581.17752197 eV

  energy without entropy =     -581.17752197  energy(sigma->0) =     -581.17752197


--------------------------------------------------------------------------------------------------------




--------------------------------------- Iteration      1(  11)  ---------------------------------------


    POTLOK:  cpu time    0.0615: real time    0.0618
    SETDIJ:  cpu time    0.0408: real time    0.0408
     EDDAV:  cpu time   27.7494: real time   27.7508
       DOS:  cpu time    0.0040: real time    0.0040
    CHARGE:  cpu time    0.6442: real time    0.6443
    MIXING:  cpu time    0.0051: real time    0.0051
    --------------------------------------------
      LOOP:  cpu time   28.5051: real time   28.5069

 eigenvalue-minimisations  : 16160
 total energy-change (2. order) :-0.9412994E-05  (-0.1303839E-05)
 number of electron     255.9999994 magnetization 
 augmentation part        5.9084539 magnetization 

 Broyden mixing:
  rms(total) = 0.26389E-03    rms(broyden)= 0.25925E-03
  rms(prec ) = 0.32924E-03
  weight for this iteration     100.00

 eigenvalues of (default mixing * dielectric matrix)
  average eigenvalue GAMMA=   1.9846
  2.9268  2.0343  2.5225  2.4278  0.9981  0.9981

 Free energy of the ion-electron system (eV)
  ---------------------------------------------------
  alpha Z        PSCENC =       902.18593566
  Ewald energy   TEWEN  =    -11062.46483150
  -Hartree energ DENC   =      -854.12425489
  -exchange      EXHF   =         0.00000000
  -V(xc)+E(xc)   XCENC  =       937.27033954
  PAW double counting   =      4141.00412336    -4221.60625306
  entropy T*S    EENTRO =        -0.00000000
  eigenvalues    EBANDS =       160.41508172
  atomic energy  EATOM  =      9416.14232778
  Solvation  Ediel_sol  =         0.00000000
  ---------------------------------------------------
  free energy    TOTEN  =      -581.17753138 eV

  energy without entropy =     -581.17753138  energy(sigma->0) =     -581.17753138


--------------------------------------------------------------------------------------------------------




--------------------------------------- Iteration      1(  12)  ---------------------------------------


    POTLOK:  cpu time    0.0667: real time    0.0672
    SETDIJ:  cpu time    0.0396: real time    0.0396
     EDDAV:  cpu time   28.3551: real time   28.3565
       DOS:  cpu time    0.0039: real time    0.0039
    CHARGE:  cpu time    0.6494: real time    0.6494
    MIXING:  cpu time    0.0052: real time    0.0052
    --------------------------------------------
      LOOP:  cpu time   29.1199: real time   29.1218

 eigenvalue-minimisations  : 15776
 total energy-change (2. order) :-0.1495973E-06  (-0.4164678E-07)
 number of electron     255.9999994 magnetization 
 augmentation part        5.9084674 magnetization 

 Broyden mixing:
  rms(total) = 0.34172E-04    rms(broyden)= 0.31663E-04
  rms(prec ) = 0.41628E-04
  weight for this iteration     100.00

 eigenvalues of (default mixing * dielectric matrix)
  average eigenvalue GAMMA=   1.9258
  2.8667  2.5610  2.5190  2.0455  1.0005  1.0005  1.4875

 Free energy of the ion-electron system (eV)
  ---------------------------------------------------
  alpha Z        PSCENC =       902.18593566
  Ewald energy   TEWEN  =    -11062.46483150
  -Hartree energ DENC   =      -854.11008883
  -exchange      EXHF   =         0.00000000
  -V(xc)+E(xc)   XCENC  =       937.26902446
  PAW double counting   =      4141.05749449    -4221.65808897
  entropy T*S    EENTRO =        -0.00000000
  eigenvalues    EBANDS =       160.40069537
  atomic energy  EATOM  =      9416.14232778
  Solvation  Ediel_sol  =         0.00000000
  ---------------------------------------------------
  free energy    TOTEN  =      -581.17753153 eV

  energy without entropy =     -581.17753153  energy(sigma->0) =     -581.17753153


--------------------------------------------------------------------------------------------------------




--------------------------------------- Iteration      1(  13)  ---------------------------------------


    POTLOK:  cpu time    0.0684: real time    0.0688
    SETDIJ:  cpu time    0.0417: real time    0.0417
     EDDAV:  cpu time   22.7202: real time   22.7214
       DOS:  cpu time    0.0040: real time    0.0040
    CHARGE:  cpu time    0.6463: real time    0.6463
    MIXING:  cpu time    0.0054: real time    0.0054
    --------------------------------------------
      LOOP:  cpu time   23.4861: real time   23.4876

 eigenvalue-minimisations  : 11968
 total energy-change (2. order) :-0.7332892E-07  (-0.7840056E-09)
 number of electron     255.9999994 magnetization 
 augmentation part        5.9084658 magnetization 

 Broyden mixing:
  rms(total) = 0.14375E-04    rms(broyden)= 0.98515E-05
  rms(prec ) = 0.12566E-04
  weight for this iteration     100.00
  WARNING: grid for Broyden might be to small

 eigenvalues of (default mixing * dielectric matrix)
  average eigenvalue GAMMA=   1.9367
  2.9635  2.0372  2.5976  2.4230  2.4230  0.9945  0.9945  1.0601

 Free energy of the ion-electron system (eV)
  ---------------------------------------------------
  alpha Z        PSCENC =       902.18593566
  Ewald energy   TEWEN  =    -11062.46483150
  -Hartree energ DENC   =      -854.10765639
  -exchange      EXHF   =         0.00000000
  -V(xc)+E(xc)   XCENC  =       937.26879844
  PAW double counting   =      4141.05607130    -4221.65654502
  entropy T*S    EENTRO =        -0.00000000
  eigenvalues    EBANDS =       160.39836810
  atomic energy  EATOM  =      9416.14232778
  Solvation  Ediel_sol  =         0.00000000
  ---------------------------------------------------
  free energy    TOTEN  =      -581.17753161 eV

  energy without entropy =     -581.17753161  energy(sigma->0) =     -581.17753161


--------------------------------------------------------------------------------------------------------




--------------------------------------- Iteration      1(  14)  ---------------------------------------


    POTLOK:  cpu time    0.0682: real time    0.0686
    SETDIJ:  cpu time    0.0408: real time    0.0408
     EDDAV:  cpu time   21.5800: real time   21.5811
       DOS:  cpu time    0.0041: real time    0.0041
    CHARGE:  cpu time    0.6445: real time    0.6445
    MIXING:  cpu time    0.0055: real time    0.0055
    --------------------------------------------
      LOOP:  cpu time   22.3430: real time   22.3445

 eigenvalue-minimisations  : 10816
 total energy-change (2. order) :-0.2508750E-07  (-0.2045022E-09)
 number of electron     255.9999994 magnetization 
 augmentation part        5.9084662 magnetization 

 Broyden mixing:
  rms(total) = 0.10643E-04    rms(broyden)= 0.23958E-05
  rms(prec ) = 0.32243E-05
  weight for this iteration     100.00
  WARNING: grid for Broyden might be to small

 eigenvalues of (default mixing * dielectric matrix)
  average eigenvalue GAMMA=   1.8673
  2.9411  2.6290  2.4632  2.1109  2.1109  1.0005  1.0005  0.9600  1.5902

 Free energy of the ion-electron system (eV)
  ---------------------------------------------------
  alpha Z        PSCENC =       902.18593566
  Ewald energy   TEWEN  =    -11062.46483150
  -Hartree energ DENC   =      -854.10737099
  -exchange      EXHF   =         0.00000000
  -V(xc)+E(xc)   XCENC  =       937.26877447
  PAW double counting   =      4141.05677268    -4221.65717543
  entropy T*S    EENTRO =        -0.00000000
  eigenvalues    EBANDS =       160.39803569
  atomic energy  EATOM  =      9416.14232778
  Solvation  Ediel_sol  =         0.00000000
  ---------------------------------------------------
  free energy    TOTEN  =      -581.17753163 eV

  energy without entropy =     -581.17753163  energy(sigma->0) =     -581.17753163


--------------------------------------------------------------------------------------------------------




--------------------------------------- Iteration      1(  15)  ---------------------------------------


    POTLOK:  cpu time    0.0631: real time    0.0634
    SETDIJ:  cpu time    0.0398: real time    0.0398
     EDDAV:  cpu time   19.1566: real time   19.1576
       DOS:  cpu time    0.0039: real time    0.0038
    --------------------------------------------
      LOOP:  cpu time   19.2634: real time   19.2647

 eigenvalue-minimisations  :  9536
 total energy-change (2. order) :-0.4321919E-08  (-0.3326036E-10)
 number of electron     255.9999994 magnetization 
 augmentation part        5.9084662 magnetization 

 Free energy of the ion-electron system (eV)
  ---------------------------------------------------
  alpha Z        PSCENC =       902.18593566
  Ewald energy   TEWEN  =    -11062.46483150
  -Hartree energ DENC   =      -854.10767207
  -exchange      EXHF   =         0.00000000
  -V(xc)+E(xc)   XCENC  =       937.26880255
  PAW double counting   =      4141.05806742    -4221.65849510
  entropy T*S    EENTRO =        -0.00000000
  eigenvalues    EBANDS =       160.39833360
  atomic energy  EATOM  =      9416.14232778
  Solvation  Ediel_sol  =         0.00000000
  ---------------------------------------------------
  free energy    TOTEN  =      -581.17753164 eV

  energy without entropy =     -581.17753164  energy(sigma->0) =     -581.17753164


--------------------------------------------------------------------------------------------------------




 average (electrostatic) potential at core
  the test charge radii are     0.6991
  (the norm of the test charge is              1.0000)
       1 -45.6507       2 -45.6507       3 -45.6507       4 -45.6507       5 -45.6507
       6 -45.6507       7 -45.6507       8 -45.6507       9 -45.6507      10 -45.6507
      11 -45.6507      12 -45.6507      13 -45.6507      14 -45.6507      15 -45.6507
      16 -45.6507      17 -45.6507      18 -45.6507      19 -45.6507      20 -45.6507
      21 -45.6507      22 -45.6507      23 -45.6507      24 -45.6507      25 -45.6507
      26 -45.6507      27 -45.6507      28 -45.6507      29 -45.6507      30 -45.6507
      31 -45.6507      32 -45.6507      33 -45.6507      34 -45.6507      35 -45.6507
      36 -45.6507      37 -45.6507      38 -45.6507      39 -45.6507      40 -45.6507
      41 -45.6507      42 -45.6507      43 -45.6507      44 -45.6507      45 -45.6507
      46 -45.6507      47 -45.6507      48 -45.6507      49 -45.6507      50 -45.6507
      51 -45.6507      52 -45.6507      53 -45.6507      54 -45.6507      55 -45.6507
      56 -45.6507      57 -45.6507      58 -45.6507      59 -45.6507      60 -45.6507
      61 -45.6507      62 -45.6507      63 -45.6507      64 -45.6507
 
 
 
 E-fermi :   9.8244     XC(G=0): -13.1288     alpha+bet :-17.3682


 k-point     1 :       0.0000    0.0000    0.0000
  band No.  band energies     occupation 
      1     -11.7457      2.00000
      2      -9.4914      2.00000
      3      -9.4914      2.00000
      4      -9.4914      2.00000
      5      -9.4914      2.00000
      6      -9.4914      2.00000
      7      -9.4914      2.00000
      8      -7.4457      2.00000
      9      -7.4457      2.00000
     10      -7.4457      2.00000
     11      -7.4457      2.00000
     12      -7.4457      2.00000
     13      -7.4457      2.00000
     14      -7.2388      2.00000
     15      -7.2388      2.00000
     16      -7.2388      2.00000
     17      -7.2388      2.00000
     18      -7.2388      2.00000
     19      -7.2388      2.00000
     20      -6.4891      2.00000
     21      -5.9397      2.00000
     22      -5.9397      2.00000
     23      -5.9397      2.00000
     24      -3.6952      2.00000
     25      -3.6952      2.00000
     26      -3.6952      2.00000
     27      -3.6478      2.00000
     28      -3.2620      2.00000
     29      -3.2620      2.00000
     30      -3.2620      2.00000
     31      -3.0458      2.00000
     32      -3.0458      2.00000
     33      -3.0458      2.00000
     34      -2.6457      2.00000
     35      -2.6457      2.00000
     36      -2.6457      2.00000
     37      -2.6457      2.00000
     38      -2.6457      2.00000
     39      -2.6457      2.00000
     40      -2.1362      2.00000
     41      -2.1362      2.00000
     42      -2.1362      2.00000
     43      -2.1362      2.00000
     44      -2.1362      2.00000
     45      -2.1362      2.00000
     46       0.8143      2.00000
     47       0.8143      2.00000
     48       0.8143      2.00000
     49       0.8143      2.00000
     50       0.8143      2.00000
     51       0.8143      2.00000
     52       0.9090      2.00000
     53       0.9090      2.00000
     54       0.9090      2.00000
     55       0.9090      2.00000
     56       0.9090      2.00000
     57       0.9090      2.00000
     58       1.3243      2.00000
     59       1.3243      2.00000
     60       1.3243      2.00000
     61       1.3243      2.00000
     62       1.3243      2.00000
     63       1.3243      2.00000
     64       1.3336      2.00000
     65       1.3336      2.00000
     66       1.3336      2.00000
     67       1.3336      2.00000
     68       1.3336      2.00000
     69       1.3336      2.00000
     70       1.9788      2.00000
     71       1.9788      2.00000
     72       1.9788      2.00000
     73       1.9788      2.00000
     74       1.9788      2.00000
     75       1.9788      2.00000
     76       2.0660      2.00000
     77       2.0660      2.00000
[...]
      4.631099  1.020482  6.280034     0.101484    0.015591    0.099188  
      1.112899  4.609763  6.280034    -0.101484   -0.015591   -0.099188  
      4.702899  4.609763  6.280034    -0.101484   -0.015591   -0.099188  
      0.035900  1.794641  0.000000     0.119712    0.016402    0.117042  
      3.625899  1.794641  0.000000     0.119712    0.016402    0.117042  
      0.107700  5.383922  0.000000    -0.119712   -0.016402   -0.117042  
      3.697699  5.383922  0.000000    -0.119712   -0.016402   -0.117042  
      0.107700  1.865019  3.588591     0.119712    0.016402    0.117042  
      3.697699  1.865019  3.588591     0.119712    0.016402    0.117042  
      0.179499  5.454300  3.588591    -0.119712   -0.016402   -0.117042  
      3.769499  5.454300  3.588591    -0.119712   -0.016402   -0.117042  
      2.800199  2.744745  2.691443     0.074409    0.005095    0.072850  
      6.390199  2.744745  2.691443     0.074409    0.005095    0.072850  
      2.871999  6.334026  2.691443    -0.074409   -0.005095   -0.072850  
      6.461998  6.334026  2.691443    -0.074409   -0.005095   -0.072850  
      2.871999  2.815123  6.280034     0.074409    0.005095    0.072850  
      6.461998  2.815123  6.280034     0.074409    0.005095    0.072850  
      2.943799  6.404404  6.280034    -0.074409   -0.005095   -0.072850  
      6.533798  6.404404  6.280034    -0.074409   -0.005095   -0.072850  
      1.795000  0.000000  0.000000     0.038791   -0.000057    0.038031  
      5.384999  0.000000  0.000000     0.038791   -0.000057    0.038031  
      1.866799  3.589281  0.000000    -0.038791    0.000057   -0.038031  
      5.456799  3.589281  0.000000    -0.038791    0.000057   -0.038031  
      1.866799  0.070378  3.588591     0.038791   -0.000057    0.038031  
      5.456799  0.070378  3.588591     0.038791   -0.000057    0.038031  
      1.938599  3.659659  3.588591    -0.038791    0.000057   -0.038031  
      5.528599  3.659659  3.588591    -0.038791    0.000057   -0.038031  
      2.728399  0.914915  0.897148     0.101484    0.015591    0.099188  
      6.318399  0.914915  0.897148     0.101484    0.015591    0.099188  
      2.800199  4.504196  0.897148    -0.101484   -0.015591   -0.099188  
      6.390199  4.504196  0.897148    -0.101484   -0.015591   -0.099188  
      2.800199  0.985293  4.485739     0.101484    0.015591    0.099188  
      6.390199  0.985293  4.485739     0.101484    0.015591    0.099188  
      2.871999  4.574574  4.485739    -0.101484   -0.015591   -0.099188  
      6.461998  4.574574  4.485739    -0.101484   -0.015591   -0.099188  
      1.866799  1.829830  1.794295     0.119712    0.016402    0.117043  
      5.456799  1.829830  1.794295     0.119712    0.016402    0.117042  
      1.938599  5.419111  1.794295    -0.119712   -0.016402   -0.117042  
      5.528599  5.419111  1.794295    -0.119712   -0.016402   -0.117043  
      1.938599  1.900208  5.382886     0.119712    0.016402    0.117043  
      5.528599  1.900208  5.382886     0.119712    0.016402    0.117042  
      2.010399  5.489489  5.382886    -0.119712   -0.016402   -0.117042  
      5.600398  5.489489  5.382886    -0.119712   -0.016402   -0.117043  
 
 190 f  =    0.000002 THz     0.000015 2PiTHz    0.000077 cm-1     0.000010 meV
             X         Y         Z           dx          dy          dz
      0.969300  2.709555  0.897148    -0.051595   -0.093894    0.064397  
      4.559299  2.709555  0.897148    -0.051595   -0.093894    0.064397  
      1.041099  6.298837  0.897148    -0.051595   -0.093894    0.064397  
      4.631099  6.298837  0.897148    -0.051595   -0.093894    0.064397  
      1.041099  2.779934  4.485739    -0.051595   -0.093894    0.064397  
      4.631099  2.779934  4.485739    -0.051595   -0.093894    0.064397  
      1.112899  6.369215  4.485739    -0.051595   -0.093894    0.064397  
      4.702899  6.369215  4.485739    -0.051595   -0.093894    0.064397  
      0.035900  0.035189  1.794295    -0.051595   -0.093894    0.064397  
      3.625899  0.035189  1.794295    -0.051595   -0.093894    0.064397  
      0.107700  3.624470  1.794295    -0.051595   -0.093894    0.064397  
      3.697699  3.624470  1.794295    -0.051595   -0.093894    0.064397  
      0.107700  0.105568  5.382886    -0.051595   -0.093894    0.064397  
      3.697699  0.105568  5.382886    -0.051595   -0.093894    0.064397  
      0.179499  3.694849  5.382886    -0.051595   -0.093894    0.064397  
      3.769499  3.694849  5.382886    -0.051595   -0.093894    0.064397  
      0.969300  0.950104  2.691443    -0.051595   -0.093894    0.064397  
      4.559299  0.950104  2.691443    -0.051595   -0.093894    0.064397  
      1.041099  4.539385  2.691443    -0.051595   -0.093894    0.064397  
      4.631099  4.539385  2.691443    -0.051595   -0.093894    0.064397  
      1.041099  1.020482  6.280034    -0.051595   -0.093894    0.064397  
      4.631099  1.020482  6.280034    -0.051595   -0.093894    0.064397  
      1.112899  4.609763  6.280034    -0.051595   -0.093894    0.064397  
      4.702899  4.609763  6.280034    -0.051595   -0.093894    0.064397  
      0.035900  1.794641  0.000000    -0.051595   -0.093894    0.064397  
      3.625899  1.794641  0.000000    -0.051595   -0.093894    0.064397  
      0.107700  5.383922  0.000000    -0.051595   -0.093894    0.064397  
      3.697699  5.383922  0.000000    -0.051595   -0.093894    0.064397  
      0.107700  1.865019  3.588591    -0.051595   -0.093894    0.064397  
      3.697699  1.865019  3.588591    -0.051595   -0.093894    0.064397  
      0.179499  5.454300  3.588591    -0.051595   -0.093894    0.064397  
      3.769499  5.454300  3.588591    -0.051595   -0.093894    0.064397  
      2.800199  2.744745  2.691443    -0.051595   -0.093894    0.064397  
      6.390199  2.744745  2.691443    -0.051595   -0.093894    0.064397  
      2.871999  6.334026  2.691443    -0.051595   -0.093894    0.064397  
      6.461998  6.334026  2.691443    -0.051595   -0.093894    0.064397  
      2.871999  2.815123  6.280034    -0.051595   -0.093894    0.064397  
      6.461998  2.815123  6.280034    -0.051595   -0.093894    0.064397  
      2.943799  6.404404  6.280034    -0.051595   -0.093894    0.064397  
      6.533798  6.404404  6.280034    -0.051595   -0.093894    0.064397  
      1.795000  0.000000  0.000000    -0.051595   -0.093894    0.064397  
      5.384999  0.000000  0.000000    -0.051595   -0.093894    0.064397  
      1.866799  3.589281  0.000000    -0.051595   -0.093894    0.064397  
      5.456799  3.589281  0.000000    -0.051595   -0.093894    0.064397  
      1.866799  0.070378  3.588591    -0.051595   -0.093894    0.064397  
      5.456799  0.070378  3.588591    -0.051595   -0.093894    0.064397  
      1.938599  3.659659  3.588591    -0.051595   -0.093894    0.064397  
      5.528599  3.659659  3.588591    -0.051595   -0.093894    0.064397  
      2.728399  0.914915  0.897148    -0.051595   -0.093894    0.064397  
      6.318399  0.914915  0.897148    -0.051595   -0.093894    0.064397  
      2.800199  4.504196  0.897148    -0.051595   -0.093894    0.064397  
      6.390199  4.504196  0.897148    -0.051595   -0.093894    0.064397  
      2.800199  0.985293  4.485739    -0.051595   -0.093894    0.064397  
      6.390199  0.985293  4.485739    -0.051595   -0.093894    0.064397  
      2.871999  4.574574  4.485739    -0.051595   -0.093894    0.064397  
      6.461998  4.574574  4.485739    -0.051595   -0.093894    0.064397  
      1.866799  1.829830  1.794295    -0.051595   -0.093894    0.064397  
      5.456799  1.829830  1.794295    -0.051595   -0.093894    0.064397  
      1.938599  5.419111  1.794295    -0.051595   -0.093894    0.064397  
      5.528599  5.419111  1.794295    -0.051595   -0.093894    0.064397  
      1.938599  1.900208  5.382886    -0.051595   -0.093894    0.064397  
      5.528599  1.900208  5.382886    -0.051595   -0.093894    0.064397  
      2.010399  5.489489  5.382886    -0.051595   -0.093894    0.064397  
      5.600398  5.489489  5.382886    -0.051595   -0.093894    0.064397  
 
 191 f  =    0.000002 THz     0.000011 2PiTHz    0.000057 cm-1     0.000007 meV
             X         Y         Z           dx          dy          dz
      0.969300  2.709555  0.897148     0.106634   -0.064628   -0.008795  
      4.559299  2.709555  0.897148     0.106634   -0.064628   -0.008795  
      1.041099  6.298837  0.897148     0.106634   -0.064628   -0.008795  
      4.631099  6.298837  0.897148     0.106634   -0.064628   -0.008795  
      1.041099  2.779934  4.485739     0.106634   -0.064628   -0.008795  
      4.631099  2.779934  4.485739     0.106634   -0.064628   -0.008795  
      1.112899  6.369215  4.485739     0.106634   -0.064628   -0.008795  
      4.702899  6.369215  4.485739     0.106634   -0.064628   -0.008795  
      0.035900  0.035189  1.794295     0.106634   -0.064628   -0.008795  
      3.625899  0.035189  1.794295     0.106634   -0.064628   -0.008795  
      0.107700  3.624470  1.794295     0.106634   -0.064628   -0.008795  
      3.697699  3.624470  1.794295     0.106634   -0.064628   -0.008795  
      0.107700  0.105568  5.382886     0.106634   -0.064628   -0.008795  
      3.697699  0.105568  5.382886     0.106634   -0.064628   -0.008795  
      0.179499  3.694849  5.382886     0.106634   -0.064628   -0.008795  
      3.769499  3.694849  5.382886     0.106634   -0.064628   -0.008795  
      0.969300  0.950104  2.691443     0.106634   -0.064628   -0.008795  
      4.559299  0.950104  2.691443     0.106634   -0.064628   -0.008795  
      1.041099  4.539385  2.691443     0.106634   -0.064628   -0.008795  
      4.631099  4.539385  2.691443     0.106634   -0.064628   -0.008795  
      1.041099  1.020482  6.280034     0.106634   -0.064628   -0.008795  
      4.631099  1.020482  6.280034     0.106634   -0.064628   -0.008795  
      1.112899  4.609763  6.280034     0.106634   -0.064628   -0.008795  
      4.702899  4.609763  6.280034     0.106634   -0.064628   -0.008795  
      0.035900  1.794641  0.000000     0.106634   -0.064628   -0.008795  
      3.625899  1.794641  0.000000     0.106634   -0.064628   -0.008795  
      0.107700  5.383922  0.000000     0.106634   -0.064628   -0.008795  
      3.697699  5.383922  0.000000     0.106634   -0.064628   -0.008795  
      0.107700  1.865019  3.588591     0.106634   -0.064628   -0.008795  
      3.697699  1.865019  3.588591     0.106634   -0.064628   -0.008795  
      0.179499  5.454300  3.588591     0.106634   -0.064628   -0.008795  
      3.769499  5.454300  3.588591     0.106634   -0.064628   -0.008795  
      2.800199  2.744745  2.691443     0.106634   -0.064628   -0.008795  
      6.390199  2.744745  2.691443     0.106634   -0.064628   -0.008795  
      2.871999  6.334026  2.691443     0.106634   -0.064628   -0.008795  
      6.461998  6.334026  2.691443     0.106634   -0.064628   -0.008795  
      2.871999  2.815123  6.280034     0.106634   -0.064628   -0.008795  
      6.461998  2.815123  6.280034     0.106634   -0.064628   -0.008795  
      2.943799  6.404404  6.280034     0.106634   -0.064628   -0.008795  
      6.533798  6.404404  6.280034     0.106634   -0.064628   -0.008795  
      1.795000  0.000000  0.000000     0.106634   -0.064628   -0.008795  
      5.384999  0.000000  0.000000     0.106634   -0.064628   -0.008795  
      1.866799  3.589281  0.000000     0.106634   -0.064628   -0.008795  
      5.456799  3.589281  0.000000     0.106634   -0.064628   -0.008795  
      1.866799  0.070378  3.588591     0.106634   -0.064628   -0.008795  
      5.456799  0.070378  3.588591     0.106634   -0.064628   -0.008795  
      1.938599  3.659659  3.588591     0.106634   -0.064628   -0.008795  
      5.528599  3.659659  3.588591     0.106634   -0.064628   -0.008795  
      2.728399  0.914915  0.897148     0.106634   -0.064628   -0.008795  
      6.318399  0.914915  0.897148     0.106634   -0.064628   -0.008795  
      2.800199  4.504196  0.897148     0.106634   -0.064628   -0.008795  
      6.390199  4.504196  0.897148     0.106634   -0.064628   -0.008795  
      2.800199  0.985293  4.485739     0.106634   -0.064628   -0.008795  
      6.390199  0.985293  4.485739     0.106634   -0.064628   -0.008795  
      2.871999  4.574574  4.485739     0.106634   -0.064628   -0.008795  
      6.461998  4.574574  4.485739     0.106634   -0.064628   -0.008795  
      1.866799  1.829830  1.794295     0.106634   -0.064628   -0.008795  
      5.456799  1.829830  1.794295     0.106634   -0.064628   -0.008795  
      1.938599  5.419111  1.794295     0.106634   -0.064628   -0.008795  
      5.528599  5.419111  1.794295     0.106634   -0.064628   -0.008795  
      1.938599  1.900208  5.382886     0.106634   -0.064628   -0.008795  
      5.528599  1.900208  5.382886     0.106634   -0.064628   -0.008795  
      2.010399  5.489489  5.382886     0.106634   -0.064628   -0.008795  
      5.600398  5.489489  5.382886     0.106634   -0.064628   -0.008795  
 
 192 f  =    0.000001 THz     0.000009 2PiTHz    0.000048 cm-1     0.000006 meV
             X         Y         Z           dx          dy          dz
      0.969300  2.709555  0.897148    -0.039901   -0.051305   -0.106774  
      4.559299  2.709555  0.897148    -0.039901   -0.051305   -0.106774  
      1.041099  6.298837  0.897148    -0.039901   -0.051305   -0.106774  
      4.631099  6.298837  0.897148    -0.039901   -0.051305   -0.106774  
      1.041099  2.779934  4.485739    -0.039901   -0.051305   -0.106774  
      4.631099  2.779934  4.485739    -0.039901   -0.051305   -0.106774  
      1.112899  6.369215  4.485739    -0.039901   -0.051305   -0.106774  
      4.702899  6.369215  4.485739    -0.039901   -0.051305   -0.106774  
      0.035900  0.035189  1.794295    -0.039901   -0.051305   -0.106774  
      3.625899  0.035189  1.794295    -0.039901   -0.051305   -0.106774  
      0.107700  3.624470  1.794295    -0.039901   -0.051305   -0.106774  
      3.697699  3.624470  1.794295    -0.039901   -0.051305   -0.106774  
      0.107700  0.105568  5.382886    -0.039901   -0.051305   -0.106774  
      3.697699  0.105568  5.382886    -0.039901   -0.051305   -0.106774  
      0.179499  3.694849  5.382886    -0.039901   -0.051305   -0.106774  
      3.769499  3.694849  5.382886    -0.039901   -0.051305   -0.106774  
      0.969300  0.950104  2.691443    -0.039901   -0.051305   -0.106774  
      4.559299  0.950104  2.691443    -0.039901   -0.051305   -0.106774  
      1.041099  4.539385  2.691443    -0.039901   -0.051305   -0.106774  
      4.631099  4.539385  2.691443    -0.039901   -0.051305   -0.106774  
      1.041099  1.020482  6.280034    -0.039901   -0.051305   -0.106774  
      4.631099  1.020482  6.280034    -0.039901   -0.051305   -0.106774  
      1.112899  4.609763  6.280034    -0.039901   -0.051305   -0.106774  
      4.702899  4.609763  6.280034    -0.039901   -0.051305   -0.106774  
      0.035900  1.794641  0.000000    -0.039901   -0.051305   -0.106774  
      3.625899  1.794641  0.000000    -0.039901   -0.051305   -0.106774  
      0.107700  5.383922  0.000000    -0.039901   -0.051305   -0.106774  
      3.697699  5.383922  0.000000    -0.039901   -0.051305   -0.106774  
      0.107700  1.865019  3.588591    -0.039901   -0.051305   -0.106774  
      3.697699  1.865019  3.588591    -0.039901   -0.051305   -0.106774  
      0.179499  5.454300  3.588591    -0.039901   -0.051305   -0.106774  
      3.769499  5.454300  3.588591    -0.039901   -0.051305   -0.106774  
      2.800199  2.744745  2.691443    -0.039901   -0.051305   -0.106774  
      6.390199  2.744745  2.691443    -0.039901   -0.051305   -0.106774  
      2.871999  6.334026  2.691443    -0.039901   -0.051305   -0.106774  
      6.461998  6.334026  2.691443    -0.039901   -0.051305   -0.106774  
      2.871999  2.815123  6.280034    -0.039901   -0.051305   -0.106774  
      6.461998  2.815123  6.280034    -0.039901   -0.051305   -0.106774  
      2.943799  6.404404  6.280034    -0.039901   -0.051305   -0.106774  
      6.533798  6.404404  6.280034    -0.039901   -0.051305   -0.106774  
      1.795000  0.000000  0.000000    -0.039901   -0.051305   -0.106774  
      5.384999  0.000000  0.000000    -0.039901   -0.051305   -0.106774  
      1.866799  3.589281  0.000000    -0.039901   -0.051305   -0.106774  
      5.456799  3.589281  0.000000    -0.039901   -0.051305   -0.106774  
      1.866799  0.070378  3.588591    -0.039901   -0.051305   -0.106774  
      5.456799  0.070378  3.588591    -0.039901   -0.051305   -0.106774  
      1.938599  3.659659  3.588591    -0.039901   -0.051305   -0.106774  
      5.528599  3.659659  3.588591    -0.039901   -0.051305   -0.106774  
      2.728399  0.914915  0.897148    -0.039901   -0.051305   -0.106774  
      6.318399  0.914915  0.897148    -0.039901   -0.051305   -0.106774  
      2.800199  4.504196  0.897148    -0.039901   -0.051305   -0.106774  
      6.390199  4.504196  0.897148    -0.039901   -0.051305   -0.106774  
      2.800199  0.985293  4.485739    -0.039901   -0.051305   -0.106774  
      6.390199  0.985293  4.485739    -0.039901   -0.051305   -0.106774  
      2.871999  4.574574  4.485739    -0.039901   -0.051305   -0.106774  
      6.461998  4.574574  4.485739    -0.039901   -0.051305   -0.106774  
      1.866799  1.829830  1.794295    -0.039901   -0.051305   -0.106774  
      5.456799  1.829830  1.794295    -0.039901   -0.051305   -0.106774  
      1.938599  5.419111  1.794295    -0.039901   -0.051305   -0.106774  
      5.528599  5.419111  1.794295    -0.039901   -0.051305   -0.106774  
      1.938599  1.900208  5.382886    -0.039901   -0.051305   -0.106774  
      5.528599  1.900208  5.382886    -0.039901   -0.051305   -0.106774  
      2.010399  5.489489  5.382886    -0.039901   -0.051305   -0.106774  
      5.600398  5.489489  5.382886    -0.039901   -0.051305   -0.106774  
 


--------------------------------------------------------------------------------------------------------



 ELASTIC MODULI CONTR FROM IONIC RELAXATION (kBar)
 Direction    XX          YY          ZZ          XY          YZ          ZX
 --------------------------------------------------------------------------------
 XX         -14.3502    -13.3365    -13.4529     -4.2438      2.9679     -4.1573
 YY         -13.3365    -14.0734    -13.5029     -2.6747     -5.0124      2.0743
 ZZ         -13.4529    -13.5029    -13.7433      1.2491     -3.4047     -3.4763
 XY          -4.2438     -2.6747      1.2491    -39.5378     19.7540     20.2962
 YZ           2.9679     -5.0124     -3.4047     19.7540    -41.1051     19.2775
 ZX          -4.1573      2.0743     -3.4763     20.2962     19.2775    -40.3354
 --------------------------------------------------------------------------------



--------------------------------------------------------------------------------------------------------


     LOOP+:  cpu time 1225.2079: real time 1228.4512
    4ORBIT:  cpu time    0.0000: real time    0.0000

 total amount of memory used by VASP MPI-rank0    83792. kBytes
=======================================================================

   base      :      30000. kBytes
   nonl-proj :      20840. kBytes
   fftplans  :       4537. kBytes
   grid      :       5806. kBytes
   one-center:        196. kBytes
   wavefun   :      22413. kBytes
 
  
  
 General timing and accounting informations for this job:
 ========================================================
  
                  Total CPU time used (sec):     1237.742
                            User time (sec):     1230.534
                          System time (sec):        7.208
                         Elapsed time (sec):     1242.988
  
                   Maximum memory used (kb):      432248.
                   Average memory used (kb):           0.
  
                          Minor page faults:        39329
                          Major page faults:           36
                 Voluntary context switches:          849
