# Thermal properties / unit cell (natom)

unit:
  temperature:   K
  free_energy:   kJ/mol
  entropy:       J/K/mol
  heat_capacity: J/K/mol

natom: 8    
cutoff_frequency:    0.000
num_modes: 2654208
num_integrated_modes: 2654208

zero_point_energy:     136.3597336
high_T_entropy:        436.4127260

thermal_properties:
- temperature:         0.0000000
  free_energy:       136.3597336
  entropy:             0.0000000
  heat_capacity:       0.0000000
  energy:            136.3597336

- temperature:         2.0000000
  free_energy:       136.3597336
  entropy:             0.0000000
  heat_capacity:       0.0000000
  energy:            136.3597336

- temperature:         4.0000000
  free_energy:       136.3597335
  entropy:             0.0000091
  heat_capacity:       0.0000564
  energy:            136.3597336

- temperature:         6.0000000
  free_energy:       136.3597335
  entropy:             0.0000731
  heat_capacity:       0.0003133
  energy:            136.3597339

- temperature:         8.0000000
  free_energy:       136.3597332
  entropy:             0.0002243
  heat_capacity:       0.0008042
  energy:            136.3597350

- temperature:        10.0000000
  free_energy:       136.3597325
  entropy:             0.0004822
  heat_capacity:       0.0015931
  energy:            136.3597373

- temperature:        12.0000000
  free_energy:       136.3597312
  entropy:             0.0008696
  heat_capacity:       0.0027620
  energy:            136.3597416

- temperature:        14.0000000
  free_energy:       136.3597289
  entropy:             0.0014114
  heat_capacity:       0.0043925
  energy:            136.3597487

- temperature:        16.0000000
  free_energy:       136.3597254
  entropy:             0.0021333
  heat_capacity:       0.0065649
  energy:            136.3597595

- temperature:        18.0000000
  free_energy:       136.3597203
  entropy:             0.0030614
  heat_capacity:       0.0093599
  energy:            136.3597754

- temperature:        20.0000000
  free_energy:       136.3597130
  entropy:             0.0042221
  heat_capacity:       0.0128587
  energy:            136.3597975

- temperature:        22.0000000
  free_energy:       136.3597032
  entropy:             0.0056420
  heat_capacity:       0.0171436
  energy:            136.3598273

- temperature:        24.0000000
  free_energy:       136.3596903
  entropy:             0.0073481
  heat_capacity:       0.0222985
  energy:            136.3598666

- temperature:        26.0000000
  free_energy:       136.3596736
  entropy:             0.0093676
  heat_capacity:       0.0284088
  energy:            136.3599172

- temperature:        28.0000000
  free_energy:       136.3596526
  entropy:             0.0117279
  heat_capacity:       0.0355618
  energy:            136.3599809

- temperature:        30.0000000
  free_energy:       136.3596264
  entropy:             0.0144572
  heat_capacity:       0.0438471
  energy:            136.3600602

- temperature:        32.0000000
  free_energy:       136.3595945
  entropy:             0.0175838
  heat_capacity:       0.0533567
  energy:            136.3601571

- temperature:        34.0000000
  free_energy:       136.3595558
  entropy:             0.0211365
  heat_capacity:       0.0641856
  energy:            136.3602745

- temperature:        36.0000000
  free_energy:       136.3595096
  entropy:             0.0251449
  heat_capacity:       0.0764320
  energy:            136.3604148

- temperature:        38.0000000
  free_energy:       136.3594549
  entropy:             0.0296391
  heat_capacity:       0.0901981
  energy:            136.3605812

- temperature:        40.0000000
  free_energy:       136.3593907
  entropy:             0.0346499
  heat_capacity:       0.1055906
  energy:            136.3607767

- temperature:        42.0000000
  free_energy:       136.3593160
  entropy:             0.0402089
  heat_capacity:       0.1227213
  energy:            136.3610047

- temperature:        44.0000000
  free_energy:       136.3592295
  entropy:             0.0463486
  heat_capacity:       0.1417082
  energy:            136.3612688

- temperature:        46.0000000
  free_energy:       136.3591301
  entropy:             0.0531028
  heat_capacity:       0.1626763
  energy:            136.3615729

- temperature:        48.0000000
  free_energy:       136.3590166
  entropy:             0.0605062
  heat_capacity:       0.1857580
  energy:            136.3619209

- temperature:        50.0000000
  free_energy:       136.3588877
  entropy:             0.0685949
  heat_capacity:       0.2110947
  energy:            136.3623174

- temperature:        52.0000000
  free_energy:       136.3587418
  entropy:             0.0774066
  heat_capacity:       0.2388371
  energy:            136.3627669

- temperature:        54.0000000
  free_energy:       136.3585775
  entropy:             0.0869804
  heat_capacity:       0.2691457
  energy:            136.3632745

- temperature:        56.0000000
  free_energy:       136.3583933
  entropy:             0.0973573
  heat_capacity:       0.3021915
  energy:            136.3638453

- temperature:        58.0000000
  free_energy:       136.3581875
  entropy:             0.1085801
  heat_capacity:       0.3381564
  energy:            136.3644852

- temperature:        60.0000000
  free_energy:       136.3579584
  entropy:             0.1206937
  heat_capacity:       0.3772325
  energy:            136.3652000

- temperature:        62.0000000
  free_energy:       136.3577041
  entropy:             0.1337449
  heat_capacity:       0.4196225
  energy:            136.3659963

- temperature:        64.0000000
  free_energy:       136.3574228
  entropy:             0.1477828
  heat_capacity:       0.4655387
  energy:            136.3668809

- temperature:        66.0000000
  free_energy:       136.3571123
  entropy:             0.1628585
  heat_capacity:       0.5152023
  energy:            136.3678610

- temperature:        68.0000000
  free_energy:       136.3567706
  entropy:             0.1790253
  heat_capacity:       0.5688428
  energy:            136.3689443

- temperature:        70.0000000
  free_energy:       136.3563954
  entropy:             0.1963386
  heat_capacity:       0.6266960
  energy:            136.3701392

- temperature:        72.0000000
  free_energy:       136.3559845
  entropy:             0.2148560
  heat_capacity:       0.6890035
  energy:            136.3714541

- temperature:        74.0000000
  free_energy:       136.3555352
  entropy:             0.2346367
  heat_capacity:       0.7560107
  energy:            136.3728983

- temperature:        76.0000000
  free_energy:       136.3550450
  entropy:             0.2557421
  heat_capacity:       0.8279654
  energy:            136.3744814

- temperature:        78.0000000
  free_energy:       136.3545113
  entropy:             0.2782351
  heat_capacity:       0.9051165
  energy:            136.3762136

- temperature:        80.0000000
  free_energy:       136.3539311
  entropy:             0.3021801
  heat_capacity:       0.9877120
  energy:            136.3781055

- temperature:        82.0000000
  free_energy:       136.3533016
  entropy:             0.3276428
  heat_capacity:       1.0759980
  energy:            136.3801683

- temperature:        84.0000000
  free_energy:       136.3526195
  entropy:             0.3546903
  heat_capacity:       1.1702169
  energy:            136.3824135

- temperature:        86.0000000
  free_energy:       136.3518817
  entropy:             0.3833902
  heat_capacity:       1.2706061
  energy:            136.3848533

- temperature:        88.0000000
  free_energy:       136.3510848
  entropy:             0.4138112
  heat_capacity:       1.3773969
  energy:            136.3875002

- temperature:        90.0000000
  free_energy:       136.3502253
  entropy:             0.4460222
  heat_capacity:       1.4908133
  energy:            136.3903673

- temperature:        92.0000000
  free_energy:       136.3492995
  entropy:             0.4800927
  heat_capacity:       1.6110709
  energy:            136.3934680

- temperature:        94.0000000
  free_energy:       136.3483036
  entropy:             0.5160919
  heat_capacity:       1.7383764
  energy:            136.3968162

- temperature:        96.0000000
  free_energy:       136.3472338
  entropy:             0.5540892
  heat_capacity:       1.8729262
  energy:            136.4004263

- temperature:        98.0000000
  free_energy:       136.3460859
  entropy:             0.5941534
  heat_capacity:       2.0149067
  energy:            136.4043129

- temperature:       100.0000000
  free_energy:       136.3448557
  entropy:             0.6363529
  heat_capacity:       2.1644930
  energy:            136.4084910

- temperature:       102.0000000
  free_energy:       136.3435390
  entropy:             0.6807555
  heat_capacity:       2.3218493
  energy:            136.4129760

- temperature:       104.0000000
  free_energy:       136.3421312
  entropy:             0.7274280
  heat_capacity:       2.4871279
  energy:            136.4177837

- temperature:       106.0000000
  free_energy:       136.3406277
  entropy:             0.7764360
  heat_capacity:       2.6604699
  energy:            136.4229299

- temperature:       108.0000000
  free_energy:       136.3390238
  entropy:             0.8278444
  heat_capacity:       2.8420046
  energy:            136.4284310

- temperature:       110.0000000
  free_energy:       136.3373147
  entropy:             0.8817164
  heat_capacity:       3.0318497
  energy:            136.4343035

- temperature:       112.0000000
  free_energy:       136.3354953
  entropy:             0.9381139
  heat_capacity:       3.2301116
  energy:            136.4405640

- temperature:       114.0000000
  free_energy:       136.3335605
  entropy:             0.9970974
  heat_capacity:       3.4368853
  energy:            136.4472296

- temperature:       116.0000000
  free_energy:       136.3315051
  entropy:             1.0587257
  heat_capacity:       3.6522549
  energy:            136.4543173

- temperature:       118.0000000
  free_energy:       136.3293238
  entropy:             1.1230560
  heat_capacity:       3.8762938
  energy:            136.4618444

- temperature:       120.0000000
  free_energy:       136.3270111
  entropy:             1.1901436
  heat_capacity:       4.1090650
  energy:            136.4698283

- temperature:       122.0000000
  free_energy:       136.3245614
  entropy:             1.2600424
  heat_capacity:       4.3506213
  energy:            136.4782865

- temperature:       124.0000000
  free_energy:       136.3219690
  entropy:             1.3328039
  heat_capacity:       4.6010058
  energy:            136.4872367

- temperature:       126.0000000
  free_energy:       136.3192282
  entropy:             1.4084782
  heat_capacity:       4.8602525
  energy:            136.4966965

- temperature:       128.0000000
  free_energy:       136.3163331
  entropy:             1.4871133
  heat_capacity:       5.1283862
  energy:            136.5066836

- temperature:       130.0000000
  free_energy:       136.3132777
  entropy:             1.5687554
  heat_capacity:       5.4054230
  energy:            136.5172159

- temperature:       132.0000000
  free_energy:       136.3100561
  entropy:             1.6534485
  heat_capacity:       5.6913711
  energy:            136.5283113

- temperature:       134.0000000
  free_energy:       136.3066619
  entropy:             1.7412349
  heat_capacity:       5.9862304
  energy:            136.5399874

- temperature:       136.0000000
  free_energy:       136.3030890
  entropy:             1.8321550
  heat_capacity:       6.2899936
  energy:            136.5522621

- temperature:       138.0000000
  free_energy:       136.2993312
  entropy:             1.9262472
  heat_capacity:       6.6026460
  energy:            136.5651533

- temperature:       140.0000000
  free_energy:       136.2953819
  entropy:             2.0235479
  heat_capacity:       6.9241662
  energy:            136.5786786

- temperature:       142.0000000
  free_energy:       136.2912348
  entropy:             2.1240917
  heat_capacity:       7.2545259
  energy:            136.5928558

- temperature:       144.0000000
  free_energy:       136.2868833
  entropy:             2.2279113
  heat_capacity:       7.5936909
  energy:            136.6077026

- temperature:       146.0000000
  free_energy:       136.2823210
  entropy:             2.3350375
  heat_capacity:       7.9416209
  energy:            136.6232364

- temperature:       148.0000000
  free_energy:       136.2775410
  entropy:             2.4454993
  heat_capacity:       8.2982696
  energy:            136.6394749

- temperature:       150.0000000
  free_energy:       136.2725367
  entropy:             2.5593238
  heat_capacity:       8.6635857
  energy:            136.6564353

- temperature:       152.0000000
  free_energy:       136.2673014
  entropy:             2.6765364
  heat_capacity:       9.0375121
  energy:            136.6741350

- temperature:       154.0000000
  free_energy:       136.2618283
  entropy:             2.7971607
  heat_capacity:       9.4199872
  energy:            136.6925910

- temperature:       156.0000000
  free_energy:       136.2561105
  entropy:             2.9212184
  heat_capacity:       9.8109443
  energy:            136.7118206

- temperature:       158.0000000
  free_energy:       136.2501411
  entropy:             3.0487298
  heat_capacity:      10.2103122
  energy:            136.7318404

- temperature:       160.0000000
  free_energy:       136.2439133
  entropy:             3.1797132
  heat_capacity:      10.6180152
  energy:            136.7526674

- temperature:       162.0000000
  free_energy:       136.2374199
  entropy:             3.3141855
  heat_capacity:      11.0339733
  energy:            136.7743180

- temperature:       164.0000000
  free_energy:       136.2306542
  entropy:             3.4521618
  heat_capacity:      11.4581028
  energy:            136.7968087

- temperature:       166.0000000
  free_energy:       136.2236089
  entropy:             3.5936557
  heat_capacity:      11.8903156
  energy:            136.8201558

- temperature:       168.0000000
  free_energy:       136.2162772
  entropy:             3.7386792
  heat_capacity:      12.3305203
  energy:            136.8443753

- temperature:       170.0000000
  free_energy:       136.2086519
  entropy:             3.8872427
  heat_capacity:      12.7786216
  energy:            136.8694831

- temperature:       172.0000000
  free_energy:       136.2007259
  entropy:             4.0393554
  heat_capacity:      13.2345210
  energy:            136.8954950

- temperature:       174.0000000
  free_energy:       136.1924921
  entropy:             4.1950245
  heat_capacity:      13.6981166
  energy:            136.9224263

- temperature:       176.0000000
  free_energy:       136.1839434
  entropy:             4.3542564
  heat_capacity:      14.1693033
  energy:            136.9502925

- temperature:       178.0000000
  free_energy:       136.1750727
  entropy:             4.5170555
  heat_capacity:      14.6479730
  energy:            136.9791086

- temperature:       180.0000000
  free_energy:       136.1658728
  entropy:             4.6834252
  heat_capacity:      15.1340148
  energy:            137.0088893

- temperature:       182.0000000
  free_energy:       136.1563366
  entropy:             4.8533673
  heat_capacity:      15.6273151
  energy:            137.0396495

- temperature:       184.0000000
  free_energy:       136.1464569
  entropy:             5.0268826
  heat_capacity:      16.1277575
  energy:            137.0714033

- temperature:       186.0000000
  free_energy:       136.1362267
  entropy:             5.2039703
  heat_capacity:      16.6352233
  energy:            137.1041652

- temperature:       188.0000000
  free_energy:       136.1256387
  entropy:             5.3846285
  heat_capacity:      17.1495913
  energy:            137.1379488

- temperature:       190.0000000
  free_energy:       136.1146858
  entropy:             5.5688540
  heat_capacity:      17.6707382
  energy:            137.1727680

- temperature:       192.0000000
  free_energy:       136.1033609
  entropy:             5.7566424
  heat_capacity:      18.1985384
  energy:            137.2086362

- temperature:       194.0000000
  free_energy:       136.0916568
  entropy:             5.9479882
  heat_capacity:      18.7328647
  energy:            137.2455666

- temperature:       196.0000000
  free_energy:       136.0795666
  entropy:             6.1428846
  heat_capacity:      19.2735877
  energy:            137.2835719

- temperature:       198.0000000
  free_energy:       136.0670829
  entropy:             6.3413239
  heat_capacity:      19.8205765
  energy:            137.3226651

- temperature:       200.0000000
  free_energy:       136.0541989
  entropy:             6.5432972
  heat_capacity:      20.3736985
  energy:            137.3628583

- temperature:       202.0000000
  free_energy:       136.0409074
  entropy:             6.7487944
  heat_capacity:      20.9328197
  energy:            137.4041639

- temperature:       204.0000000
  free_energy:       136.0272014
  entropy:             6.9578046
  heat_capacity:      21.4978046
  energy:            137.4465935

- temperature:       206.0000000
  free_energy:       136.0130739
  entropy:             7.1703158
  heat_capacity:      22.0685168
  energy:            137.4901589

- temperature:       208.0000000
  free_energy:       135.9985178
  entropy:             7.3863150
  heat_capacity:      22.6448185
  energy:            137.5348713

- temperature:       210.0000000
  free_energy:       135.9835263
  entropy:             7.6057883
  heat_capacity:      23.2265711
  energy:            137.5807418

- temperature:       212.0000000
  free_energy:       135.9680923
  entropy:             7.8287208
  heat_capacity:      23.8136352
  energy:            137.6277812

- temperature:       214.0000000
  free_energy:       135.9522091
  entropy:             8.0550968
  heat_capacity:      24.4058704
  energy:            137.6759998

- temperature:       216.0000000
  free_energy:       135.9358697
  entropy:             8.2848996
  heat_capacity:      25.0031359
  energy:            137.7254080

- temperature:       218.0000000
  free_energy:       135.9190672
  entropy:             8.5181118
  heat_capacity:      25.6052905
  energy:            137.7760156

- temperature:       220.0000000
  free_energy:       135.9017950
  entropy:             8.7547152
  heat_capacity:      26.2121924
  energy:            137.8278323

- temperature:       222.0000000
  free_energy:       135.8840461
  entropy:             8.9946907
  heat_capacity:      26.8236996
  energy:            137.8808674

- temperature:       224.0000000
  free_energy:       135.8658140
  entropy:             9.2380184
  heat_capacity:      27.4396701
  energy:            137.9351301

- temperature:       226.0000000
  free_energy:       135.8470918
  entropy:             9.4846778
  heat_capacity:      28.0599616
  energy:            137.9906290

- temperature:       228.0000000
  free_energy:       135.8278731
  entropy:             9.7346477
  heat_capacity:      28.6844321
  energy:            138.0473727

- temperature:       230.0000000
  free_energy:       135.8081510
  entropy:             9.9879060
  heat_capacity:      29.3129395
  energy:            138.1053694

- temperature:       232.0000000
  free_energy:       135.7879192
  entropy:            10.2444303
  heat_capacity:      29.9453423
  energy:            138.1646271

- temperature:       234.0000000
  free_energy:       135.7671712
  entropy:            10.5041972
  heat_capacity:      30.5814991
  energy:            138.2251533

- temperature:       236.0000000
  free_energy:       135.7459003
  entropy:            10.7671829
  heat_capacity:      31.2212691
  energy:            138.2869555

- temperature:       238.0000000
  free_energy:       135.7241003
  entropy:            11.0333630
  heat_capacity:      31.8645119
  energy:            138.3500407

- temperature:       240.0000000
  free_energy:       135.7017647
  entropy:            11.3027125
  heat_capacity:      32.5110880
  energy:            138.4144157

- temperature:       242.0000000
  free_energy:       135.6788874
  entropy:            11.5752059
  heat_capacity:      33.1608584
  energy:            138.4800872

- temperature:       244.0000000
  free_energy:       135.6554618
  entropy:            11.8508171
  heat_capacity:      33.8136850
  energy:            138.5470612

- temperature:       246.0000000
  free_energy:       135.6314820
  entropy:            12.1295197
  heat_capacity:      34.4694306
  energy:            138.6153439

- temperature:       248.0000000
  free_energy:       135.6069417
  entropy:            12.4112866
  heat_capacity:      35.1279591
  energy:            138.6849408

- temperature:       250.0000000
  free_energy:       135.5818349
  entropy:            12.6960904
  heat_capacity:      35.7891352
  energy:            138.7558575

- temperature:       252.0000000
  free_energy:       135.5561554
  entropy:            12.9839034
  heat_capacity:      36.4528250
  energy:            138.8280990

- temperature:       254.0000000
  free_energy:       135.5298973
  entropy:            13.2746972
  heat_capacity:      37.1188955
  energy:            138.9016703

- temperature:       256.0000000
  free_energy:       135.5030546
  entropy:            13.5684433
  heat_capacity:      37.7872152
  energy:            138.9765761

- temperature:       258.0000000
  free_energy:       135.4756215
  entropy:            13.8651128
  heat_capacity:      38.4576538
  energy:            139.0528206

- temperature:       260.0000000
  free_energy:       135.4475922
  entropy:            14.1646762
  heat_capacity:      39.1300824
  energy:            139.1304080

- temperature:       262.0000000
  free_energy:       135.4189609
  entropy:            14.4671041
  heat_capacity:      39.8043735
  energy:            139.2093422

- temperature:       264.0000000
  free_energy:       135.3897219
  entropy:            14.7723666
  heat_capacity:      40.4804013
  energy:            139.2896267

- temperature:       266.0000000
  free_energy:       135.3598696
  entropy:            15.0804334
  heat_capacity:      41.1580411
  energy:            139.3712649

- temperature:       268.0000000
  free_energy:       135.3293983
  entropy:            15.3912743
  heat_capacity:      41.8371702
  energy:            139.4542598

- temperature:       270.0000000
  free_energy:       135.2983027
  entropy:            15.7048586
  heat_capacity:      42.5176674
  energy:            139.5386145

- temperature:       272.0000000
  free_energy:       135.2665771
  entropy:            16.0211554
  heat_capacity:      43.1994130
  energy:            139.6243313

- temperature:       274.0000000
  free_energy:       135.2342162
  entropy:            16.3401337
  heat_capacity:      43.8822891
  energy:            139.7114129

- temperature:       276.0000000
  free_energy:       135.2012148
  entropy:            16.6617623
  heat_capacity:      44.5661797
  energy:            139.7998612

- temperature:       278.0000000
  free_energy:       135.1675674
  entropy:            16.9860099
  heat_capacity:      45.2509703
  energy:            139.8896782

- temperature:       280.0000000
  free_energy:       135.1332690
  entropy:            17.3128449
  heat_capacity:      45.9365483
  energy:            139.9808656

- temperature:       282.0000000
  free_energy:       135.0983144
  entropy:            17.6422357
  heat_capacity:      46.6228029
  energy:            140.0734248

- temperature:       284.0000000
  free_energy:       135.0626984
  entropy:            17.9741506
  heat_capacity:      47.3096253
  energy:            140.1673572

- temperature:       286.0000000
  free_energy:       135.0264161
  entropy:            18.3085578
  heat_capacity:      47.9969083
  energy:            140.2626636

- temperature:       288.0000000
  free_energy:       134.9894625
  entropy:            18.6454254
  heat_capacity:      48.6845468
  energy:            140.3593450

- temperature:       290.0000000
  free_energy:       134.9518328
  entropy:            18.9847214
  heat_capacity:      49.3724374
  energy:            140.4574020

- temperature:       292.0000000
  free_energy:       134.9135220
  entropy:            19.3264139
  heat_capacity:      50.0604787
  energy:            140.5568349

- temperature:       294.0000000
  free_energy:       134.8745255
  entropy:            19.6704707
  heat_capacity:      50.7485712
  energy:            140.6576439

- temperature:       296.0000000
  free_energy:       134.8348386
  entropy:            20.0168600
  heat_capacity:      51.4366174
  energy:            140.7598292

- temperature:       298.0000000
  free_energy:       134.7944566
  entropy:            20.3655495
  heat_capacity:      52.1245216
  energy:            140.8633903

- temperature:       300.0000000
  free_energy:       134.7533749
  entropy:            20.7165073
  heat_capacity:      52.8121901
  energy:            140.9683271

- temperature:       302.0000000
  free_energy:       134.7115891
  entropy:            21.0697013
  heat_capacity:      53.4995312
  energy:            141.0746389

- temperature:       304.0000000
  free_energy:       134.6690946
  entropy:            21.4250997
  heat_capacity:      54.1864550
  energy:            141.1823249

- temperature:       306.0000000
  free_energy:       134.6258872
  entropy:            21.7826704
  heat_capacity:      54.8728736
  energy:            141.2913843

- temperature:       308.0000000
  free_energy:       134.5819625
  entropy:            22.1423815
  heat_capacity:      55.5587011
  energy:            141.4018160

- temperature:       310.0000000
  free_energy:       134.5373163
  entropy:            22.5042014
  heat_capacity:      56.2438535
  energy:            141.5136187

- temperature:       312.0000000
  free_energy:       134.4919443
  entropy:            22.8680981
  heat_capacity:      56.9282485
  energy:            141.6267909

- temperature:       314.0000000
  free_energy:       134.4458425
  entropy:            23.2340402
  heat_capacity:      57.6118061
  energy:            141.7413311

- temperature:       316.0000000
  free_energy:       134.3990068
  entropy:            23.6019960
  heat_capacity:      58.2944480
  energy:            141.8572375

- temperature:       318.0000000
  free_energy:       134.3514332
  entropy:            23.9719341
  heat_capacity:      58.9760976
  energy:            141.9745083

- temperature:       320.0000000
  free_energy:       134.3031178
  entropy:            24.3438233
  heat_capacity:      59.6566806
  energy:            142.0931412

- temperature:       322.0000000
  free_energy:       134.2540566
  entropy:            24.7176323
  heat_capacity:      60.3361242
  energy:            142.2131342

- temperature:       324.0000000
  free_energy:       134.2042460
  entropy:            25.0933300
  heat_capacity:      61.0143577
  energy:            142.3344849

- temperature:       326.0000000
  free_energy:       134.1536821
  entropy:            25.4708857
  heat_capacity:      61.6913121
  energy:            142.4571908

- temperature:       328.0000000
  free_energy:       134.1023612
  entropy:            25.8502684
  heat_capacity:      62.3669202
  energy:            142.5812493

- temperature:       330.0000000
  free_energy:       134.0502798
  entropy:            26.2314477
  heat_capacity:      63.0411168
  energy:            142.7066575

- temperature:       332.0000000
  free_energy:       133.9974343
  entropy:            26.6143930
  heat_capacity:      63.7138383
  energy:            142.8334128

- temperature:       334.0000000
  free_energy:       133.9438211
  entropy:            26.9990742
  heat_capacity:      64.3850229
  energy:            142.9615119

- temperature:       336.0000000
  free_energy:       133.8894368
  entropy:            27.3854612
  heat_capacity:      65.0546107
  energy:            143.0909518

- temperature:       338.0000000
  free_energy:       133.8342781
  entropy:            27.7735239
  heat_capacity:      65.7225432
  energy:            143.2217292

- temperature:       340.0000000
  free_energy:       133.7783416
  entropy:            28.1632329
  heat_capacity:      66.3887640
  energy:            143.3538408

- temperature:       342.0000000
  free_energy:       133.7216241
  entropy:            28.5545584
  heat_capacity:      67.0532181
  energy:            143.4872831

- temperature:       344.0000000
  free_energy:       133.6641223
  entropy:            28.9474713
  heat_capacity:      67.7158523
  energy:            143.6220525

- temperature:       346.0000000
  free_energy:       133.6058332
  entropy:            29.3419424
  heat_capacity:      68.3766150
  energy:            143.7581453

- temperature:       348.0000000
  free_energy:       133.5467536
  entropy:            29.7379428
  heat_capacity:      69.0354563
  energy:            143.8955577

- temperature:       350.0000000
  free_energy:       133.4868804
  entropy:            30.1354439
  heat_capacity:      69.6923278
  energy:            144.0342858

- temperature:       352.0000000
  free_energy:       133.4262108
  entropy:            30.5344171
  heat_capacity:      70.3471826
  energy:            144.1743256

- temperature:       354.0000000
  free_energy:       133.3647418
  entropy:            30.9348343
  heat_capacity:      70.9999756
  energy:            144.3156731

- temperature:       356.0000000
  free_energy:       133.3024705
  entropy:            31.3366674