<?xml version="1.0" encoding="ISO-8859-1"?>
<modeling>
 <generator>
  <i name="program" type="string">vasp </i>
  <i name="version" type="string">5.4.4.18Apr17-6-g9f103f2a35  </i>
  <i name="subversion" type="string">(build Mar 12 2022 03:36:41) complex            parallel </i>
  <i name="platform" type="string">IFC19.0.3.199_CrayMPICH7.7.19 </i>
  <i name="date" type="string">2022 12 02 </i>
  <i name="time" type="string">03:03:50 </i>
 </generator>
 <incar>
  <i type="string" name="PREC">accurate</i>
  <i type="int" name="IALGO">    38</i>
  <i type="logical" name="ADDGRID"> T  </i>
  <i type="int" name="IBRION">     8</i>
  <i name="EDIFF">      0.00000001</i>
  <i type="logical" name="LREAL"> F  </i>
  <i type="int" name="ISMEAR">     0</i>
  <i name="SIGMA">      0.06000000</i>
  <i type="logical" name="LWAVE"> F  </i>
  <i type="logical" name="LCHARG"> F  </i>
  <v type="int" name="KPOINT_BSE">    -1     0     0     0</v>
 </incar>
 <structure name="primitive_cell" >
  <crystal>
   <varray name="basis" >
    <v>      -0.07179979      -1.82982972      -1.79429548 </v>
    <v>      -1.83089957      -1.79464055       0.00000000 </v>
    <v>      -1.83089957      -0.03518917      -1.79429548 </v>
   </varray>
   <i name="volume">     11.56021235 </i>
   <varray name="rec_basis" >
    <v>       0.27855158      -0.28417945      -0.27866087 </v>
    <v>      -0.27855158      -0.27303519       0.28958879 </v>
    <v>      -0.27855158       0.28417945      -0.27866094 </v>
   </varray>
  </crystal>
  <varray name="positions" >
   <v>       0.25000000       0.25000000       0.25000000 </v>
   <v>      -0.50000000      -0.50000000      -0.50000000 </v>
  </varray>
 </structure>
 <varray name="primitive_index" >
  <v type="int" >        1 </v>
  <v type="int" >       43 </v>
 </varray>
 <kpoints>
  <generation param="Gamma">
   <v type="int" name="divisions">       6        6        6 </v>
   <v name="usershift">      0.00000000       0.00000000       0.00000000 </v>
   <v name="genvec1">      0.16666667      -0.00000000      -0.00000000 </v>
   <v name="genvec2">      0.00000000       0.16666667       0.00000000 </v>
   <v name="genvec3">      0.00000000       0.00000000       0.16666667 </v>
   <v name="shift">      0.00000000       0.00000000       0.00000000 </v>
  </generation>
  <varray name="kpointlist" >
   <v>       0.00000000       0.00000000       0.00000000 </v>
   <v>       0.16666667      -0.00000000      -0.00000000 </v>
   <v>       0.33333333      -0.00000000       0.00000000 </v>
   <v>       0.50000000      -0.00000000       0.00000000 </v>
   <v>       0.16666667       0.16666667       0.00000000 </v>
   <v>       0.33333333       0.16666667       0.00000000 </v>
   <v>       0.50000000       0.16666667       0.00000000 </v>
   <v>      -0.33333333       0.16666667       0.00000000 </v>
   <v>      -0.16666667       0.16666667      -0.00000000 </v>
   <v>       0.33333333       0.33333333       0.00000000 </v>
   <v>       0.50000000       0.33333333       0.00000000 </v>
   <v>      -0.33333333       0.33333333       0.00000000 </v>
   <v>       0.50000000       0.50000000       0.00000000 </v>
   <v>       0.16666667       0.16666667       0.16666667 </v>
   <v>       0.33333333       0.16666667       0.16666667 </v>
   <v>       0.50000000       0.16666667       0.16666667 </v>
   <v>      -0.33333333       0.16666667       0.16666667 </v>
   <v>      -0.16666667       0.16666667       0.16666667 </v>
   <v>       0.33333333       0.33333333       0.16666667 </v>
   <v>       0.50000000       0.33333333       0.16666667 </v>
   <v>      -0.33333333       0.33333333       0.16666667 </v>
   <v>      -0.16666667       0.33333333       0.16666667 </v>
   <v>       0.50000000       0.50000000       0.16666667 </v>
   <v>      -0.33333333       0.50000000       0.16666667 </v>
   <v>      -0.16666667       0.50000000       0.16666667 </v>
   <v>      -0.33333333      -0.33333333       0.16666667 </v>
   <v>       0.33333333       0.33333333       0.33333333 </v>
   <v>       0.50000000       0.33333333       0.33333333 </v>
   <v>      -0.33333333       0.33333333       0.33333333 </v>
   <v>       0.50000000       0.50000000       0.33333333 </v>
   <v>      -0.33333333       0.50000000       0.33333333 </v>
   <v>       0.50000000       0.50000000       0.50000000 </v>
  </varray>
  <varray name="weights" >
   <v>       0.00462963 </v>
   <v>       0.02777778 </v>
   <v>       0.02777778 </v>
   <v>       0.01388889 </v>
   <v>       0.02777778 </v>
   <v>       0.05555556 </v>
   <v>       0.05555556 </v>
   <v>       0.05555556 </v>
   <v>       0.02777778 </v>
   <v>       0.02777778 </v>
   <v>       0.05555556 </v>
   <v>       0.02777778 </v>
   <v>       0.01388889 </v>
   <v>       0.00925926 </v>
   <v>       0.02777778 </v>
   <v>       0.02777778 </v>
   <v>       0.02777778 </v>
   <v>       0.02777778 </v>
   <v>       0.02777778 </v>
   <v>       0.05555556 </v>
   <v>       0.05555556 </v>
   <v>       0.05555556 </v>
   <v>       0.02777778 </v>
   <v>       0.05555556 </v>
   <v>       0.02777778 </v>
   <v>       0.02777778 </v>
   <v>       0.00925926 </v>
   <v>       0.02777778 </v>
   <v>       0.02777778 </v>
   <v>       0.02777778 </v>
   <v>       0.02777778 </v>
   <v>       0.00462963 </v>
  </varray>
 </kpoints>
 <parameters>
  <separator name="general" >
   <i type="string" name="SYSTEM">unknown system</i>
   <i type="logical" name="LCOMPAT"> F  </i>
  </separator>
  <separator name="electronic" >
   <i type="string" name="PREC">accura</i>
   <i name="ENMAX">    400.00000000</i>
   <i name="ENAUG">    644.87300000</i>
   <i name="EDIFF">      0.00000001</i>
   <i type="int" name="IALGO">    38</i>
   <i type="int" name="IWAVPR">    11</i>
   <i type="int" name="NBANDS">   192</i>
   <i name="NELECT">    256.00000000</i>
   <i type="int" name="TURBO">     0</i>
   <i type="int" name="IRESTART">     0</i>
   <i type="int" name="NREBOOT">     0</i>
   <i type="int" name="NMIN">     0</i>
   <i name="EREF">      0.00000000</i>
   <separator name="electronic smearing" >
    <i type="int" name="ISMEAR">     0</i>
    <i name="SIGMA">      0.06000000</i>
    <i name="KSPACING">      0.50000000</i>
    <i type="logical" name="KGAMMA"> T  </i>
   </separator>
   <separator name="electronic projectors" >
    <i type="logical" name="LREAL"> F  </i>
    <v name="ROPT">      0.00000000</v>
    <i type="int" name="LMAXPAW">  -100</i>
    <i type="int" name="LMAXMIX">     2</i>
    <i type="logical" name="NLSPLINE"> F  </i>
   </separator>
   <separator name="electronic startup" >
    <i type="int" name="ISTART">     0</i>
    <i type="int" name="ICHARG">     2</i>
    <i type="int" name="INIWAV">     1</i>
   </separator>
   <separator name="electronic spin" >
    <i type="int" name="ISPIN">     1</i>
    <i type="logical" name="LNONCOLLINEAR"> F  </i>
    <v name="MAGMOM">      1.00000000      1.00000000      1.00000000      1.00000000      1.00000000      1.00000000      1.00000000      1.00000000      1.00000000      1.00000000      1.00000000      1.00000000      1.00000000      1.00000000      1.00000000      1.00000000      1.00000000      1.00000000      1.00000000      1.00000000
      1.00000000      1.00000000      1.00000000      1.00000000      1.00000000      1.00000000      1.00000000      1.00000000      1.00000000      1.00000000      1.00000000      1.00000000      1.00000000      1.00000000      1.00000000      1.00000000      1.00000000      1.00000000      1.00000000      1.00000000
      1.00000000      1.00000000      1.00000000      1.00000000      1.00000000      1.00000000      1.00000000      1.00000000      1.00000000      1.00000000      1.00000000      1.00000000      1.00000000      1.00000000      1.00000000      1.00000000      1.00000000      1.00000000      1.00000000      1.00000000
      1.00000000      1.00000000      1.00000000      1.00000000</v>
    <i name="NUPDOWN">     -1.00000000</i>
    <i type="logical" name="LSORBIT"> F  </i>
    <v name="SAXIS">      0.00000000      0.00000000      1.00000000</v>
    <i type="logical" name="LSPIRAL"> F  </i>
    <v name="QSPIRAL">      0.00000000      0.00000000      0.00000000</v>
    <i type="logical" name="LZEROZ"> F  </i>
   </separator>
   <separator name="electronic exchange-correlation" >
    <i type="logical" name="LASPH"> F  </i>
    <i type="logical" name="LMETAGGA"> F  </i>
   </separator>
   <separator name="electronic convergence" >
    <i type="int" name="NELM">    60</i>
    <i type="int" name="NELMDL">    -5</i>
    <i type="int" name="NELMIN">     2</i>
    <i name="ENINI">    400.00000000</i>
    <separator name="electronic convergence detail" >
     <i type="logical" name="LDIAG"> T  </i>
     <i type="logical" name="LSUBROT"> F  </i>
     <i name="WEIMIN">      0.00100000</i>
     <i name="EBREAK">      0.00000000</i>
     <i name="DEPER">      0.30000000</i>
     <i type="int" name="NRMM">     4</i>
     <i name="TIME">      0.40000000</i>
    </separator>
   </separator>
   <separator name="electronic mixer" >
    <i name="AMIX">      0.40000000</i>
    <i name="BMIX">      1.00000000</i>
    <i name="AMIN">      0.10000000</i>
    <i name="AMIX_MAG">      1.60000000</i>
    <i name="BMIX_MAG">      1.00000000</i>
    <separator name="electronic mixer details" >
     <i type="int" name="IMIX">     4</i>
     <i type="logical" name="MIXFIRST"> F  </i>
     <i type="int" name="MAXMIX">   -45</i>
     <i name="WC">    100.00000000</i>
     <i type="int" name="INIMIX">     1</i>
     <i type="int" name="MIXPRE">     1</i>
     <i type="int" name="MREMOVE">     5</i>
    </separator>
   </separator>
   <separator name="electronic dipolcorrection" >
    <i type="logical" name="LDIPOL"> F  </i>
    <i type="logical" name="LMONO"> F  </i>
    <i type="int" name="IDIPOL">     0</i>
    <i name="EPSILON">      1.00000000</i>
    <v name="DIPOL">   -100.00000000   -100.00000000   -100.00000000</v>
    <i name="EFIELD">      0.00000000</i>
   </separator>
  </separator>
  <separator name="grids" >
   <i type="int" name="NGX">    48</i>
   <i type="int" name="NGY">    48</i>
   <i type="int" name="NGZ">    48</i>
   <i type="int" name="NGXF">    96</i>
   <i type="int" name="NGYF">    96</i>
   <i type="int" name="NGZF">    96</i>
   <i type="logical" name="ADDGRID"> T  </i>
  </separator>
  <separator name="ionic" >
   <i type="int" name="NSW">     1</i>
   <i type="int" name="IBRION">     8</i>
   <i type="int" name="MDALGO">     0</i>
   <i type="int" name="ISIF">     2</i>
   <i name="PSTRESS">      0.00000000</i>
   <i name="EDIFFG">      0.00000010</i>
   <i type="int" name="NFREE">     0</i>
   <i name="POTIM">      0.50000000</i>
   <i name="SMASS">     -3.00000000</i>
   <i name="SCALEE">      1.00000000</i>
  </separator>
  <separator name="ionic md" >
   <i name="TEBEG">      0.00010000</i>
   <i name="TEEND">      0.00010000</i>
   <i type="int" name="NBLOCK">     1</i>
   <i type="int" name="KBLOCK">     1</i>
   <i type="int" name="NPACO">   256</i>
   <i name="APACO">     16.00000000</i>
  </separator>
  <separator name="symmetry" >
   <i type="int" name="ISYM">     2</i>
   <i name="SYMPREC">      0.00001000</i>
  </separator>
  <separator name="dos" >
   <i type="int" name="LORBIT">     0</i>
   <v name="RWIGS">     -1.00000000</v>
   <i type="int" name="NEDOS">   301</i>
   <i name="EMIN">     10.00000000</i>
   <i name="EMAX">    -10.00000000</i>
   <i name="EFERMI">      0.00000000</i>
  </separator>
  <separator name="writing" >
   <i type="int" name="NWRITE">     2</i>
   <i type="logical" name="LWAVE"> F  </i>
   <i type="logical" name="LDOWNSAMPLE"> F  </i>
   <i type="logical" name="LCHARG"> F  </i>
   <i type="logical" name="LPARD"> F  </i>
   <i type="logical" name="LVTOT"> F  </i>
   <i type="logical" name="LVHAR"> F  </i>
   <i type="logical" name="LELF"> F  </i>
   <i type="logical" name="LOPTICS"> F  </i>
   <v name="STM">      0.00000000      0.00000000      0.00000000      0.00000000      0.00000000      0.00000000      0.00000000</v>
  </separator>
  <separator name="performance" >
   <i type="int" name="NPAR">    32</i>
   <i type="int" name="NSIM">     4</i>
   <i type="int" name="NBLK">    -1</i>
   <i type="logical" name="LPLANE"> T  </i>
   <i type="logical" name="LSCALAPACK"> T  </i>
   <i type="logical" name="LSCAAWARE"> F  </i>
   <i type="logical" name="LSCALU"> F  </i>
   <i type="logical" name="LASYNC"> F  </i>
   <i type="logical" name="LORBITALREAL"> F  </i>
  </separator>
  <separator name="miscellaneous" >
   <i type="int" name="IDIOT">     3</i>
   <i type="int" name="ISPECIAL">     0</i>
   <i type="logical" name="LMUSIC"> F  </i>
   <v name="POMASS">     12.01100000</v>
   <v name="DARWINR">      0.00000000</v>
   <v name="DARWINV">      1.00000000</v>
   <i type="logical" name="LCORR"> T  </i>
  </separator>
  <i type="logical" name="GGA_COMPAT"> T  </i>
  <i type="logical" name="LBERRY"> F  </i>
  <i type="int" name="ICORELEVEL">     0</i>
  <i type="logical" name="LDAU"> F  </i>
  <i type="int" name="I_CONSTRAINED_M">     0</i>
  <separator name="electronic exchange-correlation" >
   <i type="string" name="GGA">--</i>
   <i type="int" name="VOSKOWN">     0</i>
   <i type="logical" name="LHFCALC"> F  </i>
   <i type="string" name="PRECFOCK"></i>
   <i type="logical" name="LSYMGRAD"> F  </i>
   <i type="logical" name="LHFONE"> F  </i>
   <i type="logical" name="LRHFCALC"> F  </i>
   <i type="logical" name="LTHOMAS"> F  </i>
   <i type="logical" name="LMODELHF"> F  </i>
   <i name="ENCUT4O">     -1.00000000</i>
   <i type="int" name="EXXOEP">     0</i>
   <i type="int" name="FOURORBIT">     0</i>
   <i name="AEXX">      0.00000000</i>
   <i name="HFALPHA">      0.00000000</i>
   <i name="MCALPHA">      0.00000000</i>
   <i name="ALDAX">      1.00000000</i>
   <i name="AGGAX">      1.00000000</i>
   <i name="ALDAC">      1.00000000</i>
   <i name="AGGAC">      1.00000000</i>
   <i type="int" name="NKREDX">     1</i>
   <i type="int" name="NKREDY">     1</i>
   <i type="int" name="NKREDZ">     1</i>
   <i type="logical" name="SHIFTRED"> F  </i>
   <i type="logical" name="ODDONLY"> F  </i>
   <i type="logical" name="EVENONLY"> F  </i>
   <i type="int" name="LMAXFOCK">     0</i>
   <i type="int" name="NMAXFOCKAE">     0</i>
   <i type="logical" name="LFOCKAEDFT"> F  </i>
   <i name="HFSCREEN">      0.00000000</i>
   <i name="HFSCREENC">      0.00000000</i>
   <i type="int" name="NBANDSGWLOW">     0</i>
  </separator>
  <separator name="vdW DFT" >
   <i type="logical" name="LUSE_VDW"> F  </i>
   <i name="Zab_VDW">     -0.84910000</i>
   <i name="PARAM1">      0.12340000</i>
   <i name="PARAM2">      1.00000000</i>
   <i name="PARAM3">      0.00000000</i>
  </separator>
  <separator name="model GW" >
   <i type="int" name="MODEL_GW">     0</i>
   <i name="MODEL_EPS0">      3.46806370</i>
   <i name="MODEL_ALPHA">      1.00000000</i>
  </separator>
  <separator name="linear response parameters" >
   <i type="logical" name="LEPSILON"> F  </i>
   <i type="logical" name="LRPA"> F  </i>
   <i type="logical" name="LNABLA"> F  </i>
   <i type="logical" name="LVEL"> F  </i>
   <i type="int" name="KINTER">     0</i>
   <i name="CSHIFT">      0.10000000</i>
   <i name="OMEGAMAX">     -1.00000000</i>
   <i name="DEG_THRESHOLD">      0.00200000</i>
   <i name="RTIME">     -0.10000000</i>
   <i name="WPLASMAI">      0.00000000</i>
   <v name="DFIELD">      0.00000000      0.00000000      0.00000000</v>
   <v name="WPLASMA">      0.00000000      0.00000000      0.00000000      0.00000000      0.00000000      0.00000000      0.00000000      0.00000000      0.00000000</v>
  </separator>
  <separator name="orbital magnetization" >
   <i type="logical" name="NUCIND"> F  </i>
   <v name="MAGPOS">      0.00000000      0.00000000      0.00000000</v>
   <i type="logical" name="LNICSALL"> T  </i>
   <i type="logical" name="ORBITALMAG"> F  </i>
   <i type="logical" name="LMAGBLOCH"> F  </i>
   <i type="logical" name="LCHIMAG"> F  </i>
   <i type="logical" name="LGAUGE"> T  </i>
   <i type="int" name="MAGATOM">     0</i>
   <v name="MAGDIPOL">      0.00000000      0.00000000      0.00000000</v>
   <v name="AVECCONST">      0.00000000      0.00000000      0.00000000</v>
  </separator>
  <separator name="response functions" >
   <i type="logical" name="LADDER"> F  </i>
   <i type="logical" name="LRPAFORCE"> F  </i>
   <i type="logical" name="LFXC"> F  </i>
   <i type="logical" name="LHARTREE"> T  </i>
   <i type="int" name="IBSE">     0</i>
   <v type="int" name="KPOINT">    -1     0     0     0</v>
   <i type="logical" name="LTCTE"> F  </i>
   <i type="logical" name="LTETE"> F  </i>
   <i type="logical" name="LTRIPLET"> F  </i>
   <i type="logical" name="LFXCEPS"> F  </i>
   <i type="logical" name="LFXHEG"> F  </i>
   <i type="int" name="NATURALO">     2</i>
   <i type="logical" name="L2ORDER"> F  </i>
   <i type="logical" name="LMP2LT"> F  </i>
   <i type="logical" name="LUSEW"> F  </i>
   <i name="ENCUTGW">     -2.00000000</i>
   <i name="ENCUTGWSOFT">     -2.00000000</i>
   <i name="ENCUTLF">     -1.00000000</i>
   <i type="int" name="LMAXMP2">    -1</i>
   <i name="SCISSOR">      0.00000000</i>
   <i type="int" name="NOMEGA">     0</i>
   <i type="int" name="NOMEGAR">     0</i>
   <i type="int" name="NBANDSGW">    -1</i>
   <i type="int" name="NBANDSO">    -1</i>
   <i type="int" name="NBANDSV">    -1</i>
   <i type="int" name="NELM">     1</i>
   <i type="int" name="NELMHF">     1</i>
   <i type="int" name="DIM">     3</i>
   <i type="int" name="ANTIRES">     0</i>
   <i name="OMEGAMAX">    -30.00000000</i>
   <i name="OMEGAMIN">    -30.00000000</i>
   <i name="OMEGATL">   -200.00000000</i>
   <i type="int" name="OMEGAGRID">   140</i>
   <i name="CSHIFT">     -0.10000000</i>
   <i type="logical" name="SELFENERGY"> F  </i>
   <i type="logical" name="LSPECTRAL"> F  </i>
   <i type="logical" name="LSPECTRALGW"> F  </i>
   <i type="logical" name="LSINGLES"> F  </i>
   <i type="logical" name="LFERMIGW"> F  </i>
   <i type="logical" name="ODDONLYGW"> F  </i>
   <i type="logical" name="EVENONLYGW"> F  </i>
   <i type="int" name="NKREDLFX">     1</i>
   <i type="int" name="NKREDLFY">     1</i>
   <i type="int" name="NKREDLFZ">     1</i>
   <i type="int" name="MAXMEM">  2800</i>
   <i type="int" name="TELESCOPE">     0</i>
   <i type="int" name="TAUPAR">     1</i>
   <i type="int" name="OMEGAPAR">    -1</i>
   <i name="LAMBDA">      1.00000000</i>
  </separator>
  <separator name="External order field" >
   <i name="OFIELD_KAPPA">      0.00000000</i>
   <v name="OFIELD_K">      0.00000000      0.00000000      0.00000000</v>
   <i name="OFIELD_Q6_NEAR">      0.00000000</i>
   <i name="OFIELD_Q6_FAR">      0.00000000</i>
   <i name="OFIELD_A">      0.00000000</i>
  </separator>
 </parameters>
 <atominfo>
  <atoms>      64 </atoms>
  <types>       1 </types>
  <array name="atoms" >
   <dimension dim="1">ion</dimension>
   <field type="string">element</field>
   <field type="int">atomtype</field>
   <set>
    <rc><c>C </c><c>   1</c></rc>
    <rc><c>C </c><c>   1</c></rc>
    <rc><c>C </c><c>   1</c></rc>
    <rc><c>C </c><c>   1</c></rc>
    <rc><c>C </c><c>   1</c></rc>
    <rc><c>C </c><c>   1</c></rc>
    <rc><c>C </c><c>   1</c></rc>
    <rc><c>C </c><c>   1</c></rc>
    <rc><c>C </c><c>   1</c></rc>
    <rc><c>C </c><c>   1</c></rc>
    <rc><c>C </c><c>   1</c></rc>
    <rc><c>C </c><c>   1</c></rc>
    <rc><c>C </c><c>   1</c></rc>
    <rc><c>C </c><c>   1</c></rc>
    <rc><c>C </c><c>   1</c></rc>
    <rc><c>C </c><c>   1</c></rc>
    <rc><c>C </c><c>   1</c></rc>
    <rc><c>C </c><c>   1</c></rc>
    <rc><c>C </c><c>   1</c></rc>
    <rc><c>C </c><c>   1</c></rc>
    <rc><c>C </c><c>   1</c></rc>
    <rc><c>C </c><c>   1</c></rc>
    <rc><c>C </c><c>   1</c></rc>
    <rc><c>C </c><c>   1</c></rc>
    <rc><c>C </c><c>   1</c></rc>
    <rc><c>C </c><c>   1</c></rc>
    <rc><c>C </c><c>   1</c></rc>
    <rc><c>C </c><c>   1</c></rc>
    <rc><c>C </c><c>   1</c></rc>
    <rc><c>C </c><c>   1</c></rc>
    <rc><c>C </c><c>   1</c></rc>
    <rc><c>C </c><c>   1</c></rc>
    <rc><c>C </c><c>   1</c></rc>
    <rc><c>C </c><c>   1</c></rc>
    <rc><c>C </c><c>   1</c></rc>
    <rc><c>C </c><c>   1</c></rc>
    <rc><c>C </c><c>   1</c></rc>
    <rc><c>C </c><c>   1</c></rc>
    <rc><c>C </c><c>   1</c></rc>
    <rc><c>C </c><c>   1</c></rc>
    <rc><c>C </c><c>   1</c></rc>
    <rc><c>C </c><c>   1</c></rc>
    <rc><c>C </c><c>   1</c></rc>
    <rc><c>C </c><c>   1</c></rc>
    <rc><c>C </c><c>   1</c></rc>
    <rc><c>C </c><c>   1</c></rc>
    <rc><c>C </c><c>   1</c></rc>
    <rc><c>C </c><c>   1</c></rc>
    <rc><c>C </c><c>   1</c></rc>
    <rc><c>C </c><c>   1</c></rc>
    <rc><c>C </c><c>   1</c></rc>
    <rc><c>C </c><c>   1</c></rc>
    <rc><c>C </c><c>   1</c></rc>
    <rc><c>C </c><c>   1</c></rc>
    <rc><c>C </c><c>   1</c></rc>
    <rc><c>C </c><c>   1</c></rc>
    <rc><c>C </c><c>   1</c></rc>
    <rc><c>C </c><c>   1</c></rc>
    <rc><c>C </c><c>   1</c></rc>
    <rc><c>C </c><c>   1</c></rc>
    <rc><c>C </c><c>   1</c></rc>
    <rc><c>C </c><c>   1</c></rc>
    <rc><c>C </c><c>   1</c></rc>
    <rc><c>C </c><c>   1</c></rc>
   </set>
  </array>
  <array name="atomtypes" >
   <dimension dim="1">type</dimension>
   <field type="int">atomspertype</field>
   <field type="string">element</field>
   <field>mass</field>
   <field>valence</field>
   <field type="string">pseudopotential</field>
   <set>
    <rc><c>  64</c><c>C </c><c>     12.01100000</c><c>      4.00000000</c><c> PAW_PBE C 08Apr2002                    </c></rc>
   </set>
  </array>
 </atominfo>
 <structure name="initialpos" >
  <crystal>
   <varray name="basis" >
    <v>       7.17999872       0.00000000       0.00000000 </v>
    <v>       0.14359957       7.17856220       0.00000000 </v>
    <v>       0.14359957       0.14075667       7.17718194 </v>
   </varray>
   <i name="volume">    369.92679508 </i>
   <varray name="rec_basis" >
    <v>       0.13927579      -0.00278607      -0.00273196 </v>
    <v>       0.00000000       0.13930366      -0.00273198 </v>
    <v>       0.00000000       0.00000000       0.13933045 </v>
   </varray>
  </crystal>
  <varray name="positions" >
   <v>       0.12500000       0.37500000       0.12500000 </v>
   <v>       0.62500000       0.37500000       0.12500000 </v>
   <v>       0.12500000       0.87500000       0.12500000 </v>
   <v>       0.62500000       0.87500000       0.12500000 </v>
   <v>       0.12500000       0.37500000       0.62500000 </v>
   <v>       0.62500000       0.37500000       0.62500000 </v>
   <v>       0.12500000       0.87500000       0.62500000 </v>
   <v>       0.62500000       0.87500000       0.62500000 </v>
   <v>       0.00000000       0.00000000       0.25000000 </v>
   <v>       0.50000000       0.00000000       0.25000000 </v>
   <v>       0.00000000       0.50000000       0.25000000 </v>
   <v>       0.50000000       0.50000000       0.25000000 </v>
   <v>       0.00000000       0.00000000       0.75000000 </v>
   <v>       0.50000000       0.00000000       0.75000000 </v>
   <v>       0.00000000       0.50000000       0.75000000 </v>
   <v>       0.50000000       0.50000000       0.75000000 </v>
   <v>       0.12500000       0.12500000       0.37500000 </v>
   <v>       0.62500000       0.12500000       0.37500000 </v>
   <v>       0.12500000       0.62500000       0.37500000 </v>
   <v>       0.62500000       0.62500000       0.37500000 </v>
   <v>       0.12500000       0.12500000       0.87500000 </v>
   <v>       0.62500000       0.12500000       0.87500000 </v>
   <v>       0.12500000       0.62500000       0.87500000 </v>
   <v>       0.62500000       0.62500000       0.87500000 </v>
   <v>       0.00000000       0.25000000       0.00000000 </v>
   <v>       0.50000000       0.25000000       0.00000000 </v>
   <v>       0.00000000       0.75000000       0.00000000 </v>
   <v>       0.50000000       0.75000000       0.00000000 </v>
   <v>       0.00000000       0.25000000       0.50000000 </v>
   <v>       0.50000000       0.25000000       0.50000000 </v>
   <v>       0.00000000       0.75000000       0.50000000 </v>
   <v>       0.50000000       0.75000000       0.50000000 </v>
   <v>       0.37500000       0.37500000       0.37500000 </v>
   <v>       0.87500000       0.37500000       0.37500000 </v>
   <v>       0.37500000       0.87500000       0.37500000 </v>
   <v>       0.87500000       0.87500000       0.37500000 </v>
   <v>       0.37500000       0.37500000       0.87500000 </v>
   <v>       0.87500000       0.37500000       0.87500000 </v>
   <v>       0.37500000       0.87500000       0.87500000 </v>
   <v>       0.87500000       0.87500000       0.87500000 </v>
   <v>       0.25000000       0.00000000       0.00000000 </v>
   <v>       0.75000000       0.00000000       0.00000000 </v>
   <v>       0.25000000       0.50000000       0.00000000 </v>
   <v>       0.75000000       0.50000000       0.00000000 </v>
   <v>       0.25000000       0.00000000       0.50000000 </v>
   <v>       0.75000000       0.00000000       0.50000000 </v>
   <v>       0.25000000       0.50000000       0.50000000 </v>
   <v>       0.75000000       0.50000000       0.50000000 </v>
   <v>       0.37500000       0.12500000       0.12500000 </v>
   <v>       0.87500000       0.12500000       0.12500000 </v>
   <v>       0.37500000       0.62500000       0.12500000 </v>
   <v>       0.87500000       0.62500000       0.12500000 </v>
   <v>       0.37500000       0.12500000       0.62500000 </v>
   <v>       0.87500000       0.12500000       0.62500000 </v>
   <v>       0.37500000       0.62500000       0.62500000 </v>
   <v>       0.87500000       0.62500000       0.62500000 </v>
   <v>       0.25000000       0.25000000       0.25000000 </v>
   <v>       0.75000000       0.25000000       0.25000000 </v>
   <v>       0.25000000       0.75000000       0.25000000 </v>
   <v>       0.75000000       0.75000000       0.25000000 </v>
   <v>       0.25000000       0.25000000       0.75000000 </v>
   <v>       0.75000000       0.25000000       0.75000000 </v>
   <v>       0.25000000       0.75000000       0.75000000 </v>
   <v>       0.75000000       0.75000000       0.75000000 </v>
  </varray>
 </structure>
 <calculation>
  <scstep>
   <time name="dav">   22.11   22.12</time>
   <time name="total">   22.23   22.32</time>
   <energy>
    <i name="alphaZ">    902.18593566 </i>
    <i name="ewald"> -11062.46483150 </i>
    <i name="hartreedc">   -578.13996783 </i>
    <i name="XCdc">    911.30147338 </i>
    <i name="pawpsdc">   2421.21235816 </i>
    <i name="pawaedc">  -2494.84305711 </i>
    <i name="eentropy">     -0.01122988 </i>
    <i name="bandstr">    990.44993366 </i>
    <i name="atom">   9416.14232778 </i>
    <i name="e_fr_energy">    505.83294232 </i>
    <i name="e_wo_entrp">    505.84417220 </i>
    <i name="e_0_energy">    505.83855726 </i>
   </energy>
  </scstep>
  <scstep>
   <time name="dav">   28.47   28.47</time>
   <time name="total">   28.47   28.47</time>
   <energy>
    <i name="e_fr_energy">   -558.89655849 </i>
    <i name="e_wo_entrp">   -558.89655849 </i>
    <i name="e_0_energy">   -558.89655849 </i>
   </energy>
  </scstep>
  <scstep>
   <time name="dav">   28.22   28.22</time>
   <time name="total">   28.22   28.23</time>
   <energy>
    <i name="e_fr_energy">   -599.95039655 </i>
    <i name="e_wo_entrp">   -599.95039655 </i>
    <i name="e_0_energy">   -599.95039655 </i>
   </energy>
  </scstep>
  <scstep>
   <time name="dav">   27.34   27.34</time>
   <time name="total">   27.34   27.34</time>
   <energy>
    <i name="e_fr_energy">   -600.40105216 </i>
    <i name="e_wo_entrp">   -600.40105216 </i>
    <i name="e_0_energy">   -600.40105216 </i>
   </energy>
  </scstep>
  <scstep>
   <time name="dav">   26.46   26.46</time>
   <time name="total">   27.12   27.13</time>
   <energy>
    <i name="e_fr_energy">   -600.41002047 </i>
    <i name="e_wo_entrp">   -600.41002047 </i>
    <i name="e_0_energy">   -600.41002047 </i>
   </energy>
  </scstep>
  <scstep>
   <time name="dav">   25.50   25.50</time>
   <time name="total">   26.25   26.25</time>
   <energy>
    <i name="e_fr_energy">   -585.98338394 </i>
    <i name="e_wo_entrp">   -585.98338394 </i>
    <i name="e_0_energy">   -585.98338394 </i>
   </energy>
  </scstep>
  <scstep>
   <time name="dav">   25.40   25.40</time>
   <time name="total">   26.16   26.16</time>
   <energy>
    <i name="e_fr_energy">   -581.11476254 </i>
    <i name="e_wo_entrp">   -581.11476254 </i>
    <i name="e_0_energy">   -581.11476254 </i>
   </energy>
  </scstep>
  <scstep>
   <time name="dav">   25.97   25.97</time>
   <time name="total">   26.72   26.72</time>
   <energy>
    <i name="e_fr_energy">   -581.17485505 </i>
    <i name="e_wo_entrp">   -581.17485505 </i>
    <i name="e_0_energy">   -581.17485505 </i>
   </energy>
  </scstep>
  <scstep>
   <time name="dav">   27.50   27.51</time>
   <time name="total">   28.27   28.27</time>
   <energy>
    <i name="e_fr_energy">   -581.17705266 </i>
    <i name="e_wo_entrp">   -581.17705266 </i>
    <i name="e_0_energy">   -581.17705266 </i>
   </energy>
  </scstep>
  <scstep>
   <time name="dav">   25.86   25.86</time>
   <time name="total">   26.64   26.64</time>
   <energy>
    <i name="e_fr_energy">   -581.17752197 </i>
    <i name="e_wo_entrp">   -581.17752197 </i>
    <i name="e_0_energy">   -581.17752197 </i>
   </energy>
  </scstep>
  <scstep>
   <time name="dav">   27.75   27.75</time>
   <time name="total">   28.51   28.51</time>
   <energy>
    <i name="e_fr_energy">   -581.17753138 </i>
    <i name="e_wo_entrp">   -581.17753138 </i>
    <i name="e_0_energy">   -581.17753138 </i>
   </energy>
  </scstep>
  <scstep>
   <time name="dav">   28.36   28.36</time>
   <time name="total">   29.12   29.12</time>
   <energy>
    <i name="e_fr_energy">   -581.17753153 </i>
    <i name="e_wo_entrp">   -581.17753153 </i>
    <i name="e_0_energy">   -581.17753153 </i>
   </energy>
  </scstep>
  <scstep>
   <time name="dav">   22.72   22.72</time>
   <time name="total">   23.49   23.49</time>
   <energy>
    <i name="e_fr_energy">   -581.17753161 </i>
    <i name="e_wo_entrp">   -581.17753161 </i>
    <i name="e_0_energy">   -581.17753161 </i>
   </energy>
  </scstep>
  <scstep>
   <time name="dav">   21.58   21.58</time>
   <time name="total">   22.34   22.34</time>
   <energy>
    <i name="e_fr_energy">   -581.17753163 </i>
    <i name="e_wo_entrp">   -581.17753163 </i>
    <i name="e_0_energy">   -581.17753163 </i>
   </energy>
  </scstep>
  <scstep>
   <time name="dav">   19.16   19.16</time>
   <time name="total">   19.26   19.26</time>
   <energy>
    <i name="alphaZ">    902.18593566 </i>
    <i name="ewald"> -11062.46483150 </i>
    <i name="hartreedc">   -854.10767207 </i>
    <i name="XCdc">    937.26880255 </i>
    <i name="pawpsdc">   4141.05806742 </i>
    <i name="pawaedc">  -4221.65849510 </i>
    <i name="eentropy">     -0.00000000 </i>
    <i name="bandstr">    160.39833360 </i>
    <i name="atom">   9416.14232778 </i>
    <i name="e_fr_energy">   -581.17753164 </i>
    <i name="e_wo_entrp">   -581.17753164 </i>
    <i name="e_0_energy">   -581.17753164 </i>
   </energy>
  </scstep>
  <structure>
   <crystal>
    <varray name="basis" >
     <v>       7.17999872       0.00000000       0.00000000 </v>
     <v>       0.14359957       7.17856220       0.00000000 </v>
     <v>       0.14359957       0.14075667       7.17718194 </v>
    </varray>
    <i name="volume">    369.92679508 </i>
    <varray name="rec_basis" >
     <v>       0.13927579      -0.00278607      -0.00273196 </v>
     <v>       0.00000000       0.13930366      -0.00273198 </v>
     <v>       0.00000000       0.00000000       0.13933045 </v>
    </varray>
   </crystal>
   <varray name="positions" >
    <v>       0.12500000       0.37500000       0.12500000 </v>
    <v>       0.62500000       0.37500000       0.12500000 </v>
    <v>       0.12500000       0.87500000       0.12500000 </v>
    <v>       0.62500000       0.87500000       0.12500000 </v>
    <v>       0.12500000       0.37500000       0.62500000 </v>
    <v>       0.62500000       0.37500000       0.62500000 </v>
    <v>       0.12500000       0.87500000       0.62500000 </v>
    <v>       0.62500000       0.87500000       0.62500000 </v>
    <v>       0.00000000       0.00000000       0.25000000 </v>
    <v>       0.50000000       0.00000000       0.25000000 </v>
    <v>       0.00000000       0.50000000       0.25000000 </v>
    <v>       0.50000000       0.50000000       0.25000000 </v>
    <v>       0.00000000       0.00000000       0.75000000 </v>
    <v>       0.50000000       0.00000000       0.75000000 </v>
    <v>       0.00000000       0.50000000       0.75000000 </v>
    <v>       0.50000000       0.50000000       0.75000000 </v>
    <v>       0.12500000       0.12500000       0.37500000 </v>
    <v>       0.62500000       0.12500000       0.37500000 </v>
    <v>       0.12500000       0.62500000       0.37500000 </v>
    <v>       0.62500000       0.62500000       0.37500000 </v>
    <v>       0.12500000       0.12500000       0.87500000 </v>
    <v>       0.62500000       0.12500000       0.87500000 </v>
    <v>       0.12500000       0.62500000       0.87500000 </v>
    <v>       0.62500000       0.62500000       0.87500000 </v>
    <v>       0.00000000       0.25000000       0.00000000 </v>
    <v>       0.50000000       0.25000000       0.00000000 </v>
    <v>       0.00000000       0.75000000       0.00000000 </v>
    <v>       0.50000000       0.75000000       0.00000000 </v>
    <v>       0.00000000       0.25000000       0.50000000 </v>
    <v>       0.50000000       0.25000000       0.50000000 </v>
    <v>       0.00000000       0.75000000       0.50000000 </v>
    <v>       0.50000000       0.75000000       0.50000000 </v>
    <v>       0.37500000       0.37500000       0.37500000 </v>
    <v>       0.87500000       0.37500000       0.37500000 </v>
    <v>       0.37500000       0.87500000       0.37500000 </v>
    <v>       0.87500000       0.87500000       0.37500000 </v>
    <v>       0.37500000       0.37500000       0.87500000 </v>
    <v>       0.87500000       0.37500000       0.87500000 </v>
    <v>       0.37500000       0.87500000       0.87500000 </v>
    <v>       0.87500000       0.87500000       0.87500000 </v>
    <v>       0.25000000       0.00000000       0.00000000 </v>
    <v>       0.75000000       0.00000000       0.00000000 </v>
    <v>       0.25000000       0.50000000       0.00000000 </v>
    <v>       0.75000000       0.50000000       0.00000000 </v>
    <v>       0.25000000       0.00000000       0.50000000 </v>
    <v>       0.75000000       0.00000000       0.50000000 </v>
    <v>       0.25000000       0.50000000       0.50000000 </v>
    <v>       0.75000000       0.50000000       0.50000000 </v>
    <v>       0.37500000       0.12500000       0.12500000 </v>
    <v>       0.87500000       0.12500000       0.12500000 </v>
    <v>       0.37500000       0.62500000       0.12500000 </v>
    <v>       0.87500000       0.62500000       0.12500000 </v>
    <v>       0.37500000       0.12500000       0.62500000 </v>
    <v>       0.87500000       0.12500000       0.62500000 </v>
    <v>       0.37500000       0.62500000       0.62500000 </v>
    <v>       0.87500000       0.62500000       0.62500000 </v>
    <v>       0.25000000       0.25000000       0.25000000 </v>
    <v>       0.75000000       0.25000000       0.25000000 </v>
    <v>       0.25000000       0.75000000       0.25000000 </v>
    <v>       0.75000000       0.75000000       0.25000000 </v>
    <v>       0.25000000       0.25000000       0.75000000 </v>
    <v>       0.75000000       0.25000000       0.75000000 </v>
    <v>       0.25000000       0.75000000       0.75000000 </v>
    <v>       0.75000000       0.75000000       0.75000000 </v>
   </varray>
  </structure>
  <varray name="forces" >
   <v>      -0.01234878      -0.01210423      -0.01186917 </v>
   <v>      -0.01234878      -0.01210423      -0.01186917 </v>
   <v>      -0.01234878      -0.01210423      -0.01186917 </v>
   <v>      -0.01234878      -0.01210423      -0.01186917 </v>
   <v>      -0.01234878      -0.01210423      -0.01186917 </v>
   <v>      -0.01234878      -0.01210423      -0.01186917 </v>
   <v>      -0.01234878      -0.01210423      -0.01186917 </v>
   <v>      -0.01234878      -0.01210423      -0.01186917 </v>
   <v>       0.01234878       0.01210423       0.01186917 </v>
   <v>       0.01234878       0.01210423       0.01186917 </v>
   <v>       0.01234878       0.01210423       0.01186917 </v>
   <v>       0.01234878       0.01210423       0.01186917 </v>
   <v>       0.01234878       0.01210423       0.01186917 </v>
   <v>       0.01234878       0.01210423       0.01186917 </v>
   <v>       0.01234878       0.01210423       0.01186917 </v>
   <v>       0.01234878       0.01210423       0.01186917 </v>
   <v>      -0.01234878      -0.01210423      -0.01186917 </v>
   <v>      -0.01234878      -0.01210423      -0.01186917 </v>
   <v>      -0.01234878      -0.01210423      -0.01186917 </v>
   <v>      -0.01234878      -0.01210423      -0.01186917 </v>
   <v>      -0.01234878      -0.01210423      -0.01186917 </v>
   <v>      -0.01234878      -0.01210423      -0.01186917 </v>
   <v>      -0.01234878      -0.01210423      -0.01186917 </v>
   <v>      -0.01234878      -0.01210423      -0.01186917 </v>
   <v>       0.01234878       0.01210423       0.01186917 </v>
   <v>       0.01234878       0.01210423       0.01186917 </v>
   <v>       0.01234878       0.01210423       0.01186917 </v>
   <v>       0.01234878       0.01210423       0.01186917 </v>
   <v>       0.01234878       0.01210423       0.01186917 </v>
   <v>       0.01234878       0.01210423       0.01186917 </v>
   <v>       0.01234878       0.01210423       0.01186917 </v>
   <v>       0.01234878       0.01210423       0.01186917 </v>
   <v>      -0.01234878      -0.01210423      -0.01186917 </v>
   <v>      -0.01234878      -0.01210423      -0.01186917 </v>
   <v>      -0.01234878      -0.01210423      -0.01186917 </v>
   <v>      -0.01234878      -0.01210423      -0.01186917 </v>
   <v>      -0.01234878      -0.01210423      -0.01186917 </v>
   <v>      -0.01234878      -0.01210423      -0.01186917 </v>
   <v>      -0.01234878      -0.01210423      -0.01186917 </v>
   <v>      -0.01234878      -0.01210423      -0.01186917 </v>
   <v>       0.01234878       0.01210423       0.01186917 </v>
   <v>       0.01234878       0.01210423       0.01186917 </v>
   <v>       0.01234878       0.01210423       0.01186917 </v>
   <v>       0.01234878       0.01210423       0.01186917 </v>
   <v>       0.01234878       0.01210423       0.01186917 </v>
   <v>       0.01234878       0.01210423       0.01186917 </v>
   <v>       0.01234878       0.01210423       0.01186917 </v>
   <v>       0.01234878       0.01210423       0.01186917 </v>
   <v>      -0.01234878      -0.01210423      -0.01186917 </v>
   <v>      -0.01234878      -0.01210423      -0.01186917 </v>
   <v>      -0.01234878      -0.01210423      -0.01186917 </v>
   <v>      -0.01234878      -0.01210423      -0.01186917 </v>
   <v>      -0.01234878      -0.01210423      -0.01186917 </v>
   <v>      -0.01234878      -0.01210423      -0.01186917 </v>
   <v>      -0.01234878      -0.01210423      -0.01186917 </v>
   <v>      -0.01234878      -0.01210423      -0.01186917 </v>
   <v>       0.01234878       0.01210423       0.01186917 </v>
   <v>       0.01234878       0.01210423       0.01186917 </v>
   <v>       0.01234878       0.01210423       0.01186917 </v>
   <v>       0.01234878       0.01210423       0.01186917 </v>
   <v>       0.01234878       0.01210423       0.01186917 </v>
   <v>       0.01234878       0.01210423       0.01186917 </v>
   <v>       0.01234878       0.01210423       0.01186917 </v>
   <v>       0.01234878       0.01210423       0.01186917 </v>
  </varray>
  <varray name="stress" >
   <v>     -97.86369366    -108.20548034    -106.10419255 </v>
   <v>    -108.20548034     -93.53463819    -104.00292332 </v>
   <v>    -106.10419255    -104.00292332     -89.45528791 </v>
  </varray>
  <energy>
   <i name="e_fr_energy">   -581.17753164 </i>
   <i name="e_wo_entrp">   -581.17753164 </i>
   <i name="e_0_energy">     -0.00000000 </i>
  </energy>
  <kpoints>
   <generation param="Gamma">
    <v type="int" name="divisions">       6        6        6 </v>
    <v name="usershift">      0.00000000       0.00000000       0.00000000 </v>
    <v name="genvec1">      0.16666667      -0.00000000      -0.00000000 </v>
    <v name="genvec2">      0.00000000       0.16666667       0.00000000 </v>
    <v name="genvec3">      0.00000000       0.00000000       0.16666667 </v>
    <v name="shift">      0.00000000       0.00000000       0.00000000 </v>
   </generation>
   <varray name="kpointlist" >
    <v>       0.00000000       0.00000000       0.00000000 </v>
    <v>       0.16666667      -0.00000000      -0.00000000 </v>
    <v>       0.33333333      -0.00000000       0.00000000 </v>
    <v>       0.50000000      -0.00000000       0.00000000 </v>
    <v>       0.00000000       0.16666667       0.00000000 </v>
    <v>       0.16666667       0.16666667       0.00000000 </v>
    <v>       0.33333333       0.16666667       0.00000000 </v>
    <v>       0.50000000       0.16666667       0.00000000 </v>
    <v>      -0.33333333       0.16666667       0.00000000 </v>
    <v>      -0.16666667       0.16666667      -0.00000000 </v>
    <v>       0.00000000       0.33333333       0.00000000 </v>
    <v>       0.16666667       0.33333333       0.00000000 </v>
    <v>       0.33333333       0.33333333       0.00000000 </v>
    <v>       0.50000000       0.33333333       0.00000000 </v>
    <v>      -0.33333333       0.33333333       0.00000000 </v>
    <v>      -0.16666667       0.33333333       0.00000000 </v>
    <v>       0.00000000       0.50000000       0.00000000 </v>
    <v>       0.16666667       0.50000000       0.00000000 </v>
    <v>       0.33333333       0.50000000      -0.00000000 </v>
    <v>       0.50000000       0.50000000       0.00000000 </v>
    <v>       0.00000000       0.16666667       0.16666667 </v>
    <v>       0.16666667       0.16666667       0.16666667 </v>
    <v>       0.33333333       0.16666667       0.16666667 </v>
    <v>       0.50000000       0.16666667       0.16666667 </v>
    <v>      -0.33333333       0.16666667       0.16666667 </v>
    <v>      -0.16666667       0.16666667       0.16666667 </v>
    <v>       0.00000000       0.33333333       0.16666667 </v>
    <v>       0.16666667       0.33333333       0.16666667 </v>
    <v>       0.33333333       0.33333333       0.16666667 </v>
    <v>       0.50000000       0.33333333       0.16666667 </v>
    <v>      -0.33333333       0.33333333       0.16666667 </v>
    <v>      -0.16666667       0.33333333       0.16666667 </v>
    <v>       0.00000000       0.50000000       0.16666667 </v>
    <v>       0.16666667       0.50000000       0.16666667 </v>
    <v>       0.33333333       0.50000000       0.16666667 </v>
    <v>       0.50000000       0.50000000       0.16666667 </v>
    <v>      -0.33333333       0.50000000       0.16666667 </v>
    <v>      -0.16666667       0.50000000       0.16666667 </v>
    <v>       0.00000000      -0.33333333       0.16666667 </v>
    <v>       0.16666667      -0.33333333       0.16666667 </v>
    <v>       0.33333333      -0.33333333       0.16666667 </v>
    <v>       0.50000000      -0.33333333       0.16666667 </v>
    <v>      -0.33333333      -0.33333333       0.16666667 </v>
    <v>      -0.16666667      -0.33333333       0.16666667 </v>
    <v>       0.00000000      -0.16666667       0.16666667 </v>
    <v>       0.16666667      -0.16666667       0.16666667 </v>
    <v>       0.33333333      -0.16666667       0.16666667 </v>
    <v>       0.50000000      -0.16666667       0.16666667 </v>
    <v>       0.00000000       0.33333333       0.33333333 </v>
    <v>       0.16666667       0.33333333       0.33333333 </v>
    <v>       0.33333333       0.33333333       0.33333333 </v>
    <v>       0.50000000       0.33333333       0.33333333 </v>
    <v>      -0.33333333       0.33333333       0.33333333 </v>
    <v>      -0.16666667       0.33333333       0.33333333 </v>
    <v>       0.00000000       0.50000000       0.33333333 </v>
    <v>       0.16666667       0.50000000       0.33333333 </v>
    <v>       0.33333333       0.50000000       0.33333333 </v>
    <v>       0.50000000       0.50000000       0.33333333 </v>
    <v>      -0.33333333       0.50000000       0.33333333 </v>
    <v>      -0.16666667       0.50000000       0.33333333 </v>
    <v>       0.00000000      -0.33333333       0.33333333 </v>
    <v>       0.16666667      -0.33333333       0.33333333 </v>
    <v>       0.33333333      -0.33333333       0.33333333 </v>
    <v>       0.50000000      -0.33333333       0.33333333 </v>
    <v>       0.00000000       0.50000000       0.50000000 </v>
    <v>       0.16666667       0.50000000       0.50000000 </v>
    <v>       0.33333333       0.50000000       0.50000000 </v>
    <v>       0.50000000       0.50000000       0.50000000 </v>
   </varray>
   <varray name="weights" >
    <v>       0.00462963 </v>
    <v>       0.00925926 </v>
    <v>       0.00925926 </v>
    <v>       0.00462963 </v>
    <v>       0.01851852 </v>
    <v>       0.01851852 </v>
    <v>       0.01851852 </v>
    <v>       0.01851852 </v>
    <v>       0.01851852 </v>
    <v>       0.01851852 </v>
    <v>       0.01851852 </v>
    <v>       0.01851852 </v>
    <v>       0.01851852 </v>
    <v>       0.01851852 </v>
    <v>       0.01851852 </v>
    <v>       0.01851852 </v>
    <v>       0.00925926 </v>
    <v>       0.01851852 </v>
    <v>       0.01851852 </v>
    <v>       0.00925926 </v>
    <v>       0.00925926 </v>
    <v>       0.00925926 </v>
    <v>       0.00925926 </v>
    <v>       0.00925926 </v>
    <v>       0.00925926 </v>
    <v>       0.00925926 </v>
    <v>       0.01851852 </v>
    <v>       0.01851852 </v>
    <v>       0.01851852 </v>
    <v>       0.01851852 </v>
    <v>       0.01851852 </v>
    <v>       0.01851852 </v>
    <v>       0.01851852 </v>
    <v>       0.01851852 </v>
    <v>       0.01851852 </v>
    <v>       0.01851852 </v>
    <v>       0.01851852 </v>
    <v>       0.01851852 </v>
    <v>       0.01851852 </v>
    <v>       0.01851852 </v>
    <v>       0.01851852 </v>
    <v>       0.01851852 </v>
    <v>       0.01851852 </v>
    <v>       0.01851852 </v>
    <v>       0.00925926 </v>
    <v>       0.01851852 </v>
    <v>       0.01851852 </v>
    <v>       0.00925926 </v>
    <v>       0.00925926 </v>
    <v>       0.00925926 </v>
    <v>       0.00925926 </v>
    <v>       0.00925926 </v>
    <v>       0.00925926 </v>
    <v>       0.00925926 </v>
    <v>       0.01851852 </v>
    <v>       0.01851852 </v>
    <v>       0.01851852 </v>
    <v>       0.01851852 </v>
    <v>       0.01851852 </v>
    <v>       0.01851852 </v>
    <v>       0.00925926 </v>
    <v>       0.01851852 </v>
    <v>       0.01851852 </v>
    <v>       0.00925926 </v>
    <v>       0.00462963 </v>
    <v>       0.00925926 </v>
    <v>       0.00925926 </v>
    <v>       0.00462963 </v>
   </varray>
  </kpoints>
  <scstep>
   <time name="total">   58.36   58.36</time>
   <energy>
    <i name="e_fr_energy">   -362.59046759 </i>
    <i name="e_wo_entrp">   -362.59046759 </i>
    <i name="e_0_energy">   -362.59046759 </i>
   </energy>
  </scstep>
  <scstep>
   <time name="total">   41.80   41.80</time>
   <energy>
    <i name="e_fr_energy">   -308.69362832 </i>
    <i name="e_wo_entrp">   -308.69362832 </i>
    <i name="e_0_energy">   -308.69362832 </i>
   </energy>
  </scstep>
  <scstep>
   <time name="total">   42.79   42.80</time>
   <energy>
    <i name="e_fr_energy">   -308.32558636 </i>
    <i name="e_wo_entrp">   -308.32558636 </i>
    <i name="e_0_energy">   -308.32558636 </i>
   </energy>
  </scstep>
  <scstep>
   <time name="total">   42.90   42.90</time>
   <energy>
    <i name="e_fr_energy">   -308.96414036 </i>
    <i name="e_wo_entrp">   -308.96414036 </i>
    <i name="e_0_energy">   -308.96414036 </i>
   </energy>
  </scstep>
  <scstep>
   <time name="total">   45.14   45.14</time>
   <energy>
    <i name="e_fr_energy">   -309.16871763 </i>
    <i name="e_wo_entrp">   -309.16871763 </i>
    <i name="e_0_energy">   -309.16871763 </i>
   </energy>
  </scstep>
  <scstep>
   <time name="total">   44.74   44.74</time>
   <energy>
    <i name="e_fr_energy">   -309.12616009 </i>
    <i name="e_wo_entrp">   -309.12616009 </i>
    <i name="e_0_energy">   -309.12616009 </i>
   </energy>
  </scstep>
  <scstep>
   <time name="total">   43.70   43.70</time>
   <energy>
    <i name="e_fr_energy">   -309.10513373 </i>
    <i name="e_wo_entrp">   -309.10513373 </i>
    <i name="e_0_energy">   -309.10513373 </i>
   </energy>
  </scstep>
  <scstep>
   <time name="total">   45.08   45.08</time>
   <energy>
    <i name="e_fr_energy">   -309.10389475 </i>
    <i name="e_wo_entrp">   -309.10389475 </i>
    <i name="e_0_energy">   -309.10389475 </i>
   </energy>
  </scstep>
  <scstep>
   <time name="total">   47.11   47.12</time>
   <energy>
    <i name="e_fr_energy">   -309.10340432 </i>
    <i name="e_wo_entrp">   -309.10340432 </i>
    <i name="e_0_energy">   -309.10340432 </i>
   </energy>
  </scstep>
  <scstep>
   <time name="total">   47.61   47.61</time>
   <energy>
    <i name="e_fr_energy">   -309.10354007 </i>
    <i name="e_wo_entrp">   -309.10354007 </i>
    <i name="e_0_energy">   -309.10354007 </i>
   </energy>
  </scstep>
  <scstep>
   <time name="total">   48.09   48.09</time>
   <energy>
    <i name="e_fr_energy">   -309.10356338 </i>
    <i name="e_wo_entrp">   -309.10356338 </i>
    <i name="e_0_energy">   -309.10356338 </i>
   </energy>
  </scstep>
  <kpoints>
   <generation param="Gamma">
    <v type="int" name="divisions">       6        6        6 </v>
    <v name="usershift">      0.00000000       0.00000000       0.00000000 </v>
    <v name="genvec1">      0.16666667      -0.00000000      -0.00000000 </v>
    <v name="genvec2">      0.00000000       0.16666667       0.00000000 </v>
    <v name="genvec3">      0.00000000       0.00000000       0.16666667 </v>
    <v name="shift">      0.00000000       0.00000000       0.00000000 </v>
   </generation>
   <varray name="kpointlist" >
    <v>       0.00000000       0.00000000       0.00000000 </v>
    <v>       0.16666667      -0.00000000      -0.00000000 </v>
    <v>       0.33333333      -0.00000000       0.00000000 </v>
    <v>       0.50000000      -0.00000000       0.00000000 </v>
    <v>       0.16666667       0.16666667       0.00000000 </v>
    <v>       0.33333333       0.16666667       0.00000000 </v>
    <v>       0.50000000       0.16666667       0.00000000 </v>
    <v>      -0.33333333       0.16666667       0.00000000 </v>
    <v>      -0.16666667       0.16666667      -0.00000000 </v>
    <v>       0.33333333       0.33333333       0.00000000 </v>
    <v>       0.50000000       0.33333333       0.00000000 </v>
    <v>      -0.33333333       0.33333333       0.00000000 </v>
    <v>       0.50000000       0.50000000       0.00000000 </v>
    <v>       0.16666667       0.16666667       0.16666667 </v>
    <v>       0.33333333       0.16666667       0.16666667 </v>
    <v>       0.50000000       0.16666667       0.16666667 </v>
    <v>      -0.33333333       0.16666667       0.16666667 </v>
    <v>      -0.16666667       0.16666667       0.16666667 </v>
    <v>       0.33333333       0.33333333       0.16666667 </v>
    <v>       0.50000000       0.33333333       0.16666667 </v>
    <v>      -0.33333333       0.33333333       0.16666667 </v>
    <v>      -0.16666667       0.33333333       0.16666667 </v>
    <v>       0.50000000       0.50000000       0.16666667 </v>
    <v>      -0.33333333       0.50000000       0.16666667 </v>
    <v>      -0.16666667       0.50000000       0.16666667 </v>
    <v>      -0.33333333      -0.33333333       0.16666667 </v>
    <v>       0.33333333       0.33333333       0.33333333 </v>
    <v>       0.50000000       0.33333333       0.33333333 </v>
    <v>      -0.33333333       0.33333333       0.33333333 </v>
    <v>       0.50000000       0.50000000       0.33333333 </v>
    <v>      -0.33333333       0.50000000       0.33333333 </v>
    <v>       0.50000000       0.50000000       0.50000000 </v>
   </varray>
   <varray name="weights" >
    <v>       0.00462963 </v>
    <v>       0.02777778 </v>
    <v>       0.02777778 </v>
    <v>       0.01388889 </v>
    <v>       0.02777778 </v>
    <v>       0.05555556 </v>
    <v>       0.05555556 </v>
    <v>       0.05555556 </v>
    <v>       0.02777778 </v>
    <v>       0.02777778 </v>
    <v>       0.05555556 </v>
    <v>       0.02777778 </v>
    <v>       0.01388889 </v>
    <v>       0.00925926 </v>
    <v>       0.02777778 </v>
    <v>       0.02777778 </v>
    <v>       0.02777778 </v>
    <v>       0.02777778 </v>
    <v>       0.02777778 </v>
    <v>       0.05555556 </v>
    <v>       0.05555556 </v>
    <v>       0.05555556 </v>
    <v>       0.02777778 </v>
    <v>       0.05555556 </v>
    <v>       0.02777778 </v>
    <v>       0.02777778 </v>
    <v>       0.00925926 </v>
    <v>       0.02777778 </v>
    <v>       0.02777778 </v>
    <v>       0.02777778 </v>
    <v>       0.02777778 </v>
    <v>       0.00462963 </v>
   </varray>
  </kpoints>
  <dynmat>
   <varray name="hessian" >
    <v>      -3.56151556       0.15172526       0.14877885       0.01344046       0.00017758       0.00017413       0.00772680       0.00029188      -0.00003260       0.00947191      -0.00096271      -0.00026191       0.00772680      -0.00002687       0.00029246       0.00947191      -0.00028074      -0.00095739      -0.04712706       0.00085147       0.00083493       0.00432398       0.00019248       0.00018874      -0.01197153      -0.00652804       0.00127407       0.00735598      -0.01022770      -0.01808548       0.75696815      -0.18858511      -0.18492289      -0.00746877      -0.00859851      -0.00843153       0.02597037      -0.01784498      -0.01749844      -0.00273132      -0.00269914      -0.00264672      -0.01197153       0.00114582      -0.00655177       0.00735598      -0.01828255      -0.00987112      -0.11644169       0.06150173      -0.06048890      -0.00485873       0.00323601      -0.00272164      -0.11156388       0.06206352       0.06085828      -0.00428881       0.00368225       0.00361074      -0.11156388      -0.05068496      -0.04970069      -0.00428881      -0.00285257      -0.00279717      -0.11644169      -0.05927135       0.06267597      -0.00485873      -0.00265766       0.00328875       0.65889865       0.06716336       0.06585909      -0.00536114       0.00857122       0.00840478      -0.01258928       0.00871581      -0.00235800       0.00713589       0.00724541       0.01651469      -0.01258928      -0.00218665       0.00876037       0.00713589       0.01665359       0.00692019       0.02949721       0.01620627       0.01589156      -0.00240250       0.00261194       0.00256122       0.12080763      -0.05533329       0.12317210       0.12730219      -0.06414722      -0.13574923       0.00682625      -0.00307491      -0.00587099       0.00693297      -0.00289354       0.00647266       0.12730219       0.05662588      -0.13608345       0.12080763       0.05741518       0.12096092       0.00693297       0.00300013       0.00668410       0.00682625       0.00345990      -0.00599915      -0.01406952       0.00731518       0.00104456       0.00398676       0.00629267      -0.01753197       0.76820523       0.18739420      -0.19252126      -0.00450064       0.00712377      -0.00681848       0.02920317       0.01768118      -0.01906993      -0.00300512       0.00228997      -0.00273909      -0.01291171      -0.00324210      -0.00842768       0.00813087       0.01810271      -0.01060019       0.12730219      -0.13494698       0.05928331       0.12080763       0.12206346       0.05503235       0.12080763       0.12206345      -0.05773780       0.12730219      -0.13698093      -0.06147312       0.00693297       0.00674164       0.00286849       0.00682625      -0.00593016       0.00357687       0.00682625      -0.00593016      -0.00295921       0.00693297       0.00641468      -0.00301990       0.76820523      -0.18880984       0.19113311      -0.00450064      -0.00667749       0.00725609      -0.01291171      -0.00848963      -0.00307622       0.00813087      -0.01024320       0.01830708      -0.01406952       0.00118779       0.00729330       0.00398676      -0.01740521       0.00663523       0.02920317      -0.01871957       0.01805171      -0.00300512      -0.00269366       0.00234323 </v>
    <v>       0.15172526      -3.56758535       0.14583197       0.00017758       0.00771741      -0.00003609       0.00029188       0.01343107       0.00017482      -0.00096271       0.00951043      -0.00025673      -0.00002687       0.00772787       0.00028667      -0.00028074      -0.04713847       0.00085425       0.00085147       0.00946049      -0.00097429       0.00019248       0.00431628       0.00018501      -0.00652804      -0.00423648       0.00723206      -0.01022770       0.00854037       0.01867253      -0.18858511       0.77575459       0.19487062      -0.00859851      -0.01256988      -0.00290818      -0.01784498       0.00469191       0.00698659      -0.00269914      -0.00289724       0.00239665       0.00114582      -0.01411620       0.00742581      -0.01828255       0.02994336       0.01825278      -0.05927135       0.12735506      -0.13456635      -0.00265766       0.00692612       0.00652840      -0.05068496       0.12067302       0.12197934      -0.00285257       0.00681410      -0.00594439       0.06206352       0.12067302       0.12197934       0.00368225       0.00681410      -0.00594439       0.06150173       0.12735506      -0.13736442       0.00323601       0.00692612       0.00661965       0.06716336       0.65621153       0.06455490       0.00857122      -0.01293509      -0.00252660       0.00871581      -0.00570695       0.00845362       0.00724541       0.00684602       0.01618764      -0.00218665      -0.01250179       0.00858688       0.01665359       0.02883989       0.01575630       0.01620627       0.00647856       0.00660369       0.00261194      -0.00250699       0.00251050       0.05741518      -0.11169850       0.05840654       0.05662588      -0.11638875      -0.05778546       0.00345990      -0.00430096       0.00372891       0.00300013      -0.00486558      -0.00285166      -0.06414722      -0.11638875       0.06541073      -0.05533329      -0.11169850      -0.05213031      -0.00289354      -0.00486558       0.00315570      -0.00307491      -0.00430096      -0.00267773       0.00731518      -0.00478948      -0.00684074       0.00629267       0.00373500      -0.01718476       0.18739420       0.76070785      -0.18870848       0.00712377      -0.01435835       0.00118116       0.01768118       0.00741505      -0.01022084       0.00228997      -0.00309673      -0.00268484      -0.00324210      -0.01278200      -0.00826078       0.01810271       0.02848734      -0.01886170      -0.13698093       0.13274181      -0.06267133       0.12206345       0.11592411       0.05394248       0.12206346       0.11592411      -0.05659437      -0.13494698       0.13274181       0.06052485       0.00641468       0.00666979      -0.00307789      -0.00593016       0.00706350       0.00350603      -0.00593016       0.00706350      -0.00290060       0.00674164       0.00666979       0.00292947      -0.18880984       0.76451741      -0.18878319      -0.00667749      -0.01170737       0.00112917      -0.00848963      -0.00712694      -0.00837168      -0.01024320       0.00776547      -0.01845531       0.00118779      -0.01201821      -0.00669898      -0.01740521       0.02667551      -0.01763467      -0.01871957       0.00809617      -0.01023419      -0.00269366      -0.00262345      -0.00269412 </v>
    <v>       0.14877885       0.14583197      -3.57330522       0.00017413      -0.00003609       0.00771882      -0.00003260       0.00017482       0.00771882      -0.00026191      -0.00025673      -0.04715019       0.00029246       0.00028667       0.01342201      -0.00095739       0.00085425       0.00949871       0.00083493      -0.00097429       0.00949871       0.00018874       0.00018501       0.00430903       0.00127407       0.00723206      -0.01440366      -0.01808548       0.01867253       0.02921919      -0.18492289       0.19487062       0.76811107      -0.00843153      -0.00290818      -0.01245581      -0.01749844       0.00698659       0.00441787      -0.00264672       0.00239665      -0.00299124      -0.00655177       0.00742581      -0.00452394      -0.00987112       0.01825278       0.00781620       0.06267597      -0.13736442       0.13268808       0.00328875       0.00661965       0.00666826      -0.04970069       0.12197934       0.11588857      -0.00279717      -0.00594439       0.00704726       0.06085828       0.12197934       0.11588857       0.00361074      -0.00594439       0.00704726      -0.06048890      -0.13456635       0.13268808      -0.00272164       0.00652840       0.00666826       0.06585909       0.06455490       0.65367944       0.00840478      -0.00252660      -0.01283598      -0.00235800       0.00845362      -0.01283598       0.01651469       0.01618764       0.02821341       0.00876037       0.00858688      -0.00604114       0.00692019       0.01575630       0.00621954       0.01589156       0.00660369       0.00621954       0.00256122       0.00251050      -0.00260546       0.12096092      -0.05213031       0.11588857      -0.13608345       0.06541073       0.13268808      -0.00599915      -0.00267773       0.00704726       0.00668410       0.00315570       0.00666826      -0.13574923      -0.05778546       0.13268808       0.12317210       0.05840654       0.11588857       0.00647266      -0.00285166       0.00666826      -0.00587099       0.00372891       0.00704726       0.00104456      -0.00684074      -0.01175268      -0.01753197      -0.01718476       0.02735837      -0.19252126      -0.18870848       0.77192063      -0.00681848       0.00118116      -0.01175268      -0.01906993      -0.01022084       0.00849732      -0.00273909      -0.00268484      -0.00251796      -0.00842768      -0.00826078      -0.00680075      -0.01060019      -0.01886170       0.00849732      -0.06147312       0.06052485      -0.11644247      -0.05773780      -0.05659437      -0.11173404       0.05503235       0.05394248      -0.11173404       0.05928331      -0.06267133      -0.11644247      -0.00301990       0.00292947      -0.00486711      -0.00295921      -0.00290060      -0.00431720       0.00357687       0.00350603      -0.00431720       0.00286849      -0.00307789      -0.00486711       0.19113311      -0.18878319       0.76811107       0.00725609       0.00112917      -0.01440366      -0.00307622      -0.00837168      -0.01245581       0.01830708      -0.01845531       0.02921919       0.00729330      -0.00669898      -0.00452394       0.00663523      -0.01763467       0.00441787       0.01805171      -0.01023419       0.00781620       0.00234323      -0.00269412      -0.00299124 </v>
    <v>       0.01344046       0.00017758       0.00017413      -3.56151556       0.15172526       0.14877885       0.00947191      -0.00096271      -0.00026191       0.00772680       0.00029188      -0.00003260       0.00947191      -0.00028074      -0.00095739       0.00772680      -0.00002687       0.00029246       0.00432398       0.00019248       0.00018874      -0.04712706       0.00085147       0.00083493       0.00735598      -0.01022770      -0.01808548      -0.01197153      -0.00652804       0.00127407      -0.00746877      -0.00859851      -0.00843153       0.75696815      -0.18858511      -0.18492289      -0.00273132      -0.00269914      -0.00264672       0.02597037      -0.01784498      -0.01749844       0.00735598      -0.01828255      -0.00987112      -0.01197153       0.00114582      -0.00655177      -0.00485873       0.00323601      -0.00272164      -0.11644169       0.06150173      -0.06048890      -0.00428881       0.00368225       0.00361074      -0.11156388       0.06206352       0.06085828      -0.00428881      -0.00285257      -0.00279717      -0.11156388      -0.05068496      -0.04970069      -0.00485873      -0.00265766       0.00328875      -0.11644169      -0.05927135       0.06267597      -0.00536114       0.00857122       0.00840478       0.65889865       0.06716336       0.06585909       0.00713589       0.00724541       0.01651469      -0.01258928       0.00871581      -0.00235800       0.00713589       0.01665359       0.00692019      -0.01258928      -0.00218665       0.00876037      -0.00240250       0.00261194       0.00256122       0.02949721       0.01620627       0.01589156       0.12730219      -0.06414722      -0.13574923       0.12080763      -0.05533329       0.12317210       0.00693297      -0.00289354       0.00647266       0.00682625      -0.00307491      -0.00587099       0.12080763       0.05741518       0.12096092       0.12730219       0.05662588      -0.13608345       0.00682625       0.00345990      -0.00599915       0.00693297       0.00300013       0.00668410       0.00398676       0.00629267      -0.01753197      -0.01406952       0.00731518       0.00104456      -0.00450064       0.00712377      -0.00681848       0.76820523       0.18739420      -0.19252126      -0.00300512       0.00228997      -0.00273909       0.02920317       0.01768118      -0.01906993       0.00813087       0.01810271      -0.01060019      -0.01291171      -0.00324210      -0.00842768       0.12080763       0.12206346       0.05503235       0.12730219      -0.13494698       0.05928331       0.12730219      -0.13698093      -0.06147312       0.12080763       0.12206345      -0.05773780       0.00682625      -0.00593016       0.00357687       0.00693297       0.00674164       0.00286849       0.00693297       0.00641468      -0.00301990       0.00682625      -0.00593016      -0.00295921      -0.00450064      -0.00667749       0.00725609       0.76820523      -0.18880984       0.19113311       0.00813087      -0.01024320       0.01830708      -0.01291171      -0.00848963      -0.00307622       0.00398676      -0.01740521       0.00663523      -0.01406952       0.00118779       0.00729330      -0.00300512      -0.00269366       0.00234323       0.02920317      -0.01871957       0.01805171 </v>
    <v>       0.00017758       0.00771741      -0.00003609       0.15172526      -3.56758535       0.14583197      -0.00096271       0.00951043      -0.00025673       0.00029188       0.01343107       0.00017482      -0.00028074      -0.04713847       0.00085425      -0.00002687       0.00772787       0.00028667       0.00019248       0.00431628       0.00018501       0.00085147       0.00946049      -0.00097429      -0.01022770       0.00854037       0.01867253      -0.00652804      -0.00423648       0.00723206      -0.00859851      -0.01256988      -0.00290818      -0.18858511       0.77575459       0.19487062      -0.00269914      -0.00289724       0.00239665      -0.01784498       0.00469191       0.00698659      -0.01828255       0.02994336       0.01825278       0.00114582      -0.01411620       0.00742581      -0.00265766       0.00692612       0.00652840      -0.05927135       0.12735506      -0.13456635      -0.00285257       0.00681410      -0.00594439      -0.05068496       0.12067302       0.12197934       0.00368225       0.00681410      -0.00594439       0.06206352       0.12067302       0.12197934       0.00323601       0.00692612       0.00661965       0.06150173       0.12735506      -0.13736442       0.00857122      -0.01293509      -0.00252660       0.06716336       0.65621153       0.06455490       0.00724541       0.00684602       0.01618764       0.00871581      -0.00570695       0.00845362       0.01665359       0.02883989       0.01575630      -0.00218665      -0.01250179       0.00858688       0.00261194      -0.00250699       0.00251050       0.01620627       0.00647856       0.00660369       0.05662588      -0.11638875      -0.05778546       0.05741518      -0.11169850       0.05840654       0.00300013      -0.00486558      -0.00285166       0.00345990      -0.00430096       0.00372891      -0.05533329      -0.11169850      -0.05213031      -0.06414722      -0.11638875       0.06541073      -0.00307491      -0.00430096      -0.00267773      -0.00289354      -0.00486558       0.00315570       0.00629267       0.00373500      -0.01718476       0.00731518      -0.00478948      -0.00684074       0.00712377      -0.01435835       0.00118116       0.18739420       0.76070785      -0.18870848       0.00228997      -0.00309673      -0.00268484       0.01768118       0.00741505      -0.01022084       0.01810271       0.02848734      -0.01886170      -0.00324210      -0.01278200      -0.00826078       0.12206345       0.11592411       0.05394248      -0.13698093       0.13274181      -0.06267133      -0.13494698       0.13274181       0.06052485       0.12206346       0.11592411      -0.05659437      -0.00593016       0.00706350       0.00350603       0.00641468       0.00666979      -0.00307789       0.00674164       0.00666979       0.00292947      -0.00593016       0.00706350      -0.00290060      -0.00667749      -0.01170737       0.00112917      -0.18880984       0.76451741      -0.18878319      -0.01024320       0.00776547      -0.01845531      -0.00848963      -0.00712694      -0.00837168      -0.01740521       0.02667551      -0.01763467       0.00118779      -0.01201821      -0.00669898      -0.00269366      -0.00262345      -0.00269412      -0.01871957       0.00809617      -0.01023419 </v>
    <v>       0.00017413      -0.00003609       0.00771882       0.14877885       0.14583197      -3.57330522      -0.00026191      -0.00025673      -0.04715019      -0.00003260       0.00017482       0.00771882      -0.00095739       0.00085425       0.00949871       0.00029246       0.00028667       0.01342201       0.00018874       0.00018501       0.00430903       0.00083493      -0.00097429       0.00949871      -0.01808548       0.01867253       0.02921919       0.00127407       0.00723206      -0.01440366      -0.00843153      -0.00290818      -0.01245581      -0.18492289       0.19487062       0.76811107      -0.00264672       0.00239665      -0.00299124      -0.01749844       0.00698659       0.00441787      -0.00987112       0.01825278       0.00781620      -0.00655177       0.00742581      -0.00452394       0.00328875       0.00661965       0.00666826       0.06267597      -0.13736442       0.13268808      -0.00279717      -0.00594439       0.00704726      -0.04970069       0.12197934       0.11588857       0.00361074      -0.00594439       0.00704726       0.06085828       0.12197934       0.11588857      -0.00272164       0.00652840       0.00666826      -0.06048890      -0.13456635       0.13268808       0.00840478      -0.00252660      -0.01283598       0.06585909       0.06455490       0.65367944       0.01651469       0.01618764       0.02821341      -0.00235800       0.00845362      -0.01283598       0.00692019       0.01575630       0.00621954       0.00876037       0.00858688      -0.00604114       0.00256122       0.00251050      -0.00260546       0.01589156       0.00660369       0.00621954      -0.13608345       0.06541073       0.13268808       0.12096092      -0.05213031       0.11588857       0.00668410       0.00315570       0.00666826      -0.00599915      -0.00267773       0.00704726       0.12317210       0.05840654       0.11588857      -0.13574923      -0.05778546       0.13268808      -0.00587099       0.00372891       0.00704726       0.00647266      -0.00285166       0.00666826      -0.01753197      -0.01718476       0.02735837       0.00104456      -0.00684074      -0.01175268      -0.00681848       0.00118116      -0.01175268      -0.19252126      -0.18870848       0.77192063      -0.00273909      -0.00268484      -0.00251796      -0.01906993      -0.01022084       0.00849732      -0.01060019      -0.01886170       0.00849732      -0.00842768      -0.00826078      -0.00680075      -0.05773780      -0.05659437      -0.11173404      -0.06147312       0.06052485      -0.11644247       0.05928331      -0.06267133      -0.11644247       0.05503235       0.05394248      -0.11173404      -0.00295921      -0.00290060      -0.00431720      -0.00301990       0.00292947      -0.00486711       0.00286849      -0.00307789      -0.00486711       0.00357687       0.00350603      -0.00431720       0.00725609       0.00112917      -0.01440366       0.19113311      -0.18878319       0.76811107       0.01830708      -0.01845531       0.02921919      -0.00307622      -0.00837168      -0.01245581       0.00663523      -0.01763467       0.00441787       0.00729330      -0.00669898      -0.00452394       0.00234323      -0.00269412      -0.00299124       0.01805171      -0.01023419       0.00781620 </v>
    <v>       0.00772680       0.00029188      -0.00003260       0.00947191      -0.00096271      -0.00026191      -3.56151556       0.15172526       0.14877885       0.01344046       0.00017758       0.00017413      -0.04712706       0.00085147       0.00083493       0.00432398       0.00019248       0.00018874       0.00772680      -0.00002687       0.00029246       0.00947191      -0.00028074      -0.00095739       0.75696815      -0.18858511      -0.18492289      -0.00746877      -0.00859851      -0.00843153      -0.01197153      -0.00652804       0.00127407       0.00735598      -0.01022770      -0.01808548      -0.01197153       0.00114582      -0.00655177       0.00735598      -0.01828255      -0.00987112       0.02597037      -0.01784498      -0.01749844      -0.00273132      -0.00269914      -0.00264672      -0.11156388       0.06206352       0.06085828      -0.00428881       0.00368225       0.00361074      -0.11644169       0.06150173      -0.06048890      -0.00485873       0.00323601      -0.00272164      -0.11644169      -0.05927135       0.06267597      -0.00485873      -0.00265766       0.00328875      -0.11156388      -0.05068496      -0.04970069      -0.00428881      -0.00285257      -0.00279717      -0.01258928       0.00871581      -0.00235800       0.00713589       0.00724541       0.01651469       0.65889865       0.06716336       0.06585909      -0.00536114       0.00857122       0.00840478       0.02949721       0.01620627       0.01589156      -0.00240250       0.00261194       0.00256122      -0.01258928      -0.00218665       0.00876037       0.00713589       0.01665359       0.00692019       0.00682625      -0.00307491      -0.00587099       0.00693297      -0.00289354       0.00647266       0.12080763      -0.05533329       0.12317210       0.12730219      -0.06414722      -0.13574923       0.00693297       0.00300013       0.00668410       0.00682625       0.00345990      -0.00599915       0.12730219       0.05662588      -0.13608345       0.12080763       0.05741518       0.12096092       0.76820523       0.18739420      -0.19252126      -0.00450064       0.00712377      -0.00681848      -0.01406952       0.00731518       0.00104456       0.00398676       0.00629267      -0.01753197      -0.01291171      -0.00324210      -0.00842768       0.00813087       0.01810271      -0.01060019       0.02920317       0.01768118      -0.01906993      -0.00300512       0.00228997      -0.00273909       0.12080763       0.12206345      -0.05773780       0.12730219      -0.13698093      -0.06147312       0.12730219      -0.13494698       0.05928331       0.12080763       0.12206346       0.05503235       0.00682625      -0.00593016      -0.00295921       0.00693297       0.00641468      -0.00301990       0.00693297       0.00674164       0.00286849       0.00682625      -0.00593016       0.00357687      -0.01291171      -0.00848963      -0.00307622       0.00813087      -0.01024320       0.01830708       0.76820523      -0.18880984       0.19113311      -0.00450064      -0.00667749       0.00725609       0.02920317      -0.01871957       0.01805171      -0.00300512      -0.00269366       0.00234323      -0.01406952       0.00118779       0.00729330       0.00398676      -0.01740521       0.00663523 </v>
[...]
      </set>
     </set>
    </set>
   </array>
  </eigenvalues>
  <separator name="orbital magnetization" >
   <v name="MAGDIPOLOUT">      0.00000000      0.00000000      0.00000000</v>
  </separator>
  <dos>
   <i name="efermi">      9.82433717 </i>
   <total>
    <array>
     <dimension dim="1">gridpoints</dimension>
     <dimension dim="2">spin</dimension>
     <field>energy</field>
     <field>total</field>
     <field>integrated</field>
     <set>
      <set comment="spin 1">
       <r>   -13.3942     0.0000     0.0000 </r>
       <r>   -13.2734     0.0000     0.0000 </r>
       <r>   -13.1525     0.0000     0.0000 </r>
       <r>   -13.0316     0.0000     0.0000 </r>
       <r>   -12.9107     0.0000     0.0000 </r>
       <r>   -12.7898     0.0000     0.0000 </r>
       <r>   -12.6689     0.0000     0.0000 </r>
       <r>   -12.5480     0.0000     0.0000 </r>
       <r>   -12.4271     0.0000     0.0000 </r>
       <r>   -12.3062     0.0000     0.0000 </r>
       <r>   -12.1853     0.0000     0.0000 </r>
       <r>   -12.0644     0.0000     0.0000 </r>
       <r>   -11.9436     0.0000     0.0000 </r>
       <r>   -11.8227     0.0029     0.0003 </r>
       <r>   -11.7018     0.2353     0.0288 </r>
       <r>   -11.5809     1.2243     0.1768 </r>
       <r>   -11.4600     1.4228     0.3488 </r>
       <r>   -11.3391     2.8144     0.6890 </r>
       <r>   -11.2182     1.5642     0.8781 </r>
       <r>   -11.0973     3.5610     1.3086 </r>
       <r>   -10.9764     2.8349     1.6513 </r>
       <r>   -10.8555     3.8454     2.1162 </r>
       <r>   -10.7346     2.3462     2.3998 </r>
       <r>   -10.6138     4.7222     2.9707 </r>
       <r>   -10.4929     4.3231     3.4933 </r>
       <r>   -10.3720     4.8231     4.0764 </r>
       <r>   -10.2511     2.4871     4.3771 </r>
       <r>   -10.1302     4.9846     4.9797 </r>
       <r>   -10.0093     6.1463     5.7227 </r>
       <r>    -9.8884     5.3980     6.3753 </r>
       <r>    -9.7675     4.4972     6.9189 </r>
       <r>    -9.6466     4.3253     7.4418 </r>
       <r>    -9.5257     6.3695     8.2118 </r>
       <r>    -9.4048     5.6441     8.8942 </r>
       <r>    -9.2840     5.4960     9.5586 </r>
       <r>    -9.1631     7.0205    10.4073 </r>
       <r>    -9.0422     6.8418    11.2344 </r>
       <r>    -8.9213     6.0492    11.9657 </r>
       <r>    -8.8004     5.5623    12.6381 </r>
       <r>    -8.6795     4.3550    13.1646 </r>
       <r>    -8.5586     9.2155    14.2787 </r>
       <r>    -8.4377     7.7167    15.2116 </r>
       <r>    -8.3168     8.6065    16.2520 </r>
       <r>    -8.1959     5.8096    16.9543 </r>
       <r>    -8.0750     6.9701    17.7970 </r>
       <r>    -7.9542     6.9437    18.6364 </r>
       <r>    -7.8333     7.7473    19.5730 </r>
       <r>    -7.7124     7.3967    20.4672 </r>
       <r>    -7.5915    10.0806    21.6858 </r>
       <r>    -7.4706     8.1326    22.6690 </r>
       <r>    -7.3497     8.9831    23.7549 </r>
       <r>    -7.2288     7.6640    24.6815 </r>
       <r>    -7.1079     9.8511    25.8724 </r>
       <r>    -6.9870     9.3737    27.0056 </r>
       <r>    -6.8661     7.3319    27.8919 </r>
       <r>    -6.7453     7.3581    28.7814 </r>
       <r>    -6.6244    12.4040    30.2810 </r>
       <r>    -6.5035     9.8304    31.4694 </r>
       <r>    -6.3826    12.5613    32.9879 </r>
       <r>    -6.2617    11.8070    34.4153 </r>
       <r>    -6.1408     9.7898    35.5988 </r>
       <r>    -6.0199    10.6756    36.8894 </r>
       <r>    -5.8990    12.5238    38.4034 </r>
       <r>    -5.7781     9.6673    39.5721 </r>
       <r>    -5.6572    10.0191    40.7833 </r>
       <r>    -5.5363    15.1783    42.6182 </r>
       <r>    -5.4155    12.7515    44.1597 </r>
       <r>    -5.2946     8.9715    45.2443 </r>
       <r>    -5.1737    11.7886    46.6694 </r>
       <r>    -5.0528    11.1158    48.0132 </r>
       <r>    -4.9319    12.5097    49.5255 </r>
       <r>    -4.8110     5.9899    50.2497 </r>
       <r>    -4.6901     9.0949    51.3491 </r>
       <r>    -4.5692     9.3118    52.4749 </r>
       <r>    -4.4483     7.8210    53.4203 </r>
       <r>    -4.3274     7.5671    54.3351 </r>
       <r>    -4.2065    11.0418    55.6700 </r>
       <r>    -4.0857    10.5448    56.9447 </r>
       <r>    -3.9648     5.4689    57.6059 </r>
       <r>    -3.8439     8.6218    58.6482 </r>
       <r>    -3.7230     8.9772    59.7334 </r>
       <r>    -3.6021     6.7511    60.5496 </r>
       <r>    -3.4812     5.8227    61.2535 </r>
       <r>    -3.3603     5.5078    61.9193 </r>
       <r>    -3.2394     9.1799    63.0291 </r>
       <r>    -3.1185     9.8546    64.2204 </r>
       <r>    -2.9976     5.8583    64.9287 </r>
       <r>    -2.8767    11.6875    66.3416 </r>
       <r>    -2.7559    11.1373    67.6880 </r>
       <r>    -2.6350    10.0804    68.9066 </r>
       <r>    -2.5141     6.2039    69.6566 </r>
       <r>    -2.3932    10.5025    70.9262 </r>
       <r>    -2.2723    10.8675    72.2400 </r>
       <r>    -2.1514    11.1940    73.5932 </r>
       <r>    -2.0305    11.9776    75.0412 </r>
       <r>    -1.9096    16.6155    77.0499 </r>
       <r>    -1.7887    26.7223    80.2804 </r>
       <r>    -1.6678    20.5765    82.7679 </r>
       <r>    -1.5469    17.7541    84.9142 </r>
       <r>    -1.4261    17.9406    87.0830 </r>
       <r>    -1.3052    14.0168    88.7775 </r>
       <r>    -1.1843     9.4241    89.9168 </r>
       <r>    -1.0634    10.2496    91.1559 </r>
       <r>    -0.9425     9.4330    92.2962 </r>
       <r>    -0.8216    11.9537    93.7413 </r>
       <r>    -0.7007    10.5360    95.0150 </r>
       <r>    -0.5798     8.2468    96.0120 </r>
       <r>    -0.4589    13.6840    97.6663 </r>
       <r>    -0.3380    14.0770    99.3681 </r>
       <r>    -0.2172    10.8955   100.6852 </r>
       <r>    -0.0963     5.7711   101.3829 </r>
       <r>     0.0246     5.3636   102.0313 </r>
       <r>     0.1455     7.3091   102.9149 </r>
       <r>     0.2664     7.8823   103.8678 </r>
       <r>     0.3873    13.7287   105.5275 </r>
       <r>     0.5082    10.7792   106.8306 </r>
       <r>     0.6291     6.3485   107.5981 </r>
       <r>     0.7500    15.4996   109.4718 </r>
       <r>     0.8709    21.3541   112.0533 </r>
       <r>     0.9918    21.3956   114.6398 </r>
       <r>     1.1126    16.2385   116.6029 </r>
       <r>     1.2335    12.9777   118.1718 </r>
       <r>     1.3544    12.0417   119.6275 </r>
       <r>     1.4753    14.5414   121.3855 </r>
       <r>     1.5962    18.8225   123.6609 </r>
       <r>     1.7171    20.5857   126.1495 </r>
       <r>     1.8380    19.6509   128.5252 </r>
       <r>     1.9589    12.8040   130.0730 </r>
       <r>     2.0798    13.7065   131.7300 </r>
       <r>     2.2007    19.7569   134.1185 </r>
       <r>     2.3216    21.1382   136.6739 </r>
       <r>     2.4424    18.1023   138.8623 </r>
       <r>     2.5633    14.8633   140.6591 </r>
       <r>     2.6842    19.6684   143.0368 </r>
       <r>     2.8051    19.4860   145.3925 </r>
       <r>     2.9260    17.5333   147.5121 </r>
       <r>     3.0469    25.1620   150.5540 </r>
       <r>     3.1678    23.3649   153.3786 </r>
       <r>     3.2887    25.4677   156.4574 </r>
       <r>     3.4096    24.5697   159.4276 </r>
       <r>     3.5305    18.7702   161.6968 </r>
       <r>     3.6514    24.0252   164.6012 </r>
       <r>     3.7722    26.1814   167.7663 </r>
       <r>     3.8931    27.6518   171.1091 </r>
       <r>     4.0140    25.6558   174.2107 </r>
       <r>     4.1349    28.2419   177.6249 </r>
       <r>     4.2558    25.3199   180.6858 </r>
       <r>     4.3767    17.5494   182.8074 </r>
       <r>     4.4976    24.1360   185.7252 </r>
       <r>     4.6185    23.7625   188.5978 </r>
       <r>     4.7394    23.7140   191.4647 </r>
       <r>     4.8603    23.8049   194.3424 </r>
       <r>     4.9812    22.7922   197.0978 </r>
       <r>     5.1020    27.2235   200.3889 </r>
       <r>     5.2229    20.0243   202.8096 </r>
       <r>     5.3438    22.8678   205.5741 </r>
       <r>     5.4647    22.8784   208.3399 </r>
       <r>     5.5856    21.3862   210.9253 </r>
       <r>     5.7065    18.4924   213.1609 </r>
       <r>     5.8274    19.1215   215.4725 </r>
       <r>     5.9483    26.0569   218.6225 </r>
       <r>     6.0692    23.7246   221.4906 </r>
       <r>     6.1901    22.9484   224.2649 </r>
       <r>     6.3109    20.0504   226.6888 </r>
       <r>     6.4318    17.4243   228.7952 </r>
       <r>     6.5527    15.7905   230.7041 </r>
       <r>     6.6736    20.2455   233.1516 </r>
       <r>     6.7945    24.0609   236.0604 </r>
       <r>     6.9154    20.1376   238.4948 </r>
       <r>     7.0363    11.4180   239.8752 </r>
       <r>     7.1572    10.7767   241.1780 </r>
       <r>     7.2781    13.3991   242.7978 </r>
       <r>     7.3990    10.0459   244.0122 </r>
       <r>     7.5199    10.8343   245.3220 </r>
       <r>     7.6407    12.9010   246.8816 </r>
       <r>     7.7616     9.1913   247.9928 </r>
       <r>     7.8825     7.0915   248.8501 </r>
       <r>     8.0034     5.9856   249.5737 </r>
       <r>     8.1243     7.8166   250.5186 </r>
       <r>     8.2452     7.9868   251.4841 </r>
       <r>     8.3661     5.6241   252.1640 </r>
       <r>     8.4870     4.2248   252.6748 </r>
       <r>     8.6079     6.0246   253.4031 </r>
       <r>     8.7288     5.4428   254.0611 </r>
       <r>     8.8497     3.9397   254.5374 </r>
       <r>     8.9705     2.0314   254.7829 </r>
       <r>     9.0914     3.1696   255.1661 </r>
       <r>     9.2123     3.9084   255.6386 </r>
       <r>     9.3332     1.5220   255.8226 </r>
       <r>     9.4541     1.0183   255.9457 </r>
       <r>     9.5750     0.4345   255.9982 </r>
       <r>     9.6959     0.0145   256.0000 </r>
       <r>     9.8168     0.0000   256.0000 </r>
       <r>     9.9377     0.0000   256.0000 </r>
       <r>    10.0586     0.0000   256.0000 </r>
       <r>    10.1795     0.0000   256.0000 </r>
       <r>    10.3003     0.0000   256.0000 </r>
       <r>    10.4212     0.0000   256.0000 </r>
       <r>    10.5421     0.0000   256.0000 </r>
       <r>    10.6630     0.0000   256.0000 </r>
       <r>    10.7839     0.0000   256.0000 </r>
       <r>    10.9048     0.0000   256.0000 </r>
       <r>    11.0257     0.0000   256.0000 </r>
       <r>    11.1466     0.0000   256.0000 </r>
       <r>    11.2675     0.0000   256.0000 </r>
       <r>    11.3884     0.0000   256.0000 </r>
       <r>    11.5093     0.0000   256.0000 </r>
       <r>    11.6301     0.0000   256.0000 </r>
       <r>    11.7510     0.0000   256.0000 </r>
       <r>    11.8719     0.0000   256.0000 </r>
       <r>    11.9928     0.0000   256.0000 </r>
       <r>    12.1137     0.0000   256.0000 </r>
       <r>    12.2346     0.0000   256.0000 </r>
       <r>    12.3555     0.0000   256.0000 </r>
       <r>    12.4764     0.0000   256.0000 </r>
       <r>    12.5973     0.0000   256.0000 </r>
       <r>    12.7182     0.0000   256.0000 </r>
       <r>    12.8391     0.0000   256.0000 </r>
       <r>    12.9599     0.0000   256.0000 </r>
       <r>    13.0808     0.0000   256.0000 </r>
       <r>    13.2017     0.0000   256.0000 </r>
       <r>    13.3226     0.0000   256.0000 </r>
       <r>    13.4435     0.0058   256.0007 </r>
       <r>    13.5644     0.6202   256.0757 </r>
       <r>    13.6853     1.0272   256.1999 </r>
       <r>    13.8062     2.3195   256.4803 </r>
       <r>    13.9271     6.6574   257.2851 </r>
       <r>    14.0480     5.9615   258.0058 </r>
       <r>    14.1688     4.7687   258.5823 </r>
       <r>    14.2897     4.9442   259.1800 </r>
       <r>    14.4106     8.0125   260.1486 </r>
       <r>    14.5315     6.4361   260.9267 </r>
       <r>    14.6524     8.8666   261.9986 </r>
       <r>    14.7733    14.2472   263.7209 </r>
       <r>    14.8942    14.3088   265.4507 </r>
       <r>    15.0151    11.7308   266.8689 </r>
       <r>    15.1360    13.3115   268.4781 </r>
       <r>    15.2569    11.5568   269.8752 </r>
       <r>    15.3778    10.1735   271.1051 </r>
       <r>    15.4986    13.4453   272.7305 </r>
       <r>    15.6195    14.6910   274.5065 </r>
       <r>    15.7404    20.7853   277.0193 </r>
       <r>    15.8613    23.4713   279.8567 </r>
       <r>    15.9822    19.0110   282.1550 </r>
       <r>    16.1031    17.2300   284.2379 </r>
       <r>    16.2240    15.4036   286.1001 </r>
       <r>    16.3449    19.2220   288.4238 </r>
       <r>    16.4658    20.9592   290.9576 </r>
       <r>    16.5867    18.9610   293.2498 </r>
       <r>    16.7076    18.9231   295.5374 </r>
       <r>    16.8284    19.2078   297.8595 </r>
       <r>    16.9493    31.1746   301.6282 </r>
       <r>    17.0702    33.8638   305.7220 </r>
       <r>    17.1911    28.5136   309.1691 </r>
       <r>    17.3120    27.9008   312.5420 </r>
       <r>    17.4329    36.1208   316.9087 </r>
       <r>    17.5538    32.7198   320.8642 </r>
       <r>    17.6747    26.5719   324.0765 </r>
       <r>    17.7956    17.5215   326.1947 </r>
       <r>    17.9165    20.8334   328.7132 </r>
       <r>    18.0374    28.9521   332.2133 </r>
       <r>    18.1582    43.7233   337.4990 </r>
       <r>    18.2791    34.5231   341.6726 </r>
       <r>    18.4000    41.0991   346.6411 </r>
       <r>    18.5209    35.3908   350.9195 </r>
       <r>    18.6418    25.8661   354.0465 </r>
       <r>    18.7627    28.0901   357.4423 </r>
       <r>    18.8836    27.8941   360.8144 </r>
       <r>    19.0045    20.5490   363.2986 </r>
       <r>    19.1254    18.4402   365.5279 </r>
       <r>    19.2463    29.3880   369.0806 </r>
       <r>    19.3672    28.5015   372.5262 </r>
       <r>    19.4880    20.7479   375.0344 </r>
       <r>    19.6089    26.7696   378.2706 </r>
       <r>    19.7298    16.1004   380.2170 </r>
       <r>    19.8507    10.3300   381.4658 </r>
       <r>    19.9716     6.1759   382.2124 </r>
       <r>    20.0925     3.3378   382.6159 </r>
       <r>    20.2134     2.3255   382.8970 </r>
       <r>    20.3343     1.3087   383.0552 </r>
       <r>    20.4552     2.6590   383.3767 </r>
       <r>    20.5761     2.8576   383.7222 </r>
       <r>    20.6969     0.6107   383.7960 </r>
       <r>    20.8178     0.0610   383.8034 </r>
       <r>    20.9387     1.1115   383.9377 </r>
       <r>    21.0596     0.2086   383.9630 </r>
       <r>    21.1805     0.0461   383.9685 </r>
       <r>    21.3014     0.2497   383.9987 </r>
       <r>    21.4223     0.0107   384.0000 </r>
       <r>    21.5432     0.0000   384.0000 </r>
       <r>    21.6641     0.0000   384.0000 </r>
       <r>    21.7850     0.0000   384.0000 </r>
       <r>    21.9059     0.0000   384.0000 </r>
       <r>    22.0267     0.0000   384.0000 </r>
       <r>    22.1476     0.0000   384.0000 </r>
       <r>    22.2685     0.0000   384.0000 </r>
       <r>    22.3894     0.0000   384.0000 </r>
       <r>    22.5103     0.0000   384.0000 </r>
       <r>    22.6312     0.0000   384.0000 </r>
       <r>    22.7521     0.0000   384.0000 </r>
       <r>    22.8730     0.0000   384.0000 </r>
      </set>
     </set>
    </array>
   </total>
  </dos>
 </calculation>
 <structure name="finalpos" >
  <crystal>
   <varray name="basis" >
    <v>       7.17999872       0.00000000       0.00000000 </v>
    <v>       0.14359957       7.17856220       0.00000000 </v>
    <v>       0.14359957       0.14075667       7.17718194 </v>
   </varray>
   <i name="volume">    369.92679508 </i>
   <varray name="rec_basis" >
    <v>       0.13927579      -0.00278607      -0.00273196 </v>
    <v>       0.00000000       0.13930366      -0.00273198 </v>
    <v>       0.00000000       0.00000000       0.13933045 </v>
   </varray>
  </crystal>
  <varray name="positions" >
   <v>       0.12500000       0.37500000       0.12500000 </v>
   <v>       0.62500000       0.37500000       0.12500000 </v>
   <v>       0.12500000       0.87500000       0.12500000 </v>
   <v>       0.62500000       0.87500000       0.12500000 </v>
   <v>       0.12500000       0.37500000       0.62500000 </v>
   <v>       0.62500000       0.37500000       0.62500000 </v>
   <v>       0.12500000       0.87500000       0.62500000 </v>
   <v>       0.62500000       0.87500000       0.62500000 </v>
   <v>       0.00000000       0.00000000       0.25000000 </v>
   <v>       0.50000000       0.00000000       0.25000000 </v>
   <v>       0.00000000       0.50000000       0.25000000 </v>
   <v>       0.50000000       0.50000000       0.25000000 </v>
   <v>       0.00000000       0.00000000       0.75000000 </v>
   <v>       0.50000000       0.00000000       0.75000000 </v>
   <v>       0.00000000       0.50000000       0.75000000 </v>
   <v>       0.50000000       0.50000000       0.75000000 </v>
   <v>       0.12500000       0.12500000       0.37500000 </v>
   <v>       0.62500000       0.12500000       0.37500000 </v>
   <v>       0.12500000       0.62500000       0.37500000 </v>
   <v>       0.62500000       0.62500000       0.37500000 </v>
   <v>       0.12500000       0.12500000       0.87500000 </v>
   <v>       0.62500000       0.12500000       0.87500000 </v>
   <v>       0.12500000       0.62500000       0.87500000 </v>
   <v>       0.62500000       0.62500000       0.87500000 </v>
   <v>       0.00000000       0.25000000       0.00000000 </v>
   <v>       0.50000000       0.25000000       0.00000000 </v>
   <v>       0.00000000       0.75000000       0.00000000 </v>
   <v>       0.50000000       0.75000000       0.00000000 </v>
   <v>       0.00000000       0.25000000       0.50000000 </v>
   <v>       0.50000000       0.25000000       0.50000000 </v>
   <v>       0.00000000       0.75000000       0.50000000 </v>
   <v>       0.50000000       0.75000000       0.50000000 </v>
   <v>       0.37500000       0.37500000       0.37500000 </v>
   <v>       0.87500000       0.37500000       0.37500000 </v>
   <v>       0.37500000       0.87500000       0.37500000 </v>
   <v>       0.87500000       0.87500000       0.37500000 </v>
   <v>       0.37500000       0.37500000       0.87500000 </v>
   <v>       0.87500000       0.37500000       0.87500000 </v>
   <v>       0.37500000       0.87500000       0.87500000 </v>
   <v>       0.87500000       0.87500000       0.87500000 </v>
   <v>       0.25000000       0.00000000       0.00000000 </v>
   <v>       0.75000000       0.00000000       0.00000000 </v>
   <v>       0.25000000       0.50000000       0.00000000 </v>
   <v>       0.75000000       0.50000000       0.00000000 </v>
   <v>       0.25000000       0.00000000       0.50000000 </v>
   <v>       0.75000000       0.00000000       0.50000000 </v>
   <v>       0.25000000       0.50000000       0.50000000 </v>
   <v>       0.75000000       0.50000000       0.50000000 </v>
   <v>       0.37500000       0.12500000       0.12500000 </v>
   <v>       0.87500000       0.12500000       0.12500000 </v>
   <v>       0.37500000       0.62500000       0.12500000 </v>
   <v>       0.87500000       0.62500000       0.12500000 </v>
   <v>       0.37500000       0.12500000       0.62500000 </v>
   <v>       0.87500000       0.12500000       0.62500000 </v>
   <v>       0.37500000       0.62500000       0.62500000 </v>
   <v>       0.87500000       0.62500000       0.62500000 </v>
   <v>       0.25000000       0.25000000       0.25000000 </v>
   <v>       0.75000000       0.25000000       0.25000000 </v>
   <v>       0.25000000       0.75000000       0.25000000 </v>
   <v>       0.75000000       0.75000000       0.25000000 </v>
   <v>       0.25000000       0.25000000       0.75000000 </v>
   <v>       0.75000000       0.25000000       0.75000000 </v>
   <v>       0.25000000       0.75000000       0.75000000 </v>
   <v>       0.75000000       0.75000000       0.75000000 </v>
  </varray>
 </structure>
</modeling>
