mesh: [    48,    48,    48 ]
nqpoint: 2600   
reciprocal_lattice:
- [   0.27855158,   0.00000000,   0.00000000 ] # a*
- [   0.00000000,   0.27855158,   0.00000000 ] # b*
- [   0.00000000,   0.00000000,   0.27855158 ] # c*
natom:   8      
lattice:
- [     3.589999358965931,     0.000000000000000,     0.000000000000000 ] # a
- [     0.000000000000000,     3.589999358965931,     0.000000000000000 ] # b
- [     0.000000000000000,     0.000000000000000,     3.589999358965931 ] # c
points:
- symbol: C  # 1
  coordinates: [  0.250000000000000,  0.750000000000000,  0.250000000000000 ]
  mass: 12.010700
- symbol: C  # 2
  coordinates: [  0.000000000000000,  0.000000000000000,  0.500000000000000 ]
  mass: 12.010700
- symbol: C  # 3
  coordinates: [  0.250000000000000,  0.250000000000000,  0.750000000000000 ]
  mass: 12.010700
- symbol: C  # 4
  coordinates: [  0.000000000000000,  0.500000000000000,  0.000000000000000 ]
  mass: 12.010700
- symbol: C  # 5
  coordinates: [  0.750000000000000,  0.750000000000000,  0.750000000000000 ]
  mass: 12.010700
- symbol: C  # 6
  coordinates: [  0.500000000000000,  0.000000000000000,  0.000000000000000 ]
  mass: 12.010700
- symbol: C  # 7
  coordinates: [  0.750000000000000,  0.250000000000000,  0.250000000000000 ]
  mass: 12.010700
- symbol: C  # 8
  coordinates: [  0.500000000000000,  0.500000000000000,  0.500000000000000 ]
  mass: 12.010700

phonon:
- q-position: [    0.0104167,    0.0104167,    0.0104167 ]
  distance_from_gamma:  0.005025682
  weight: 8    
  band:
  - # 1
    frequency:     0.5865778559
  - # 2
    frequency:     0.5865778559
  - # 3
    frequency:     0.8974749790
  - # 4
    frequency:    23.2628694899
  - # 5
    frequency:    23.2628694899
  - # 6
    frequency:    23.2628694899
  - # 7
    frequency:    23.2758712312
  - # 8
    frequency:    23.2758712312
  - # 9
    frequency:    23.2758712312
  - # 10
    frequency:    31.0464891522
  - # 11
    frequency:    31.0464891522
  - # 12
    frequency:    31.0464891522
  - # 13
    frequency:    31.0513536459
  - # 14
    frequency:    31.0513536459
  - # 15
    frequency:    31.0513536459
  - # 16
    frequency:    35.0568850845
  - # 17
    frequency:    35.0568850845
  - # 18
    frequency:    35.0568850845
  - # 19
    frequency:    35.3858766144
  - # 20
    frequency:    35.3858766144
  - # 21
    frequency:    35.3858766144
  - # 22
    frequency:    38.1897130699
  - # 23
    frequency:    38.1897130699
  - # 24
    frequency:    38.1937413791

- q-position: [    0.0312500,    0.0104167,    0.0104167 ]
  distance_from_gamma:  0.009623449
  weight: 24   
  band:
  - # 1
    frequency:     1.1363351535
  - # 2
    frequency:     1.1562680010
  - # 3
    frequency:     1.6865622808
  - # 4
    frequency:    23.2269569080
  - # 5
    frequency:    23.2399498711
  - # 6
    frequency:    23.2716061287
  - # 7
    frequency:    23.2716061287
  - # 8
    frequency:    23.3105484543
  - # 9
    frequency:    23.3105484543
  - # 10
    frequency:    31.0355213747
  - # 11
    frequency:    31.0355213747
  - # 12
    frequency:    31.0501198643
  - # 13
    frequency:    31.0501198643
  - # 14
    frequency:    31.0718064178
  - # 15
    frequency:    31.0768341129
  - # 16
    frequency:    34.7105356633
  - # 17
    frequency:    35.0451194842
  - # 18
    frequency:    35.0451194842
  - # 19
    frequency:    35.3736156833
  - # 20
    frequency:    35.3736156833
  - # 21
    frequency:    35.6972963120
  - # 22
    frequency:    38.1781890545
  - # 23
    frequency:    38.1789263364
  - # 24
    frequency:    38.1975020846

- q-position: [    0.0520833,    0.0104167,    0.0104167 ]
  distance_from_gamma:  0.015077047
  weight: 24   
  band:
  - # 1
    frequency:     1.8064648249
  - # 2
    frequency:     1.8219232846
  - # 3
    frequency:     2.6142462174
  - # 4
    frequency:    23.1556624717
  - # 5
    frequency:    23.1686381206
  - # 6
    frequency:    23.3019668236
  - # 7
    frequency:    23.3019668236
  - # 8
    frequency:    23.3666636846
  - # 9
    frequency:    23.3666636846
  - # 10
    frequency:    31.0183568632
  - # 11
    frequency:    31.0183568632
  - # 12
    frequency:    31.0427141932
  - # 13
    frequency:    31.0427141932
  - # 14
    frequency:    31.1218316278
  - # 15
    frequency:    31.1272166122
  - # 16
    frequency:    34.3464602526
  - # 17
    frequency:    35.0217840779
  - # 18
    frequency:    35.0217840779
  - # 19
    frequency:    35.3492716402
  - # 20
    frequency:    35.3492716402
  - # 21
    frequency:    35.9915721253
  - # 22
    frequency:    38.1551654873
  - # 23
    frequency:    38.1560011828
  - # 24
    frequency:    38.2063371759

- q-position: [    0.0729167,    0.0104167,    0.0104167 ]
  distance_from_gamma:  0.020721419
  weight: 24   
  band:
  - # 1
    frequency:     2.4956985769
  - # 2
    frequency:     2.5069500384
  - # 3
    frequency:     3.5756765915
  - # 4
    frequency:    23.0499889509
  - # 5
    frequency:    23.0629391092
  - # 6
    frequency:    23.3536613754
  - # 7
    frequency:    23.3536613754
  - # 8
    frequency:    23.4438073447
  - # 9
    frequency:    23.4438073447
  - # 10
    frequency:    30.9948227288
  - # 11
    frequency:    30.9948227288
  - # 12
    frequency:    31.0289751991
  - # 13
    frequency:    31.0289751991
  - # 14
    frequency:    31.1953899272
  - # 15
    frequency:    31.2014037116
  - # 16
    frequency:    33.9646097818
  - # 17
    frequency:    34.9872705269
  - # 18
    frequency:    34.9872705269
  - # 19
    frequency:    35.3132005827
  - # 20
    frequency:    35.3132005827
  - # 21
    frequency:    36.2688888440
  - # 22
    frequency:    38.1206913558
  - # 23
    frequency:    38.1215578435
  - # 24
    frequency:    38.2195510531

- q-position: [    0.0937500,    0.0104167,    0.0104167 ]
  distance_from_gamma:  0.026434643
  weight: 24   
  band:
  - # 1
    frequency:     3.1891845990
  - # 2
    frequency:     3.1973785540
  - # 3
    frequency:     4.5477974943
  - # 4
    frequency:    22.9113078578
  - # 5
    frequency:    22.9242246310
  - # 6
    frequency:    23.4262256849
  - # 7
    frequency:    23.4262256849
  - # 8
    frequency:    23.5414030697
  - # 9
    frequency:    23.5414030697
  - # 10
    frequency:    30.9646655055
  - # 11
    frequency:    30.9646655055
  - # 12
    frequency:    31.0086550697
  - # 13
    frequency:    31.0086550697
  - # 14
    frequency:    31.2907967757
  - # 15
    frequency:    31.2978837671
  - # 16
    frequency:    33.5650124108
  - # 17
    frequency:    34.9421661836
  - # 18
    frequency:    34.9421661836
  - # 19
    frequency:    35.2659375818
  - # 20
    frequency:    35.2659375818
  - # 21
    frequency:    36.5294795177
  - # 22
    frequency:    38.0748402903
  - # 23
    frequency:    38.0757229142
  - # 24
    frequency:    38.2369056746

- q-position: [    0.1145833,    0.0104167,    0.0104167 ]
  distance_from_gamma:  0.032180068
  weight: 24   
  band:
  - # 1
    frequency:     3.8827395478
  - # 2
    frequency:     3.8886413602
  - # 3
    frequency:     5.5225292805
  - # 4
    frequency:    22.7412340477
  - # 5
    frequency:    22.7541095494
  - # 6
    frequency:    23.5190254861
  - # 7
    frequency:    23.5190254861
  - # 8
    frequency:    23.6587140335
  - # 9
    frequency:    23.6587140335
  - # 10
    frequency:    30.9275540024
  - # 11
    frequency:    30.9275540024
  - # 12
    frequency:    30.9814189853
  - # 13
    frequency:    30.9814189853
  - # 14
    frequency:    31.4058289690
  - # 15
    frequency:    31.4148585062
  - # 16
    frequency:    33.1479586782
  - # 17
    frequency:    34.8872530006
  - # 18
    frequency:    34.8872530006
  - # 19
    frequency:    35.2081971421
  - # 20
    frequency:    35.2081971421
  - # 21
    frequency:    36.7735977835
  - # 22
    frequency:    38.0177107376
  - # 23
    frequency:    38.0186050850
  - # 24
    frequency:    38.2581467139

- q-position: [    0.1354167,    0.0104167,    0.0104167 ]
  distance_from_gamma:  0.037943069
  weight: 24   
  band:
  - # 1
    frequency:     4.5744774333
  - # 2
    frequency:     4.5785717214
  - # 3
    frequency:     6.4960185583
  - # 4
    frequency:    22.5415012148
  - # 5
    frequency:    22.5543271616
  - # 6
    frequency:    23.6312609876
  - # 7
    frequency:    23.6312609876
  - # 8
    frequency:    23.7948500954
  - # 9
    frequency:    23.7948500954
  - # 10
    frequency:    30.8830842645
  - # 11
    frequency:    30.8830842645
  - # 12
    frequency:    30.9468465686
  - # 13
    frequency:    30.9468465686
  - # 14
    frequency:    31.5371998193
  - # 15
    frequency:    31.5503703624
  - # 16
    frequency:    32.7146571256
  - # 17
    frequency:    34.8235044848
  - # 18
    frequency:    34.8235044848
  - # 19
    frequency:    35.1408726832
  - # 20
    frequency:    35.1408726832
  - # 21
    frequency:    37.0015154648
  - # 22
    frequency:    37.9494261845
  - # 23
    frequency:    37.9503308481
  - # 24
    frequency:    38.2829703124

- q-position: [    0.1562500,    0.0104167,    0.0104167 ]
  distance_from_gamma:  0.043716695
  weight: 24   
  band:
  - # 1
    frequency:     5.2632317507
  - # 2
    frequency:     5.2658366506
  - # 3
    frequency:     7.4659588368
  - # 4
    frequency:    22.3138554609
  - # 5
    frequency:    22.3266227247
  - # 6
    frequency:    23.7619717360
  - # 7
    frequency:    23.7619717360
  - # 8
    frequency:    23.9487750590
  - # 9
    frequency:    23.9487750590
  - # 10
    frequency:    30.8307885113
  - # 11
    frequency:    30.8307885113
  - # 12
    frequency:    30.9044367480
  - # 13
    frequency:    30.9044367480
  - # 14
    frequency:    31.6759043966
  - # 15
    frequency:    31.7024123185
  - # 16
    frequency:    32.2720004518
  - # 17
    frequency:    34.7520792600
  - # 18
    frequency:    34.7520792600
  - # 19
    frequency:    35.0650339849
  - # 20
    frequency:    35.0650339849
  - # 21
    frequency:    37.2135221985
  - # 22
    frequency:    37.8701354242
  - # 23
    frequency:    37.8710500887
  - # 24
    frequency:    38.3110204760

- q-position: [    0.1770833,    0.0104167,    0.0104167 ]
  distance_from_gamma:  0.049497229
  weight: 24   
  band:
  - # 1
    frequency:     5.9481207972
  - # 2
    frequency:     5.9494549122
  - # 3
    frequency:     8.4307210372
  - # 4
    frequency:    22.0599757630
  - # 5
    frequency:    22.0726739641
  - # 6
    frequency:    23.9100407869
  - # 7
    frequency:    23.9100407869
  - # 8
    frequency:    24.1193131833
  - # 9
    frequency:    24.1193131833
  - # 10
    frequency:    30.7701502188
  - # 11
    frequency:    30.7701502188
  - # 12
    frequency:    30.8536180740
  - # 13
    frequency:    30.8536180740
  - # 14
    frequency:    31.6882892153
  - # 15
    frequency:    31.8690113539
  - # 16
    frequency:    31.9515803866
  - # 17
    frequency:    34.6743094406
  - # 18
    frequency:    34.6743094406
  - # 19
    frequency:    34.9819212224
  - # 20
    frequency:    34.9819212224
  - # 21
    frequency:    37.4099255956
  - # 22
    frequency:    37.7800128583
  - # 23
    frequency:    37.7809376495
  - # 24
    frequency:    38.3418909668

- q-position: [    0.1979167,    0.0104167,    0.0104167 ]
  distance_from_gamma:  0.055282504
  weight: 24   
  band:
  - # 1
    frequency:     6.6283953468
  - # 2
    frequency:     6.6286155006
  - # 3
    frequency:     9.3890164749
  - # 4
    frequency:    21.7814226920
  - # 5
    frequency:    21.7940398892
  - # 6
    frequency:    24.0741970019
  - # 7
    frequency:    24.0741970019
  - # 8
    frequency:    24.3051538761
  - # 9
    frequency:    24.3051538761
  - # 10
    frequency:    30.7006279683
  - # 11
    frequency:    30.7006279683
  - # 12
    frequency:    30.7937670238
  - # 13
    frequency:    30.7937670238
  - # 14
    frequency:    31.2587806967
  - # 15
    frequency:    32.0482840609
  - # 16
    frequency:    32.0670158227
  - # 17
    frequency:    34.5916817880
  - # 18
    frequency:    34.5916817880
  - # 19
    frequency:    34.8929339526
  - # 20
    frequency:    34.8929339526
  - # 21
    frequency:    37.5910516327
  - # 22
    frequency:    37.6792588236
  - # 23
    frequency:    37.6801940548
  - # 24
    frequency:    38.3751284426

- q-position: [    0.2187500,    0.0104167,    0.0104167 ]
  distance_from_gamma:  0.061071173
  weight: 24   
  band:
  - # 1
    frequency:     7.3025990388
  - # 2
    frequency:     7.3033758879
  - # 3
    frequency:    10.3397486454
  - # 4
    frequency:    21.4796118324
  - # 5
    frequency:    21.4921343351
  - # 6
    frequency:    24.2530139469
  - # 7
    frequency:    24.2530139469
  - # 8
    frequency:    24.5048532005
  - # 9
    frequency:    24.5048532005
  - # 10
    frequency:    30.6216910215
  - # 11
    frequency:    30.6216910215
  - # 12
    frequency:    30.7242372102
  - # 13
    frequency:    30.7242372102
  - # 14
    frequency:    30.7554984101
  - # 15
    frequency:    32.2384678863
  - # 16
    frequency:    32.2483717697
  - # 17
    frequency:    34.5058097011
  - # 18
    frequency:    34.5058097011
  - # 19
    frequency:    34.7996133099
  - # 20
    frequency:    34.7996133099
  - # 21
    frequency:    37.5680999352
  - # 22
    frequency:    37.5690460065
  - # 23
    frequency:    37.7572451634
  - # 24
    frequency:    38.4102361609

- q-position: [    0.2395833,    0.0104167,    0.0104167 ]
  distance_from_gamma:  0.066862353
  weight: 24   
  band:
  - # 1
    frequency:     7.9707401325
  - # 2
    frequency:     7.9724236492
  - # 3
    frequency:    11.2819417208
  - # 4
    frequency:    21.1558061619
  - # 5
    frequency:    21.1682184638
  - # 6
    frequency:    24.4449033438
  - # 7
    frequency:    24.4449033438
  - # 8
    frequency:    24.7168303586
  - # 9
    frequency:    24.7168303586
  - # 10
    frequency:    30.2278837065
  - # 11
    frequency:    30.5328697048
  - # 12
    frequency:    30.5328697048
  - # 13
    frequency:    30.6444025535
  - # 14
    frequency:    30.6444025535
  - # 15
    frequency:    32.4379336482
  - # 16
    frequency:    32.4445442225
  - # 17
    frequency:    34.4183946610
  - # 18
    frequency:    34.4183946610
  - # 19
    frequency:    34.7036158829
  - # 20
    frequency:    34.7036158829
  - # 21
    frequency:    37.4467894344
  - # 22
    frequency:    37.4477468026
  - # 23
    frequency:    37.9088704899
  - # 24
    frequency:    38.4466780253

- q-position: [    0.2604167,    0.0104167,    0.0104167 ]
  distance_from_gamma:  0.072655445
  weight: 24   
  band:
  - # 1
    frequency:     8.6324079530
  - # 2
    frequency:     8.6349261021
  - # 3
    frequency:    12.2147036018
  - # 4
    frequency:    20.8111214186
  - # 5
    frequency:    20.8234062357
  - # 6
    frequency:    24.6481002310
  - # 7
    frequency:    24.6481002310
  - # 8
    frequency:    24.9393565578
  - # 9
    frequency:    24.9393565578
  - # 10
    frequency:    29.6798676770
  - # 11
    frequency:    30.4338235566
  - # 12
    frequency:    30.4338235566
  - # 13
    frequency:    30.5537173434
  - # 14
    frequency:    30.5537173434
  - # 15
    frequency:    32.6451852058
  - # 16
    frequency:    32.6500929114
  - # 17
    frequency:    34.3311769907
  - # 18
    frequency:    34.3311769907
  - # 19
    frequency:    34.6066784457
  - # 20
    frequency:    34.6066784457
  - # 21
    frequency:    37.3156075303
  - # 22
    frequency:    37.3165767189
  - # 23
    frequency:    38.0463119507
  - # 24
    frequency:    38.4838828579

- q-position: [    0.2812500,    0.0104167,    0.0104167 ]
  distance_from_gamma:  0.078450025
  weight: 24   
  band:
  - # 1
    frequency:     9.2869956732
  - # 2
    frequency:     9.2902892971
  - # 3
    frequency:    13.1372058351
  - # 4
    frequency:    20.4465393290
  - # 5
    frequency:    20.4586777185
  - # 6
    frequency:    24.8606357087
  - # 7
    frequency:    24.8606357087
  - # 8
    frequency:    25.1705323741
  - # 9
    frequency:    25.1705323741
  - # 10
    frequency:    29.1123793216
  - # 11
    frequency:    30.3244299704
  - # 12
    frequency:    30.3244299704
  - # 13
    frequency:    30.4517958218
  - # 14
    frequency:    30.4517958218
  - # 15
    frequency:    32.8588513204
  - # 16
    frequency:    32.8627260918
  - # 17
    frequency:    34.2458776968
  - # 18
    frequency:    34.2458776968
  - # 19
    frequency:    34.5105740095
  - # 20
    frequency:    34.5105740095
  - # 21
    frequency:    37.1748617256
  - # 22
    frequency:    37.1758433611
  - # 23
    frequency:    38.1699744902
  - # 24
    frequency:    38.5212488174

- q-position: [    0.3020833,    0.0104167,    0.0104167 ]
  distance_from_gamma:  0.084245785
  weight: 24   
  band:
  - # 1
    frequency:     9.9339145097
  - # 2
    frequency:     9.9379336817
  - # 3
    frequency:    14.0486722964
  - # 4
    frequency:    20.0629247977
  - # 5
    frequency:    20.0748963303
  - # 6
    frequency:    25.0802910950
  - # 7
    frequency:    25.0802910950
  - # 8
    frequency:    25.4082475303
  - # 9
    frequency:    25.4082475303
  - # 10
    frequency:    28.5257752496
  - # 11
    frequency:    30.2048962868
  - # 12
    frequency:    30.2048962868
  - # 13
    frequency:    30.3385139541
  - # 14
    frequency:    30.3385139541
  - # 15
    frequency:    33.0776735211
  - # 16
    frequency:    33.0808598611
  - # 17
    frequency:    34.1641354602
  - # 18
    frequency:    34.1641354602
  - # 19
    frequency:    34.4170614890
  - # 20
    frequency:    34.4170614890
  - # 21
    frequency:    37.0248871165
  - # 22
    frequency:    37.0258819851
  - # 23
    frequency:    38.2802841783
  - # 24
    frequency:    38.5581478898

- q-position: [    0.3229167,    0.0104167,    0.0104167 ]
  distance_from_gamma:  0.090042499
  weight: 24   
  band:
  - # 1
    frequency:    10.5725902931
  - # 2
    frequency:    10.5772917959
  - # 3
    frequency:    14.9483726521
  - # 4
    frequency:    19.6610443553
  - # 5
    frequency:    19.6728273190
  - # 6
    frequency:    25.3045240649
  - # 7
    frequency:    25.3045240649
  - # 8
    frequency:    25.6501132086
  - # 9
    frequency:    25.6501132086
  - # 10
    frequency:    27.9202543075
  - # 11
    frequency:    30.0758999330
  - # 12
    frequency:    30.0758999330
  - # 13
    frequency:    30.2141374993
  - # 14
    frequency:    30.2141374993
  - # 15
    frequency:    33.3004926026
  - # 16
    frequency:    33.3031912188
  - # 17
    frequency:    34.0874449096
  - # 18
    frequency:    34.0874449096
  - # 19
    frequency:    34.3278332988
  - # 20
    frequency:    34.3278332988
  - # 21
    frequency:    36.8660466593
  - # 22
    frequency:    36.8670557827
  - # 23
    frequency:    38.3776886505
  - # 24
    frequency:    38.5939303907

- q-position: [    0.3437500,    0.0104167,    0.0104167 ]
  distance_from_gamma:  0.095839993
  weight: 24   
  band:
  - # 1
    frequency:    11.2024614832
  - # 2
    frequency:    11.2078070209
  - # 3
    frequency:    15.8356185231
  - # 4
    frequency:    19.2415841488
  - # 5
    frequency:    19.2531557636
  - # 6
    frequency:    25.5303523648
  - # 7
    frequency:    25.5303523648
  - # 8
    frequency:    25.8933505140
  - # 9
    frequency:    25.8933505140
  - # 10
    frequency:    27.2959698689
  - # 11
    frequency:    29.9387656175
  - # 12
    frequency:    29.9387656175
  - # 13
    frequency:    30.0794850376
  - # 14
    frequency:    30.0794850376
  - # 15
    frequency:    33.5262354010
  - # 16
    frequency:    33.5285737674
  - # 17
    frequency:    34.0171033586
  - # 18
    frequency:    34.0171033586
  - # 19
    frequency:    34.2444667905
  - # 20
    frequency:    34.2444667905
  - # 21
    frequency:    36.6987313971
  - # 22
    frequency:    36.6997561262
  - # 23
    frequency:    38.4626574393
  - # 24
    frequency:    38.6279294189

- q-position: [    0.3645833,    0.0104167,    0.0104167 ]
  distance_from_gamma:  0.101638133
  weight: 24   
  band:
  - # 1
    frequency:    11.8229780207
  - # 2
    frequency:    11.8289329252
  - # 3
    frequency:    16.7097612079
  - # 4
    frequency:    18.8051664913
  - # 5
    frequency:    18.8165031197
  - # 6
    frequency:    25.7541737790
  - # 7
    frequency:    25.7541737790
  - # 8
    frequency:    26.1346078161
  - # 9
    frequency:    26.1346078161
  - # 10
    frequency:    26.6530696049
  - # 11
    frequency:    29.7956967270
  - # 12
    frequency:    29.7956967270
  - # 13
    frequency:    29.9361445619
  - # 14
    frequency:    29.9361445619
  - # 15
    frequency:    33.7539027734
  - # 16
    frequency:    33.7559671398
  - # 17
    frequency:    33.9541726103
  - # 18
    frequency:    33.9541726103
  - # 19
    frequency:    34.1683858306
  - # 20
    frequency:    34.1683858306
  - # 21
    frequency:    36.5233606468
  - # 22
    frequency:    36.5244027742
  - # 23
    frequency:    38.5356821711
  - # 24
    frequency:    38.6594652089

- q-position: [    0.3854167,    0.0104167,    0.0104167 ]
  distance_from_gamma:  0.107436815
  weight: 24   
  band:
  - # 1
    frequency:    12.4336006571
  - # 2
    frequency:    12.4401329343
  - # 3
    frequency:    17.5701903127
  - # 4
    frequency:    18.3523644941
  - # 5
    frequency:    18.3634418358
  - # 6
    frequency:    25.9714938931
  - # 7
    frequency:    25.9714938931
  - # 8
    frequency:    25.9917125084
  - # 9
    frequency:    26.3696629274
  - # 10
    frequency:    26.3696629274
  - # 11
    frequency:    29.6500883158
  - # 12
    frequency:    29.6500883158
  - # 13
    frequency:    29.7867795521
  - # 14
    frequency:    29.7867795521
  - # 15
    frequency:    33.8994602788
  - # 16
    frequency:    33.8994602788
  - # 17
    frequency:    33.9825592093
  - # 18
    frequency:    33.9844107932
  - # 19
    frequency:    34.1008373988
  - # 20
    frequency:    34.1008373988
  - # 21
    frequency:    36.3403821472
  - # 22
    frequency:    36.3414440405
  - # 23
    frequency:    38.5972766005
  - # 24
    frequency:    38.6878493349

- q-position: [    0.4062500,    0.0104167,    0.0104167 ]
  distance_from_gamma:  0.113235955
  weight: 24   
  band:
  - # 1
    frequency:    13.0338005280
  - # 2
    frequency:    13.0408801450
  - # 3
    frequency:    17.8837146277
  - # 4
    frequency:    17.8945078898
  - # 5
    frequency:    18.4163328984
  - # 6
    frequency:    25.3120773775
  - # 7
    frequency:    26.1765349102
  - # 8
    frequency:    26.1765349102
  - # 9
    frequency:    26.5929464897
  - # 10
    frequency:    26.5929464897
  - # 11
    frequency:    29.5069503725
  - # 12
    frequency:    29.5069503725
  - # 13
    frequency:    29.6355833370
  - # 14
    frequency:    29.6355833370
  - # 15
    frequency:    33.8535221926
  - # 16
    frequency:    33.8535221926
  - # 17
    frequency:    34.0428847149
  - # 18
    frequency:    34.0428847149
  - # 19
    frequency:    34.2113241886
  - # 20
    frequency:    34.2130080583
  - # 21
    frequency:    36.1502721780
  - # 22
    frequency:    36.1513569355
  - # 23
    frequency:    38.6479764570
  - # 24
    frequency:    38.7123887239

- q-position: [    0.4270833,    0.0104167,    0.0104167 ]
  distance_from_gamma:  0.119035487
  weight: 24   
  band:
  - # 1
    frequency:    13.6230588060
  - # 2
    frequency:    13.6306571531
  - # 3
    frequency:    17.3997272581
  - # 4
    frequency:    17.4102112957
  - # 5
    frequency:    19.2476529082
  - # 6
    frequency:    24.6143676334
  - # 7
    frequency:    26.3617403279
  - # 8
    frequency:    26.3617403279
  - # 9
    frequency:    26.7968266598
  - # 10
    frequency:    26.7968266598
  - # 11
    frequency:    29.3734219559
  - # 12
    frequency:    29.3734219559
  - # 13
    frequency:    29.4889505069
  - # 14
    frequency:    29.4889505069
  - # 15
    frequency:    33.8166851353
  - # 16
    frequency:    33.8166851353
  - # 17
    frequency:    33.9954136065
  - # 18
    frequency:    33.9954136065
  - # 19
    frequency:    34.4393652126
  - # 20
    frequency:    34.4409154814
  - # 21
    frequency:    35.9535356660
  - # 22
    frequency:    35.9546473007
  - # 23
    frequency:    38.6883390804
  - # 24
    frequency:    38.7323894430

- q-position: [    0.4479167,    0.0104167,    0.0104167 ]
  distance_from_gamma:  0.124835356
  weight: 24   
  band:
  - # 1
    frequency:    14.2008663007
  - # 2
    frequency:    14.2089557841
  - # 3
    frequency:    16.9008953106
  - # 4
    frequency:    16.9110447331
  - # 5
    frequency:    20.0636507229
  - # 6
    frequency:    23.8988143808
  - # 7
    frequency:    26.5173508396
  - # 8
    frequency:    26.5173508396
  - # 9
    frequency:    26.9707294147
  - # 10
    frequency:    26.9707294147
  - # 11
    frequency:    29.2591415402
  - # 12
    frequency:    29.2591415402
  - # 13
    frequency:    29.3563604752
  - # 14
    frequency:    29.3563604752
  - # 15
    frequency:    33.7890882205
  - # 16
    frequency:    33.7890882205
  - # 17
    frequency:    33.9591439300
  - # 18
    frequency:    33.9591439300
  - # 19
    frequency:    34.6658923380
  - # 20
    frequency:    34.6673353647
  - # 21
    frequency:    35.7507063042
  - # 22
    frequency:    35.7518499618
  - # 23
    frequency:    38.7189428211
  - # 24
    frequency:    38.7471602311

- q-position: [    0.4687500,    0.0104167,    0.0104167 ]
  distance_from_gamma:  0.130635518
  weight: 24   
  band:
  - # 1
    frequency:    14.7667228907
  - # 2
    frequency:    14.7752766253
  - # 3
    frequency:    16.3877012666
  - # 4
    frequency:    16.3974905074
  - # 5
    frequency:    20.8638627486
  - # 6
    frequency:    23.1656785373
  - # 7
    frequency:    26.6316189342
  - # 8
    frequency:    26.6316189342
  - # 9
    frequency:    27.1007162222
  - # 10
    frequency:    27.1007162222
  - # 11
    frequency:    29.1756068874
  - # 12
    frequency:    29.1756068874
  - # 13
    frequency:    29.2511639321
  - # 14
    frequency:    29.2511639321
  - # 15
    frequency:    33.7707406482
  - # 16
    frequency:    33.7707406482
  - # 17
    frequency:    33.9346352395
  - # 18
    frequency:    33.9346352395
  - # 19
    frequency:    34.8901539994
  - # 20
    frequency:    34.8915104509
  - # 21
    frequency:    35.5423467216
  - # 22
    frequency:    35.5435289424
  - # 23
    frequency:    38.7403861867
  - # 24
    frequency:    38.7560157522

- q-position: [    0.4895833,    0.0104167,    0.0104167 ]
  distance_from_gamma:  0.136435934
  weight: 24   
  band:
  - # 1
    frequency:    15.3201366734
  - # 2
    frequency:    15.3291282559
  - # 3
    frequency:    15.8606227146
  - # 4
    frequency:    15.8700260611
  - # 5
    frequency:    21.6478609690
  - # 6
    frequency:    22.4152524182
  - # 7
    frequency:    26.6927010327
  - # 8
    frequency:    26.6927010327
  - # 9
    frequency:    27.1712939025
  - # 10
    frequency:    27.1712939025
  - # 11
    frequency:    29.1325837786
  - # 12
    frequency:    29.1325837786
  - # 13
    frequency:    29.1904126430
  - # 14
    frequency:    29.1904126430
  - # 15
    frequency:    33.7615903988
  - # 16
    frequency:    33.7615903988
  - # 17
    frequency:    33.9222788906
  - # 18
    frequency:    33.9222788906
  - # 19
    frequency:    35.1114338993
  - # 20
    frequency:    35.1127201358
  - # 21
    frequency:    35.3290487563
  - # 22
    frequency:    35.3302777967
  - # 23
    frequency:    38.7532867138
  - # 24
    frequency:    38.7582795531

- q-position: [    0.0312500,    0.0312500,    0.0104167 ]
  distance_from_gamma:  0.012647690
  weight: 24   
  band:
  - # 1
    frequency:     1.4486634671
  - # 2
    frequency:     1.5224163849
  - # 3
    frequency:     2.2420267663
  - # 4
    frequency:    23.2356367793
  - # 5
    frequency:    23.2356367793
  - # 6
    frequency:    23.2542980948
  - # 7
    frequency:    23.2745762250
  - # 8
    frequency:    23.2745762250
  - # 9
    frequency:    23.3709193806
  - # 10
    frequency:    31.0149929707
  - # 11
    frequency:    31.0586401763
  - # 12
    frequency:    31.0602621467
  - # 13
    frequency:    31.0602621467
  - # 14
    frequency:    31.0755818020
  - # 15
    frequency:    31.0755818020
  - # 16
    frequency:    34.7012687578
  - # 17
    frequency:    34.7012687578
  - # 18
    frequency:    35.0287496201
  - # 19
    frequency:    35.3658495259
  - # 20
    frequency:    35.6833416076
  - # 21
    frequency:    35.6833416076
  - # 22
    frequency:    38.1669898181
  - # 23
    frequency:    38.1719514717
  - # 24
    frequency:    38.1971652356

- q-position: [    0.0520833,    0.0312500,    0.0104167 ]
  distance_from_gamma:  0.017165973
  weight: 48   
  band:
  - # 1
    frequency:     1.9863148518
  - # 2
    frequency:     2.0740053324
  - # 3
    frequency:     3.0204246169
  - # 4
    frequency:    23.1642328975
  - # 5
    frequency:    23.2031673393
  - # 6
    frequency:    23.2586389390
  - # 7
    frequency:    23.2658452161
  - # 8
    frequency:    23.3306271679
  - # 9
    frequency:    23.4523584648
  - # 10
    frequency:    30.9884522598
  - # 11
    frequency:    31.0418356933
  - # 12
    frequency:    31.0609944130
  - # 13
    frequency:    31.0682487751
  - # 14
    frequency:    31.1090051345
  - # 15
    frequency:    31.1259285456
  - # 16
    frequency:    34.3400427064
  - # 17
    frequency:    34.6829479400
  - # 18
    frequency:    34.9965950258
  - # 19
    frequency:    35.3501080470
  - # 20
    frequency:    35.6555925598
  - # 21
    frequency:    35.9764978779
  - # 22
    frequency:    38.1441627855
  - # 23
    frequency:    38.1513497094
  - # 24
    frequency:    38.2035584802

- q-position: [    0.0729167,    0.0312500,    0.0104167 ]
  distance_from_gamma:  0.022287451
  weight: 48   
  band: