  64  64   0   0
  0.5769264E+01  0.7179999E-09  0.7179999E-09  0.7179999E-09  0.5000000E-15
  1.000000000000000E-004
  CAR 
 unknown system                          
     22.82338876    -13.40317088  301      9.91012969      1.00000000
    -13.403  0.0000E+00  0.0000E+00
    -13.282  0.0000E+00  0.0000E+00
    -13.162  0.0000E+00  0.0000E+00
    -13.041  0.0000E+00  0.0000E+00
    -12.920  0.0000E+00  0.0000E+00
    -12.799  0.0000E+00  0.0000E+00
    -12.679  0.0000E+00  0.0000E+00
    -12.558  0.0000E+00  0.0000E+00
    -12.437  0.0000E+00  0.0000E+00
    -12.316  0.0000E+00  0.0000E+00
    -12.196  0.0000E+00  0.0000E+00
    -12.075  0.2379E-14  0.2873E-15
    -11.954  0.1229E-06  0.1484E-07
    -11.833  0.2907E-02  0.3510E-03
    -11.713  0.2355E+00  0.2879E-01
    -11.592  0.1223E+01  0.1764E+00
    -11.471  0.1430E+01  0.3492E+00
    -11.350  0.2784E+01  0.6854E+00
    -11.230  0.1620E+01  0.8810E+00
    -11.109  0.3481E+01  0.1301E+01
    -10.988  0.2955E+01  0.1658E+01
    -10.867  0.3687E+01  0.2103E+01
    -10.747  0.2537E+01  0.2410E+01
    -10.626  0.4538E+01  0.2958E+01
    -10.505  0.4399E+01  0.3489E+01
    -10.384  0.4718E+01  0.4059E+01
    -10.264  0.2857E+01  0.4404E+01
    -10.143  0.4616E+01  0.4961E+01
    -10.022  0.6097E+01  0.5697E+01
     -9.901  0.5569E+01  0.6370E+01
     -9.781  0.4270E+01  0.6886E+01
     -9.660  0.5457E+01  0.7545E+01
     -9.539  0.4671E+01  0.8109E+01
     -9.418  0.6348E+01  0.8875E+01
     -9.297  0.5982E+01  0.9597E+01
     -9.177  0.6861E+01  0.1043E+02
     -9.056  0.6593E+01  0.1122E+02
     -8.935  0.5824E+01  0.1193E+02
     -8.814  0.4818E+01  0.1251E+02
     -8.694  0.7625E+01  0.1343E+02
     -8.573  0.6591E+01  0.1422E+02
     -8.452  0.7432E+01  0.1512E+02
     -8.331  0.8691E+01  0.1617E+02
     -8.211  0.7303E+01  0.1705E+02
     -8.090  0.6728E+01  0.1786E+02
     -7.969  0.6489E+01  0.1865E+02
     -7.848  0.7114E+01  0.1951E+02
     -7.728  0.7754E+01  0.2044E+02
     -7.607  0.1088E+02  0.2176E+02
     -7.486  0.7127E+01  0.2262E+02
     -7.365  0.9881E+01  0.2381E+02
     -7.245  0.9071E+01  0.2491E+02
     -7.124  0.7146E+01  0.2577E+02
     -7.003  0.9625E+01  0.2693E+02
     -6.882  0.7766E+01  0.2787E+02
     -6.762  0.9416E+01  0.2901E+02
     -6.641  0.1142E+02  0.3039E+02
     -6.520  0.1089E+02  0.3170E+02
     -6.399  0.1146E+02  0.3309E+02
     -6.279  0.1197E+02  0.3453E+02
     -6.158  0.1043E+02  0.3579E+02
     -6.037  0.1284E+02  0.3734E+02
     -5.916  0.1303E+02  0.3891E+02
     -5.796  0.6462E+01  0.3969E+02
     -5.675  0.9201E+01  0.4081E+02
     -5.554  0.1400E+02  0.4250E+02
     -5.433  0.1290E+02  0.4405E+02
     -5.313  0.1084E+02  0.4536E+02
     -5.192  0.1091E+02  0.4668E+02
     -5.071  0.8155E+01  0.4766E+02
     -4.950  0.1216E+02  0.4913E+02
     -4.830  0.9016E+01  0.5022E+02
     -4.709  0.1103E+02  0.5155E+02
     -4.588  0.6311E+01  0.5232E+02
     -4.467  0.5568E+01  0.5299E+02
     -4.347  0.1150E+02  0.5438E+02
     -4.226  0.8507E+01  0.5540E+02
     -4.105  0.1166E+02  0.5681E+02
     -3.984  0.9998E+01  0.5802E+02
     -3.864  0.6697E+01  0.5883E+02
     -3.743  0.6495E+01  0.5961E+02
     -3.622  0.4651E+01  0.6017E+02
     -3.501  0.6133E+01  0.6091E+02
     -3.380  0.7080E+01  0.6177E+02
     -3.260  0.1108E+02  0.6311E+02
     -3.139  0.9553E+01  0.6426E+02
     -3.018  0.7684E+01  0.6519E+02
     -2.897  0.8160E+01  0.6617E+02
     -2.777  0.9767E+01  0.6735E+02
     -2.656  0.7235E+01  0.6823E+02
     -2.535  0.8638E+01  0.6927E+02
     -2.414  0.8012E+01  0.7024E+02
     -2.294  0.1125E+02  0.7160E+02
     -2.173  0.1352E+02  0.7323E+02
     -2.052  0.1432E+02  0.7496E+02
     -1.931  0.1234E+02  0.7645E+02
     -1.811  0.1972E+02  0.7883E+02
     -1.690  0.2264E+02  0.8156E+02
     -1.569  0.1630E+02  0.8353E+02
     -1.448  0.1837E+02  0.8575E+02
     -1.328  0.1465E+02  0.8752E+02
     -1.207  0.1505E+02  0.8934E+02
     -1.086  0.1208E+02  0.9080E+02
     -0.965  0.9180E+01  0.9190E+02
     -0.845  0.1187E+02  0.9334E+02
     -0.724  0.9926E+01  0.9454E+02
     -0.603  0.1233E+02  0.9603E+02
     -0.482  0.1032E+02  0.9727E+02
     -0.362  0.1158E+02  0.9867E+02
     -0.241  0.9690E+01  0.9984E+02
     -0.120  0.8107E+01  0.1008E+03
      0.001  0.8320E+01  0.1018E+03
      0.121  0.7069E+01  0.1027E+03
      0.242  0.1073E+02  0.1040E+03
      0.363  0.7791E+01  0.1049E+03
      0.484  0.1333E+02  0.1065E+03
      0.604  0.8657E+01  0.1076E+03
      0.725  0.1346E+02  0.1092E+03
      0.846  0.1821E+02  0.1114E+03
      0.967  0.1719E+02  0.1135E+03
      1.087  0.1762E+02  0.1156E+03
      1.208  0.1850E+02  0.1178E+03
      1.329  0.1549E+02  0.1197E+03
      1.450  0.1332E+02  0.1213E+03
      1.570  0.1393E+02  0.1230E+03
      1.691  0.1766E+02  0.1251E+03
      1.812  0.1542E+02  0.1270E+03
      1.933  0.1835E+02  0.1292E+03
      2.053  0.2347E+02  0.1320E+03
      2.174  0.1655E+02  0.1340E+03
      2.295  0.1547E+02  0.1359E+03
      2.416  0.1521E+02  0.1377E+03
      2.537  0.1695E+02  0.1398E+03
      2.657  0.2110E+02  0.1423E+03
      2.778  0.1807E+02  0.1445E+03
      2.899  0.2281E+02  0.1473E+03
      3.020  0.2385E+02  0.1502E+03
      3.140  0.2496E+02  0.1532E+03
      3.261  0.2318E+02  0.1560E+03
      3.382  0.1764E+02  0.1581E+03
      3.503  0.1829E+02  0.1603E+03
      3.623  0.2203E+02  0.1630E+03
      3.744  0.2981E+02  0.1666E+03
      3.865  0.2671E+02  0.1698E+03
      3.986  0.2782E+02  0.1731E+03
      4.106  0.2082E+02  0.1757E+03
      4.227  0.2514E+02  0.1787E+03
      4.348  0.2164E+02  0.1813E+03
      4.469  0.2294E+02  0.1841E+03
      4.589  0.2620E+02  0.1872E+03
      4.710  0.2296E+02  0.1900E+03
      4.831  0.2518E+02  0.1931E+03
      4.952  0.2373E+02  0.1959E+03
      5.072  0.2201E+02  0.1986E+03
      5.193  0.2253E+02  0.2013E+03
      5.314  0.2008E+02  0.2037E+03
      5.435  0.2640E+02  0.2069E+03
      5.555  0.2149E+02  0.2095E+03
      5.676  0.2034E+02  0.2120E+03
      5.797  0.2317E+02  0.2148E+03
      5.918  0.2206E+02  0.2174E+03
      6.038  0.1849E+02  0.2197E+03
      6.159  0.2212E+02  0.2223E+03
      6.280  0.2434E+02  0.2253E+03
      6.401  0.1938E+02  0.2276E+03
      6.521  0.1744E+02  0.2297E+03
      6.642  0.1789E+02  0.2319E+03
      6.763  0.1723E+02  0.2340E+03
      6.884  0.1897E+02  0.2362E+03
      7.004  0.2261E+02  0.2390E+03
      7.125  0.1317E+02  0.2406E+03
      7.246  0.8877E+01  0.2416E+03
      7.367  0.1257E+02  0.2432E+03
      7.487  0.1233E+02  0.2446E+03
      7.608  0.1183E+02  0.2461E+03
      7.729  0.1132E+02  0.2474E+03
      7.850  0.6223E+01  0.2482E+03
      7.970  0.7909E+01  0.2491E+03
      8.091  0.6608E+01  0.2499E+03
      8.212  0.9128E+01  0.2510E+03
      8.333  0.6797E+01  0.2519E+03
      8.454  0.4469E+01  0.2524E+03
      8.574  0.4705E+01  0.2530E+03
      8.695  0.6591E+01  0.2538E+03
      8.816  0.3990E+01  0.2543E+03
      8.937  0.4054E+01  0.2547E+03
      9.057  0.1997E+01  0.2550E+03
      9.178  0.3421E+01  0.2554E+03
      9.299  0.3180E+01  0.2558E+03
      9.420  0.8602E+00  0.2559E+03
      9.540  0.7948E+00  0.2560E+03
      9.661  0.1442E+00  0.2560E+03
      9.782  0.1218E-02  0.2560E+03
      9.903  0.1106E-07  0.2560E+03
     10.023  0.3405E-16  0.2560E+03
     10.144  0.0000E+00  0.2560E+03
     10.265  0.0000E+00  0.2560E+03
     10.386  0.0000E+00  0.2560E+03
     10.506  0.0000E+00  0.2560E+03
     10.627  0.0000E+00  0.2560E+03
     10.748  0.0000E+00  0.2560E+03
     10.869  0.0000E+00  0.2560E+03
     10.989  0.0000E+00  0.2560E+03
     11.110  0.0000E+00  0.2560E+03
     11.231  0.0000E+00  0.2560E+03
     11.352  0.0000E+00  0.2560E+03
     11.472  0.0000E+00  0.2560E+03
     11.593  0.0000E+00  0.2560E+03
     11.714  0.0000E+00  0.2560E+03
     11.835  0.0000E+00  0.2560E+03
     11.955  0.0000E+00  0.2560E+03
     12.076  0.0000E+00  0.2560E+03
     12.197  0.0000E+00  0.2560E+03
     12.318  0.0000E+00  0.2560E+03
     12.438  0.0000E+00  0.2560E+03
     12.559  0.0000E+00  0.2560E+03
     12.680  0.0000E+00  0.2560E+03
     12.801  0.0000E+00  0.2560E+03
     12.921  0.0000E+00  0.2560E+03
     13.042  0.0000E+00  0.2560E+03
     13.163  0.5363E-09  0.2560E+03
     13.284  0.5037E-03  0.2560E+03
     13.404  0.3849E+00  0.2560E+03
     13.525  0.1537E+01  0.2562E+03
     13.646  0.2997E+01  0.2566E+03
     13.767  0.7180E+01  0.2575E+03
     13.888  0.3396E+01  0.2579E+03
     14.008  0.5444E+01  0.2585E+03
     14.129  0.6525E+01  0.2593E+03
     14.250  0.5378E+01  0.2600E+03
     14.371  0.6431E+01  0.2607E+03
     14.491  0.1166E+02  0.2622E+03
     14.612  0.9104E+01  0.2632E+03
     14.733  0.7614E+01  0.2642E+03
     14.854  0.1297E+02  0.2657E+03
     14.974  0.1229E+02  0.2672E+03
     15.095  0.1224E+02  0.2687E+03
     15.216  0.1094E+02  0.2700E+03
     15.337  0.1396E+02  0.2717E+03
     15.457  0.1463E+02  0.2735E+03
     15.578  0.1462E+02  0.2752E+03
     15.699  0.1112E+02  0.2766E+03
     15.820  0.1584E+02  0.2785E+03
     15.940  0.2490E+02  0.2815E+03
     16.061  0.2122E+02  0.2841E+03
     16.182  0.2020E+02  0.2865E+03
     16.303  0.1364E+02  0.2881E+03
     16.423  0.1774E+02  0.2903E+03
     16.544  0.1848E+02  0.2925E+03
     16.665  0.1941E+02  0.2949E+03
     16.786  0.2239E+02  0.2976E+03
     16.906  0.3457E+02  0.3017E+03
     17.027  0.3196E+02  0.3056E+03
     17.148  0.2986E+02  0.3092E+03
     17.269  0.2897E+02  0.3127E+03
     17.389  0.3382E+02  0.3168E+03
     17.510  0.2784E+02  0.3201E+03
     17.631  0.3201E+02  0.3240E+03
     17.752  0.3319E+02  0.3280E+03
     17.872  0.3021E+02  0.3317E+03
     17.993  0.3445E+02  0.3358E+03
     18.114  0.2585E+02  0.3390E+03
     18.235  0.2532E+02  0.3420E+03
     18.355  0.2730E+02  0.3453E+03
     18.476  0.2435E+02  0.3482E+03
     18.597  0.2215E+02  0.3509E+03
     18.718  0.2501E+02  0.3539E+03
     18.838  0.2816E+02  0.3573E+03
     18.959  0.2150E+02  0.3599E+03
     19.080  0.2253E+02  0.3627E+03
     19.201  0.2694E+02  0.3659E+03
     19.321  0.2180E+02  0.3685E+03
     19.442  0.2482E+02  0.3715E+03
     19.563  0.3074E+02  0.3753E+03
     19.684  0.2578E+02  0.3784E+03
     19.805  0.1986E+02  0.3808E+03
     19.925  0.1235E+02  0.3823E+03
     20.046  0.4342E+01  0.3828E+03
     20.167  0.1444E+01  0.3830E+03
     20.288  0.2185E+01  0.3832E+03
     20.408  0.2542E+01  0.3835E+03
     20.529  0.1618E+01  0.3837E+03
     20.650  0.1392E+01  0.3839E+03
     20.771  0.6355E+00  0.3840E+03
     20.891  0.4454E-02  0.3840E+03
     21.012  0.1600E-04  0.3840E+03
     21.133  0.4612E-01  0.3840E+03
     21.254  0.2498E+00  0.3840E+03
     21.374  0.1074E-01  0.3840E+03
     21.495  0.4902E-06  0.3840E+03
     21.616  0.9492E-14  0.3840E+03
     21.737  0.0000E+00  0.3840E+03
     21.857  0.0000E+00  0.3840E+03
     21.978  0.0000E+00  0.3840E+03
     22.099  0.0000E+00  0.3840E+03
     22.220  0.0000E+00  0.3840E+03
     22.340  0.0000E+00  0.3840E+03
     22.461  0.0000E+00  0.3840E+03
     22.582  0.0000E+00  0.3840E+03
     22.703  0.0000E+00  0.3840E+03
     22.823  0.0000E+00  0.3840E+03
