       N       E                     dE             d eps       ncg     rms          rms(c)
DAV:   1     0.509233864001E+03    0.50923E+03   -0.11366E+05 12288   0.106E+03
DAV:   2    -0.556032964963E+03   -0.10653E+04   -0.10154E+04 16224   0.231E+02
DAV:   3    -0.597985099763E+03   -0.41952E+02   -0.41699E+02 16192   0.429E+01
DAV:   4    -0.598447541693E+03   -0.46244E+00   -0.46153E+00 16384   0.496E+00
DAV:   5    -0.598457202031E+03   -0.96603E-02   -0.96562E-02 15296   0.664E-01    0.266E+01
DAV:   6    -0.583619381620E+03    0.14838E+02   -0.99441E+00 14400   0.641E+00    0.146E+01
DAV:   7    -0.578633205279E+03    0.49862E+01   -0.11591E+01 15296   0.712E+00    0.198E+00
DAV:   8    -0.578698194258E+03   -0.64989E-01   -0.33761E-01 15456   0.118E+00    0.227E-01
DAV:   9    -0.578700626818E+03   -0.24326E-02   -0.44957E-03 15808   0.161E-01    0.960E-02
DAV:  10    -0.578701121627E+03   -0.49481E-03   -0.34428E-04 14944   0.484E-02    0.129E-02
DAV:  11    -0.578701143136E+03   -0.21509E-04   -0.17505E-05 15872   0.108E-02    0.423E-03
DAV:  12    -0.578701143034E+03    0.10229E-06   -0.49429E-07 15872   0.173E-03    0.804E-04
DAV:  13    -0.578701143068E+03   -0.33710E-07   -0.26357E-08 13600   0.402E-04    0.335E-04
DAV:  14    -0.578701143121E+03   -0.53496E-07   -0.50188E-09 11296   0.212E-04    0.204E-04
DAV:  15    -0.578701143116E+03    0.55315E-08   -0.41940E-10  9440   0.521E-05
   1 F= -.57870114E+03 E0= -.57870114E+03  d E =-.391755E-18
 Linear response reoptimize wavefunctions
DAV:   1    -0.578701143116E+03   -0.70031E-10   -0.61499E-11  9216   0.205E-05
 Linear response DOF=           1
 Linear response progress:
  Degree of freedom:   1/  1
       N       E                     dE             d eps       ncg     rms          rms(c)
RMM:   1    -0.145163267211E+00   -0.14516E+00    0.39030E-03 73326   0.736E-01
RMM:   2    -0.123606682838E+00    0.21557E-01   -0.71803E-03 44222   0.191E-01    0.179E-01
RMM:   3    -0.123450178675E+00    0.15650E-03   -0.89624E-04 46443   0.503E-02    0.910E-02
RMM:   4    -0.123707578952E+00   -0.25740E-03   -0.24517E-04 46607   0.274E-02    0.277E-02
RMM:   5    -0.123791007811E+00   -0.83429E-04   -0.16307E-05 47156   0.770E-03    0.663E-03
RMM:   6    -0.123773756352E+00    0.17251E-04   -0.49367E-07 47923   0.199E-03    0.138E-03
RMM:   7    -0.123765360275E+00    0.83961E-05   -0.20751E-07 48994   0.631E-04    0.387E-04
RMM:   8    -0.123764810695E+00    0.54958E-06   -0.12590E-07 50886   0.288E-04    0.902E-05
RMM:   9    -0.123764554246E+00    0.25645E-06   -0.36117E-08 53040   0.203E-04    0.380E-05
RMM:  10    -0.123764619672E+00   -0.65426E-07    0.90918E-08 54694   0.195E-04    0.121E-05
RMM:  11    -0.123764610405E+00    0.92665E-08    0.21207E-07 54951   0.193E-04    0.437E-06
 Linear response finished
