 vasp.5.4.4.18Apr17-6-g9f103f2a35 (build Mar 12 2022 03:36:41) complex          
  
 executed on IFC19.0.3.199_CrayMP date 2022.12.02  01:05:26
 running on   32 total cores
 distrk:  each k-point on   32 cores,    1 groups
 distr:  one band on NCORES_PER_BAND=   1 cores,   32 groups


--------------------------------------------------------------------------------------------------------


 INCAR:
 POTCAR:   PAW_PBE C 08Apr2002                    

 ----------------------------------------------------------------------------- 
|                                                                             |
|           W    W    AA    RRRRR   N    N  II  N    N   GGGG   !!!           |
|           W    W   A  A   R    R  NN   N  II  NN   N  G    G  !!!           |
|           W    W  A    A  R    R  N N  N  II  N N  N  G       !!!           |
|           W WW W  AAAAAA  RRRRR   N  N N  II  N  N N  G  GGG   !            |
|           WW  WW  A    A  R   R   N   NN  II  N   NN  G    G                |
|           W    W  A    A  R    R  N    N  II  N    N   GGGG   !!!           |
|                                                                             |
|      For optimal performance we recommend to set                            |
|        NCORE= 4 - approx SQRT( number of cores)                             |
|      NCORE specifies how many cores store one orbital (NPAR=cpu/NCORE).     |
|      This setting can  greatly improve the performance of VASP for DFT.     |
|      The default,   NCORE=1            might be grossly inefficient         |
|      on modern multi-core architectures or massively parallel machines.     |
|      Do your own testing !!!!                                               |
|      Unfortunately you need to use the default for GW and RPA calculations. |
|      (for HF NCORE is supported but not extensively tested yet)             |
|                                                                             |
 ----------------------------------------------------------------------------- 

 POTCAR:   PAW_PBE C 08Apr2002                    
   VRHFIN =C: s2p2                                                              
   LEXCH  = PE                                                                  
   EATOM  =   147.1560 eV,   10.8157 Ry                                         
                                                                                
   TITEL  = PAW_PBE C 08Apr2002                                                 
   LULTRA =        F    use ultrasoft PP ?                                      
   IUNSCR =        0    unscreen: 0-lin 1-nonlin 2-no                           
   RPACOR =     .000    partial core radius                                     
   POMASS =   12.011; ZVAL   =    4.000    mass and valenz                      
   RCORE  =    1.500    outmost cutoff radius                                   
   RWIGS  =    1.630; RWIGS  =     .863    wigner-seitz radius (au A)           
   ENMAX  =  400.000; ENMIN  =  300.000 eV                                      
   ICORE  =        2    local potential                                         
   LCOR   =        T    correct aug charges                                     
   LPAW   =        T    paw PP                                                  
   EAUG   =  644.873                                                            
   DEXC   =     .000                                                            
   RMAX   =    2.266    core radius for proj-oper                               
   RAUG   =    1.300    factor for augmentation sphere                          
   RDEP   =    1.501    radius for radial grids                                 
   RDEPT  =    1.300    core radius for aug-charge                              
   QCUT   =   -5.516; QGAM   =   11.032    optimization parameters              
                                                                                
   Description                                                                  
     l     E      TYP  RCUT    TYP  RCUT                                        
     0   .000     23  1.200                                                     
     0   .000     23  1.200                                                     
     1   .000     23  1.500                                                     
     1  2.500     23  1.500                                                     
     2   .000      7  1.500                                                     
  local pseudopotential read in
  atomic valenz-charges read in
  non local Contribution for L=           0  read in
    real space projection operators read in
  non local Contribution for L=           0  read in
    real space projection operators read in
  non local Contribution for L=           1  read in
    real space projection operators read in
  non local Contribution for L=           1  read in
    real space projection operators read in
    PAW grid and wavefunctions read in
 
   number of l-projection  operators is LMAX  =           4
   number of lm-projection operators is LMMAX =           8
 

 ----------------------------------------------------------------------------- 
|                                                                             |
|  ADVICE TO THIS USER RUNNING 'VASP/VAMP'   (HEAR YOUR MASTER'S VOICE ...):  |
|                                                                             |
|      You have a (more or less) 'large supercell' and for larger cells       |
|      it might be more efficient to use real space projection operators      |
|      So try LREAL= Auto  in the INCAR   file.                               |
|      Mind: If you want to do a very accurate calculations keep the          |
|      reciprocal projection scheme          (i.e. LREAL=.FALSE.)             |
|                                                                             |
 ----------------------------------------------------------------------------- 

 PAW_PBE C 08Apr2002                    :
 energy of atom  1       EATOM= -147.1560
 kinetic energy error for atom=    0.0288 (will be added to EATOM!!)
 
 
 POSCAR: generated by phonopy                    
  positions in direct lattice
  No initial velocities read in
 exchange correlation table for  LEXCH =        8
   RHO(1)=    0.500       N(1)  =     2000
   RHO(2)=  100.500       N(2)  =     4000
 


--------------------------------------------------------------------------------------------------------


 ion  position               nearest neighbor table
   1  0.125  0.375  0.125-  25 1.49  11 1.58  43 1.58  57 1.58
   2  0.625  0.375  0.125-  26 1.49  12 1.58  44 1.58  58 1.58
   3  0.125  0.875  0.125-  27 1.49   9 1.58  41 1.58  59 1.58
   4  0.625  0.875  0.125-  28 1.49  10 1.58  42 1.58  60 1.58
   5  0.125  0.375  0.625-  29 1.49  15 1.58  47 1.58  61 1.58
   6  0.625  0.375  0.625-  30 1.49  16 1.58  48 1.58  62 1.58
   7  0.125  0.875  0.625-  31 1.49  13 1.58  45 1.58  63 1.58
   8  0.625  0.875  0.625-  32 1.49  14 1.58  46 1.58  64 1.58
   9  0.000  0.000  0.250-  17 1.49   3 1.58  36 1.58  50 1.58
  10  0.500  0.000  0.250-  18 1.49   4 1.58  35 1.58  49 1.58
  11  0.000  0.500  0.250-  19 1.49   1 1.58  34 1.58  52 1.58
  12  0.500  0.500  0.250-  20 1.49   2 1.58  33 1.58  51 1.58
  13  0.000  0.000  0.750-  21 1.49   7 1.58  40 1.58  54 1.58
  14  0.500  0.000  0.750-  22 1.49   8 1.58  39 1.58  53 1.58
  15  0.000  0.500  0.750-  23 1.49   5 1.58  38 1.58  56 1.58
  16  0.500  0.500  0.750-  24 1.49   6 1.58  37 1.58  55 1.58
  17  0.125  0.125  0.375-   9 1.49  29 1.58  45 1.58  57 1.58
  18  0.625  0.125  0.375-  10 1.49  30 1.58  46 1.58  58 1.58
  19  0.125  0.625  0.375-  11 1.49  31 1.58  47 1.58  59 1.58
  20  0.625  0.625  0.375-  12 1.49  32 1.58  48 1.58  60 1.58
  21  0.125  0.125  0.875-  13 1.49  25 1.58  41 1.58  61 1.58
  22  0.625  0.125  0.875-  14 1.49  26 1.58  42 1.58  62 1.58
  23  0.125  0.625  0.875-  15 1.49  27 1.58  43 1.58  63 1.58
  24  0.625  0.625  0.875-  16 1.49  28 1.58  44 1.58  64 1.58
  25  0.000  0.250  0.000-   1 1.49  21 1.58  38 1.58  50 1.58
  26  0.500  0.250  0.000-   2 1.49  22 1.58  37 1.58  49 1.58
  27  0.000  0.750  0.000-   3 1.49  23 1.58  40 1.58  52 1.58
  28  0.500  0.750  0.000-   4 1.49  24 1.58  39 1.58  51 1.58
  29  0.000  0.250  0.500-   5 1.49  17 1.58  34 1.58  54 1.58
  30  0.500  0.250  0.500-   6 1.49  18 1.58  33 1.58  53 1.58
  31  0.000  0.750  0.500-   7 1.49  19 1.58  36 1.58  56 1.58
  32  0.500  0.750  0.500-   8 1.49  20 1.58  35 1.58  55 1.58
  33  0.375  0.375  0.375-  57 1.49  47 1.58  12 1.58  30 1.58
  34  0.875  0.375  0.375-  58 1.49  48 1.58  11 1.58  29 1.58
  35  0.375  0.875  0.375-  59 1.49  45 1.58  10 1.58  32 1.58
  36  0.875  0.875  0.375-  60 1.49  46 1.58   9 1.58  31 1.58
  37  0.375  0.375  0.875-  61 1.49  43 1.58  16 1.58  26 1.58
  38  0.875  0.375  0.875-  62 1.49  44 1.58  15 1.58  25 1.58
  39  0.375  0.875  0.875-  63 1.49  41 1.58  14 1.58  28 1.58
  40  0.875  0.875  0.875-  64 1.49  42 1.58  13 1.58  27 1.58
  41  0.250  0.000  0.000-  49 1.49  39 1.58   3 1.58  21 1.58
  42  0.750  0.000  0.000-  50 1.49  40 1.58   4 1.58  22 1.58
  43  0.250  0.500  0.000-  51 1.49  37 1.58   1 1.58  23 1.58
  44  0.750  0.500  0.000-  52 1.49  38 1.58   2 1.58  24 1.58
  45  0.250  0.000  0.500-  53 1.49  35 1.58   7 1.58  17 1.58
  46  0.750  0.000  0.500-  54 1.49  36 1.58   8 1.58  18 1.58
  47  0.250  0.500  0.500-  55 1.49  33 1.58   5 1.58  19 1.58
  48  0.750  0.500  0.500-  56 1.49  34 1.58   6 1.58  20 1.58
  49  0.375  0.125  0.125-  41 1.49  57 1.58  10 1.58  26 1.58
  50  0.875  0.125  0.125-  42 1.49  58 1.58   9 1.58  25 1.58
  51  0.375  0.625  0.125-  43 1.49  59 1.58  12 1.58  28 1.58
  52  0.875  0.625  0.125-  44 1.49  60 1.58  11 1.58  27 1.58
  53  0.375  0.125  0.625-  45 1.49  61 1.58  14 1.58  30 1.58
  54  0.875  0.125  0.625-  46 1.49  62 1.58  13 1.58  29 1.58
  55  0.375  0.625  0.625-  47 1.49  63 1.58  16 1.58  32 1.58
  56  0.875  0.625  0.625-  48 1.49  64 1.58  15 1.58  31 1.58
  57  0.250  0.250  0.250-  33 1.49  49 1.58   1 1.58  17 1.58
  58  0.750  0.250  0.250-  34 1.49  50 1.58   2 1.58  18 1.58
  59  0.250  0.750  0.250-  35 1.49  51 1.58   3 1.58  19 1.58
  60  0.750  0.750  0.250-  36 1.49  52 1.58   4 1.58  20 1.58
  61  0.250  0.250  0.750-  37 1.49  53 1.58   5 1.58  21 1.58
  62  0.750  0.250  0.750-  38 1.49  54 1.58   6 1.58  22 1.58
  63  0.250  0.750  0.750-  39 1.49  55 1.58   7 1.58  23 1.58
  64  0.750  0.750  0.750-  40 1.49  56 1.58   8 1.58  24 1.58
 
  LATTYP: Found a trigonal (rhomboedric) cell.
 ALAT       =     7.1799989116
 COS(alpha) =    -0.0399998870
  
  Lattice vectors:
  
 A1 = (   7.1799987179,   0.0000000000,   0.0000000000)
 A2 = (  -0.2871991451,   7.1742526455,   0.0000000000)
 A3 = (  -0.2871991451,  -0.2989263564,   7.1680223762)


Analysis of symmetry for initial positions (statically):
=====================================================================
 Subroutine PRICEL returns following result:
 
  LATTYP: Found a trigonal (rhomboedric) cell.
 ALAT       =     2.4872247305
 COS(alpha) =     0.4583334656
  
  Lattice vectors:
  
 A1 = (  -0.1435995725,   1.7188315723,   1.7920055940)
 A2 = (   1.7231998932,  -0.0747315891,   1.7920055940)
 A3 = (   1.7231998932,   1.7935631614,   0.0000000000)
 
  32 primitive cells build up your supercell.
 

 Routine SETGRP: Setting up the symmetry group for a 
 trigonal (rhombohedral) supercell.


 Subroutine GETGRP returns: Found 12 space group operations
 (whereof  6 operations were pure point group operations)
 out of a pool of 12 trial point group operations.


The static configuration has the point symmetry C_3v.
 The point group associated with its full space group is D_3d.


Analysis of symmetry for dynamics (positions and initial velocities):
=====================================================================
 Subroutine PRICEL returns following result:
 
  LATTYP: Found a trigonal (rhomboedric) cell.
 ALAT       =     2.4872247305
 COS(alpha) =     0.4583334656
  
  Lattice vectors:
  
 A1 = (  -0.1435995725,   1.7188315723,   1.7920055940)
 A2 = (   1.7231998932,  -0.0747315891,   1.7920055940)
 A3 = (   1.7231998932,   1.7935631614,   0.0000000000)
 
  32 primitive cells build up your supercell.
 

 Routine SETGRP: Setting up the symmetry group for a 
 trigonal (rhombohedral) supercell.


 Subroutine GETGRP returns: Found 12 space group operations
 (whereof  6 operations were pure point group operations)
 out of a pool of 12 trial point group operations.


The dynamic configuration has the point symmetry C_3v.
 The point group associated with its full space group is D_3d.


 Subroutine INISYM returns: Found 12 space group operations
 (whereof  6 operations are pure point group operations),
 and found    32 'primitive' translations

 
 
 KPOINTS: kpt_density=3000                        

Automatic generation of k-mesh.
Space group operators:
 irot       det(A)        alpha          n_x          n_y          n_z        tau_x        tau_y        tau_z
    1     1.000000     0.000000     1.000000     0.000000     0.000000     0.000000     0.000000     0.000000
    2    -1.000000   180.000000     0.000000    -0.721688     0.692219     0.000000     0.000000     0.000000
    3     1.000000   120.000000    -0.553775    -0.576387    -0.600925     0.000000     0.000000     0.000000
    4    -1.000000   180.000000    -0.721110     0.692820     0.000000     0.000000     0.000000     0.000000
    5     1.000000   120.000000     0.553775     0.576387     0.600925     0.000000     0.000000     0.000000
    6    -1.000000   179.999999     0.721110     0.028867    -0.692219     0.000000     0.000000     0.000000
    7    -1.000000     0.000000     1.000000     0.000000     0.000000     0.125000     0.125000     0.125000
    8     1.000000   180.000000     0.000000    -0.721688     0.692219     0.125000     0.125000     0.125000
    9    -1.000000   120.000000    -0.553775    -0.576387    -0.600925     0.125000     0.125000     0.125000
   10     1.000000   180.000000    -0.721110     0.692820     0.000000     0.125000     0.125000     0.125000
   11    -1.000000   120.000000     0.553775     0.576387     0.600925     0.125000     0.125000     0.125000
   12     1.000000   179.999999     0.721110     0.028867    -0.692219     0.125000     0.125000     0.125000
 
 Subroutine IBZKPT returns following result:
 ===========================================
 
 Found     32 irreducible k-points:
 
 Following reciprocal coordinates:
            Coordinates               Weight
  0.000000  0.000000  0.000000      1.000000
  0.166667 -0.000000  0.000000      6.000000
  0.333333 -0.000000 -0.000000      6.000000
  0.500000 -0.000000  0.000000      3.000000
  0.166667  0.166667  0.000000      6.000000
  0.333333  0.166667  0.000000     12.000000
  0.500000  0.166667  0.000000     12.000000
 -0.333333  0.166667 -0.000000     12.000000
 -0.166667  0.166667 -0.000000      6.000000
  0.333333  0.333333  0.000000      6.000000
  0.500000  0.333333  0.000000     12.000000
 -0.333333  0.333333  0.000000      6.000000
  0.500000  0.500000 -0.000000      3.000000
  0.166667  0.166667  0.166667      2.000000
  0.333333  0.166667  0.166667      6.000000
  0.500000  0.166667  0.166667      6.000000
 -0.333333  0.166667  0.166667      6.000000
 -0.166667  0.166667  0.166667      6.000000
  0.333333  0.333333  0.166667      6.000000
  0.500000  0.333333  0.166667     12.000000
 -0.333333  0.333333  0.166667     12.000000
 -0.166667  0.333333  0.166667     12.000000
  0.500000  0.500000  0.166667      6.000000
 -0.333333  0.500000  0.166667     12.000000
 -0.166667  0.500000  0.166667      6.000000
 -0.333333 -0.333333  0.166667      6.000000
  0.333333  0.333333  0.333333      2.000000
  0.500000  0.333333  0.333333      6.000000
 -0.333333  0.333333  0.333333      6.000000
  0.500000  0.500000  0.333333      6.000000
 -0.333333  0.500000  0.333333      6.000000
  0.500000  0.500000  0.500000      1.000000
 
 Following cartesian coordinates:
            Coordinates               Weight
  0.000000  0.000000  0.000000      1.000000
  0.023213  0.000929  0.000969      6.000000
  0.046425  0.001858  0.001938      6.000000
  0.069638  0.002788  0.002906      3.000000
  0.023213  0.024160  0.001938      6.000000
  0.046425  0.025090  0.002906     12.000000
  0.069638  0.026019  0.003875     12.000000
 -0.046425  0.021373 -0.000969     12.000000
 -0.023213  0.022302  0.000000      6.000000
  0.046425  0.048321  0.003875      6.000000
  0.069638  0.049250  0.004844     12.000000
 -0.046425  0.044604  0.000000      6.000000
  0.069638  0.072481  0.005813      3.000000
  0.023213  0.024160  0.025189      2.000000
  0.046425  0.025090  0.026158      6.000000
  0.069638  0.026019  0.027127      6.000000
 -0.046425  0.021373  0.022283      6.000000
 -0.023213  0.022302  0.023251      6.000000
  0.046425  0.048321  0.027127      6.000000
  0.069638  0.049250  0.028095     12.000000
 -0.046425  0.044604  0.023251     12.000000
 -0.023213  0.045533  0.024220     12.000000
  0.069638  0.072481  0.029064      6.000000
 -0.046425  0.067835  0.024220     12.000000
 -0.023213  0.068764  0.025189      6.000000
 -0.046425 -0.048321  0.019376      6.000000
  0.046425  0.048321  0.050378      2.000000
  0.069638  0.049250  0.051347      6.000000
 -0.046425  0.044604  0.046503      6.000000
  0.069638  0.072481  0.052316      6.000000
 -0.046425  0.067835  0.047472      6.000000
  0.069638  0.072481  0.075567      1.000000
 
 
 Subroutine IBZKPT_HF returns following result:
 ==============================================
 
 Found    216 k-points in 1st BZ
 the following    216 k-points will be used (e.g. in the exchange kernel)
 Following reciprocal coordinates:   # in IRBZ
  0.000000  0.000000  0.000000    0.00462963   1 t-inv F
  0.166667 -0.000000  0.000000    0.00462963   2 t-inv F
  0.333333 -0.000000 -0.000000    0.00462963   3 t-inv F
  0.500000 -0.000000  0.000000    0.00462963   4 t-inv F
  0.166667  0.166667  0.000000    0.00462963   5 t-inv F
  0.333333  0.166667  0.000000    0.00462963   6 t-inv F
  0.500000  0.166667  0.000000    0.00462963   7 t-inv F
 -0.333333  0.166667 -0.000000    0.00462963   8 t-inv F
 -0.166667  0.166667 -0.000000    0.00462963   9 t-inv F
  0.333333  0.333333  0.000000    0.00462963  10 t-inv F
  0.500000  0.333333  0.000000    0.00462963  11 t-inv F
 -0.333333  0.333333  0.000000    0.00462963  12 t-inv F
  0.500000  0.500000 -0.000000    0.00462963  13 t-inv F
  0.166667  0.166667  0.166667    0.00462963  14 t-inv F
  0.333333  0.166667  0.166667    0.00462963  15 t-inv F
  0.500000  0.166667  0.166667    0.00462963  16 t-inv F
 -0.333333  0.166667  0.166667    0.00462963  17 t-inv F
 -0.166667  0.166667  0.166667    0.00462963  18 t-inv F
  0.333333  0.333333  0.166667    0.00462963  19 t-inv F
  0.500000  0.333333  0.166667    0.00462963  20 t-inv F
 -0.333333  0.333333  0.166667    0.00462963  21 t-inv F
 -0.166667  0.333333  0.166667    0.00462963  22 t-inv F
  0.500000  0.500000  0.166667    0.00462963  23 t-inv F
 -0.333333  0.500000  0.166667    0.00462963  24 t-inv F
 -0.166667  0.500000  0.166667    0.00462963  25 t-inv F
 -0.333333 -0.333333  0.166667    0.00462963  26 t-inv F
  0.333333  0.333333  0.333333    0.00462963  27 t-inv F
  0.500000  0.333333  0.333333    0.00462963  28 t-inv F
 -0.333333  0.333333  0.333333    0.00462963  29 t-inv F
  0.500000  0.500000  0.333333    0.00462963  30 t-inv F
 -0.333333  0.500000  0.333333    0.00462963  31 t-inv F
  0.500000  0.500000  0.500000    0.00462963  32 t-inv F
  0.000000  0.166667 -0.000000    0.00462963   2 t-inv F
 -0.000000  0.000000  0.166667    0.00462963   2 t-inv F
 -0.166667  0.000000 -0.000000    0.00462963   2 t-inv F
 -0.000000 -0.166667  0.000000    0.00462963   2 t-inv F
  0.000000 -0.000000 -0.166667    0.00462963   2 t-inv F
 -0.000000  0.333333 -0.000000    0.00462963   3 t-inv F
 -0.000000 -0.000000  0.333333    0.00462963   3 t-inv F
 -0.333333  0.000000  0.000000    0.00462963   3 t-inv F
  0.000000 -0.333333  0.000000    0.00462963   3 t-inv F
  0.000000  0.000000 -0.333333    0.00462963   3 t-inv F
  0.000000  0.500000 -0.000000    0.00462963   4 t-inv F
 -0.000000  0.000000  0.500000    0.00462963   4 t-inv F
  0.166667  0.000000  0.166667    0.00462963   5 t-inv F
  0.000000  0.166667  0.166667    0.00462963   5 t-inv F
 -0.166667 -0.166667 -0.000000    0.00462963   5 t-inv F
 -0.166667 -0.000000 -0.166667    0.00462963   5 t-inv F
 -0.000000 -0.166667 -0.166667    0.00462963   5 t-inv F
  0.333333  0.000000  0.166667    0.00462963   6 t-inv F
  0.000000  0.333333  0.166667    0.00462963   6 t-inv F
  0.166667  0.333333  0.000000    0.00462963   6 t-inv F
  0.166667  0.000000  0.333333    0.00462963   6 t-inv F
  0.000000  0.166667  0.333333    0.00462963   6 t-inv F
 -0.333333 -0.166667 -0.000000    0.00462963   6 t-inv F
 -0.333333 -0.000000 -0.166667    0.00462963   6 t-inv F
 -0.000000 -0.333333 -0.166667    0.00462963   6 t-inv F
 -0.166667 -0.333333 -0.000000    0.00462963   6 t-inv F
 -0.166667 -0.000000 -0.333333    0.00462963   6 t-inv F
 -0.000000 -0.166667 -0.333333    0.00462963   6 t-inv F
  0.500000  0.000000  0.166667    0.00462963   7 t-inv F
  0.000000  0.500000  0.166667    0.00462963   7 t-inv F
  0.166667  0.500000  0.000000    0.00462963   7 t-inv F
  0.166667  0.000000  0.500000    0.00462963   7 t-inv F
  0.000000  0.166667  0.500000    0.00462963   7 t-inv F
 -0.500000 -0.166667 -0.000000    0.00462963   7 t-inv F
 -0.500000 -0.000000 -0.166667    0.00462963   7 t-inv F
 -0.000000 -0.500000 -0.166667    0.00462963   7 t-inv F
 -0.166667 -0.500000 -0.000000    0.00462963   7 t-inv F
 -0.166667 -0.000000 -0.500000    0.00462963   7 t-inv F
 -0.000000 -0.166667 -0.500000    0.00462963   7 t-inv F
 -0.333333 -0.000000  0.166667    0.00462963   8 t-inv F
 -0.000000 -0.333333  0.166667    0.00462963   8 t-inv F
  0.166667 -0.333333 -0.000000    0.00462963   8 t-inv F
  0.166667 -0.000000 -0.333333    0.00462963   8 t-inv F
 -0.000000  0.166667 -0.333333    0.00462963   8 t-inv F
  0.333333 -0.166667  0.000000    0.00462963   8 t-inv F
  0.333333  0.000000 -0.166667    0.00462963   8 t-inv F
  0.000000  0.333333 -0.166667    0.00462963   8 t-inv F
 -0.166667  0.333333  0.000000    0.00462963   8 t-inv F
 -0.166667  0.000000  0.333333    0.00462963   8 t-inv F
  0.000000 -0.166667  0.333333    0.00462963   8 t-inv F
 -0.166667 -0.000000  0.166667    0.00462963   9 t-inv F
 -0.000000 -0.166667  0.166667    0.00462963   9 t-inv F
  0.166667 -0.166667 -0.000000    0.00462963   9 t-inv F
  0.166667 -0.000000 -0.166667    0.00462963   9 t-inv F
 -0.000000  0.166667 -0.166667    0.00462963   9 t-inv F
  0.333333  0.000000  0.333333    0.00462963  10 t-inv F
  0.000000  0.333333  0.333333    0.00462963  10 t-inv F
 -0.333333 -0.333333 -0.000000    0.00462963  10 t-inv F
 -0.333333 -0.000000 -0.333333    0.00462963  10 t-inv F
 -0.000000 -0.333333 -0.333333    0.00462963  10 t-inv F
  0.500000  0.000000  0.333333    0.00462963  11 t-inv F
  0.000000  0.500000  0.333333    0.00462963  11 t-inv F
  0.333333  0.500000  0.000000    0.00462963  11 t-inv F
  0.333333  0.000000  0.500000    0.00462963  11 t-inv F
  0.000000  0.333333  0.500000    0.00462963  11 t-inv F
 -0.500000 -0.333333 -0.000000    0.00462963  11 t-inv F
 -0.500000 -0.000000 -0.333333    0.00462963  11 t-inv F
 -0.000000 -0.500000 -0.333333    0.00462963  11 t-inv F
 -0.333333 -0.500000 -0.000000    0.00462963  11 t-inv F
 -0.333333 -0.000000 -0.500000    0.00462963  11 t-inv F
 -0.000000 -0.333333 -0.500000    0.00462963  11 t-inv F
 -0.333333  0.000000  0.333333    0.00462963  12 t-inv F
  0.000000 -0.333333  0.333333    0.00462963  12 t-inv F
  0.333333 -0.333333  0.000000    0.00462963  12 t-inv F
  0.333333  0.000000 -0.333333    0.00462963  12 t-inv F
  0.000000  0.333333 -0.333333    0.00462963  12 t-inv F
  0.500000 -0.000000  0.500000    0.00462963  13 t-inv F
 -0.000000  0.500000  0.500000    0.00462963  13 t-inv F
 -0.166667 -0.166667 -0.166667    0.00462963  14 t-inv F
  0.166667  0.333333  0.166667    0.00462963  15 t-inv F
  0.166667  0.166667  0.333333    0.00462963  15 t-inv F
 -0.333333 -0.166667 -0.166667    0.00462963  15 t-inv F
 -0.166667 -0.333333 -0.166667    0.00462963  15 t-inv F
 -0.166667 -0.166667 -0.333333    0.00462963  15 t-inv F
  0.166667  0.500000  0.166667    0.00462963  16 t-inv F
  0.166667  0.166667  0.500000    0.00462963  16 t-inv F
 -0.500000 -0.166667 -0.166667    0.00462963  16 t-inv F
 -0.166667 -0.500000 -0.166667    0.00462963  16 t-inv F
 -0.166667 -0.166667 -0.500000    0.00462963  16 t-inv F
  0.166667 -0.333333  0.166667    0.00462963  17 t-inv F
  0.166667  0.166667 -0.333333    0.00462963  17 t-inv F
  0.333333 -0.166667 -0.166667    0.00462963  17 t-inv F
 -0.166667  0.333333 -0.166667    0.00462963  17 t-inv F
 -0.166667 -0.166667  0.333333    0.00462963  17 t-inv F
  0.166667 -0.166667  0.166667    0.00462963  18 t-inv F
  0.166667  0.166667 -0.166667    0.00462963  18 t-inv F
  0.166667 -0.166667 -0.166667    0.00462963  18 t-inv F
 -0.166667  0.166667 -0.166667    0.00462963  18 t-inv F
 -0.166667 -0.166667  0.166667    0.00462963  18 t-inv F
  0.333333  0.166667  0.333333    0.00462963  19 t-inv F
  0.166667  0.333333  0.333333    0.00462963  19 t-inv F
 -0.333333 -0.333333 -0.166667    0.00462963  19 t-inv F
 -0.333333 -0.166667 -0.333333    0.00462963  19 t-inv F
 -0.166667 -0.333333 -0.333333    0.00462963  19 t-inv F
  0.500000  0.166667  0.333333    0.00462963  20 t-inv F
  0.166667  0.500000  0.333333    0.00462963  20 t-inv F
  0.333333  0.500000  0.166667    0.00462963  20 t-inv F
  0.333333  0.166667  0.500000    0.00462963  20 t-inv F
  0.166667  0.333333  0.500000    0.00462963  20 t-inv F
 -0.500000 -0.333333 -0.166667    0.00462963  20 t-inv F
 -0.500000 -0.166667 -0.333333    0.00462963  20 t-inv F
 -0.166667 -0.500000 -0.333333    0.00462963  20 t-inv F
 -0.333333 -0.500000 -0.166667    0.00462963  20 t-inv F
 -0.333333 -0.166667 -0.500000    0.00462963  20 t-inv F
 -0.166667 -0.333333 -0.500000    0.00462963  20 t-inv F
 -0.333333  0.166667  0.333333    0.00462963  21 t-inv F
  0.166667 -0.333333  0.333333    0.00462963  21 t-inv F
  0.333333 -0.333333  0.166667    0.00462963  21 t-inv F
  0.333333  0.166667 -0.333333    0.00462963  21 t-inv F
  0.166667  0.333333 -0.333333    0.00462963  21 t-inv F
  0.333333 -0.333333 -0.166667    0.00462963  21 t-inv F
  0.333333 -0.166667 -0.333333    0.00462963  21 t-inv F
 -0.166667  0.333333 -0.333333    0.00462963  21 t-inv F
 -0.333333  0.333333 -0.166667    0.00462963  21 t-inv F
 -0.333333 -0.166667  0.333333    0.00462963  21 t-inv F
 -0.166667 -0.333333  0.333333    0.00462963  21 t-inv F
 -0.166667  0.166667  0.333333    0.00462963  22 t-inv F
  0.166667 -0.166667  0.333333    0.00462963  22 t-inv F
  0.333333 -0.166667  0.166667    0.00462963  22 t-inv F
  0.333333  0.166667 -0.166667    0.00462963  22 t-inv F
  0.166667  0.333333 -0.166667    0.00462963  22 t-inv F
  0.166667 -0.333333 -0.166667    0.00462963  22 t-inv F
  0.166667 -0.166667 -0.333333    0.00462963  22 t-inv F
 -0.166667  0.166667 -0.333333    0.00462963  22 t-inv F
 -0.333333  0.166667 -0.166667    0.00462963  22 t-inv F
 -0.333333 -0.166667  0.166667    0.00462963  22 t-inv F
 -0.166667 -0.333333  0.166667    0.00462963  22 t-inv F
  0.500000  0.166667  0.500000    0.00462963  23 t-inv F
  0.166667  0.500000  0.500000    0.00462963  23 t-inv F
 -0.500000 -0.500000 -0.166667    0.00462963  23 t-inv F
 -0.500000 -0.166667 -0.500000    0.00462963  23 t-inv F
 -0.166667 -0.500000 -0.500000    0.00462963  23 t-inv F
 -0.333333  0.166667  0.500000    0.00462963  24 t-inv F
  0.166667 -0.333333  0.500000    0.00462963  24 t-inv F
  0.500000 -0.333333  0.166667    0.00462963  24 t-inv F
  0.500000  0.166667 -0.333333    0.00462963  24 t-inv F
  0.166667  0.500000 -0.333333    0.00462963  24 t-inv F
  0.333333 -0.500000 -0.166667    0.00462963  24 t-inv F
  0.333333 -0.166667 -0.500000    0.00462963  24 t-inv F
 -0.166667  0.333333 -0.500000    0.00462963  24 t-inv F
 -0.500000  0.333333 -0.166667    0.00462963  24 t-inv F
 -0.500000 -0.166667  0.333333    0.00462963  24 t-inv F
 -0.166667 -0.500000  0.333333    0.00462963  24 t-inv F
 -0.166667  0.166667  0.500000    0.00462963  25 t-inv F
  0.166667 -0.166667  0.500000    0.00462963  25 t-inv F
  0.500000 -0.166667  0.166667    0.00462963  25 t-inv F
  0.500000  0.166667 -0.166667    0.00462963  25 t-inv F
  0.166667  0.500000 -0.166667    0.00462963  25 t-inv F
 -0.333333  0.166667 -0.333333    0.00462963  26 t-inv F
  0.166667 -0.333333 -0.333333    0.00462963  26 t-inv F
  0.333333  0.333333 -0.166667    0.00462963  26 t-inv F
  0.333333 -0.166667  0.333333    0.00462963  26 t-inv F
 -0.166667  0.333333  0.333333    0.00462963  26 t-inv F
 -0.333333 -0.333333 -0.333333    0.00462963  27 t-inv F
  0.333333  0.500000  0.333333    0.00462963  28 t-inv F
  0.333333  0.333333  0.500000    0.00462963  28 t-inv F
 -0.500000 -0.333333 -0.333333    0.00462963  28 t-inv F
 -0.333333 -0.500000 -0.333333    0.00462963  28 t-inv F
 -0.333333 -0.333333 -0.500000    0.00462963  28 t-inv F
  0.333333 -0.333333  0.333333    0.00462963  29 t-inv F
  0.333333  0.333333 -0.333333    0.00462963  29 t-inv F
  0.333333 -0.333333 -0.333333    0.00462963  29 t-inv F
 -0.333333  0.333333 -0.333333    0.00462963  29 t-inv F
 -0.333333 -0.333333  0.333333    0.00462963  29 t-inv F
  0.500000  0.333333  0.500000    0.00462963  30 t-inv F
  0.333333  0.500000  0.500000    0.00462963  30 t-inv F
 -0.500000 -0.500000 -0.333333    0.00462963  30 t-inv F
 -0.500000 -0.333333 -0.500000    0.00462963  30 t-inv F
 -0.333333 -0.500000 -0.500000    0.00462963  30 t-inv F
 -0.333333  0.333333  0.500000    0.00462963  31 t-inv F
  0.333333 -0.333333  0.500000    0.00462963  31 t-inv F
  0.500000 -0.333333  0.333333    0.00462963  31 t-inv F
  0.500000  0.333333 -0.333333    0.00462963  31 t-inv F
  0.333333  0.500000 -0.333333    0.00462963  31 t-inv F


--------------------------------------------------------------------------------------------------------




 Dimension of arrays:
   k-points           NKPTS =     32   k-points in BZ     NKDIM =     32   number of bands    NBANDS=    192
   number of dos      NEDOS =    301   number of ions     NIONS =     64
   non local maximal  LDIM  =      4   non local SUM 2l+1 LMDIM =      8
   total plane-waves  NPLWV = 110592
   max r-space proj   IRMAX =      1   max aug-charges    IRDMAX=  28473
   dimension x,y,z NGX =    48 NGY =   48 NGZ =   48
   dimension x,y,z NGXF=    96 NGYF=   96 NGZF=   96
   support grid    NGXF=   192 NGYF=  192 NGZF=  192
   ions per type =              64
   NGX,Y,Z   is equivalent  to a cutoff of  11.11, 11.11, 11.11 a.u.
   NGXF,Y,Z  is equivalent  to a cutoff of  22.23, 22.23, 22.23 a.u.

 SYSTEM =  unknown system                          
 POSCAR =  generated by phonopy                    

 Startparameter for this run:
   NWRITE =      2    write-flag & timer
   PREC   = accura    normal or accurate (medium, high low for compatibility)
   ISTART =      0    job   : 0-new  1-cont  2-samecut
   ICHARG =      2    charge: 1-file 2-atom 10-const
   ISPIN  =      1    spin polarized calculation?
   LNONCOLLINEAR =      F non collinear calculations
   LSORBIT =      F    spin-orbit coupling
   INIWAV =      1    electr: 0-lowe 1-rand  2-diag
   LASPH  =      F    aspherical Exc in radial PAW
   METAGGA=      F    non-selfconsistent MetaGGA calc.

 Electronic Relaxation 1
   ENCUT  =  400.0 eV  29.40 Ry    5.42 a.u.  11.71 11.71 11.71*2*pi/ulx,y,z
   ENINI  =  400.0     initial cutoff
   ENAUG  =  644.9 eV  augmentation charge cutoff
   NELM   =     60;   NELMIN=  2; NELMDL= -5     # of ELM steps 
   EDIFF  = 0.1E-07   stopping-criterion for ELM
   LREAL  =      F    real-space projection
   NLSPLINE    = F    spline interpolate recip. space projectors
   LCOMPAT=      F    compatible to vasp.4.4
   GGA_COMPAT  = T    GGA compatible to vasp.4.4-vasp.4.6
   LMAXPAW     = -100 max onsite density
   LMAXMIX     =    2 max onsite mixed and CHGCAR
   VOSKOWN=      0    Vosko Wilk Nusair interpolation
   ROPT   =    0.00000
 Ionic relaxation
   EDIFFG = 0.1E-06   stopping-criterion for IOM
   NSW    =      1    number of steps for IOM
   NBLOCK =      1;   KBLOCK =      1    inner block; outer block 
   IBRION =      8    ionic relax: 0-MD 1-quasi-New 2-CG
   NFREE  =      0    steps in history (QN), initial steepest desc. (CG)
   ISIF   =      2    stress and relaxation
   IWAVPR =     11    prediction:  0-non 1-charg 2-wave 3-comb
   ISYM   =      2    0-nonsym 1-usesym 2-fastsym
   LCORR  =      T    Harris-Foulkes like correction to forces

   POTIM  = 0.5000    time-step for ionic-motion
   TEIN   =    0.0    initial temperature
   TEBEG  =    0.0;   TEEND  =   0.0 temperature during run
   SMASS  =  -3.00    Nose mass-parameter (am)
   estimated Nose-frequenzy (Omega)   =  0.10E-29 period in steps =****** mass=  -0.118E-26a.u.
   SCALEE = 1.0000    scale energy and forces
   NPACO  =    256;   APACO  = 16.0  distance and # of slots for P.C.
   PSTRESS=    0.0 pullay stress

  Mass of Ions in am
   POMASS =  12.01
  Ionic Valenz
   ZVAL   =   4.00
  Atomic Wigner-Seitz radii
   RWIGS  =  -1.00
  virtual crystal weights 
   VCA    =   1.00
   NELECT =     256.0000    total number of electrons
   NUPDOWN=      -1.0000    fix difference up-down

 DOS related values:
   EMIN   =  10.00;   EMAX   =-10.00  energy-range for DOS
   EFERMI =   0.00
   ISMEAR =     0;   SIGMA  =   0.06  broadening in eV -4-tet -1-fermi 0-gaus

 Electronic relaxation 2 (details)
   IALGO  =     38    algorithm
   LDIAG  =      T    sub-space diagonalisation (order eigenvalues)
   LSUBROT=      F    optimize rotation matrix (better conditioning)
   TURBO    =      0    0=normal 1=particle mesh
   IRESTART =      0    0=no restart 2=restart with 2 vectors
   NREBOOT  =      0    no. of reboots
   NMIN     =      0    reboot dimension
   EREF     =   0.00    reference energy to select bands
   IMIX   =      4    mixing-type and parameters
     AMIX     =   0.40;   BMIX     =  1.00
     AMIX_MAG =   1.60;   BMIX_MAG =  1.00
     AMIN     =   0.10
     WC   =   100.;   INIMIX=   1;  MIXPRE=   1;  MAXMIX= -45

 Intra band minimization:
   WEIMIN = 0.0010     energy-eigenvalue tresh-hold
   EBREAK =  0.13E-10  absolut break condition
   DEPER  =   0.30     relativ break condition  

   TIME   =   0.40     timestep for ELM

  volume/ion in A,a.u.               =       5.77        38.93
  Fermi-wavevector in a.u.,A,eV,Ry     =   1.448954  2.738127 28.565004  2.099469
  Thomas-Fermi vector in A             =   2.566736
 
 Write flags
   LWAVE        =      F    write WAVECAR
   LDOWNSAMPLE  =      F    k-point downsampling of WAVECAR
   LCHARG       =      F    write CHGCAR
   LVTOT        =      F    write LOCPOT, total local potential
   LVHAR        =      F    write LOCPOT, Hartree potential only
   LELF         =      F    write electronic localiz. function (ELF)
   LORBIT       =      0    0 simple, 1 ext, 2 COOP (PROOUT), +10 PAW based schemes


 Dipole corrections
   LMONO  =      F    monopole corrections only (constant potential shift)
   LDIPOL =      F    correct potential (dipole corrections)
   IDIPOL =      0    1-x, 2-y, 3-z, 4-all directions 
   EPSILON=  1.0000000 bulk dielectric constant

 Exchange correlation treatment:
   GGA     =    --    GGA type
   LEXCH   =     8    internal setting for exchange type
   VOSKOWN=      0    Vosko Wilk Nusair interpolation
   LHFCALC =     F    Hartree Fock is set to
   LHFONE  =     F    Hartree Fock one center treatment
   AEXX    =    0.0000 exact exchange contribution

 Linear response parameters
   LEPSILON=     F    determine dielectric tensor
   LRPA    =     F    only Hartree local field effects (RPA)
   LNABLA  =     F    use nabla operator in PAW spheres
   LVEL    =     F    velocity operator in full k-point grid
   LINTERFAST=   F  fast interpolation
   KINTER  =     0    interpolate to denser k-point grid
   CSHIFT  =0.1000    complex shift for real part using Kramers Kronig
   OMEGAMAX=  -1.0    maximum frequency
   DEG_THRESHOLD= 0.2000000E-02 threshold for treating states as degnerate
   RTIME   =   -0.100 relaxation time in fs
  (WPLASMAI=    0.000 imaginary part of plasma frequency in eV, 0.658/RTIME)
   DFIELD  = 0.0000000 0.0000000 0.0000000 field for delta impulse in time
 
 Orbital magnetization related:
   ORBITALMAG=     F  switch on orbital magnetization
   LCHIMAG   =     F  perturbation theory with respect to B field
   DQ        =  0.001000  dq finite difference perturbation B field
   LLRAUG    =     F  two centre corrections for induced B field



--------------------------------------------------------------------------------------------------------


 linear response using symmetry
 charge density and potential will be updated during run
 non-spin polarized calculation
 Variant of blocked Davidson
 Davidson routine will perform the subspace rotation
 perform sub-space diagonalisation
    after iterative eigenvector-optimisation
 modified Broyden-mixing scheme, WC =      100.0
 initial mixing is a Kerker type mixing with AMIX =  0.4000 and BMIX =      1.0000
 Hartree-type preconditioning will be used
 using additional bands           64
 reciprocal scheme for non local part
 calculate Harris-corrections to forces 
   (improved forces if not selfconsistent)
 use gradient corrections 
 use of overlap-Matrix (Vanderbilt PP)
 Gauss-broadening in eV      SIGMA  =   0.06


--------------------------------------------------------------------------------------------------------


  energy-cutoff  :      400.00
  volume of cell :      369.23
      direct lattice vectors                 reciprocal lattice vectors
     7.179998718  0.000000000  0.000000000     0.139275791  0.005575478  0.005812837
    -0.287199145  7.174252646  0.000000000     0.000000000  0.139387341  0.005812838
    -0.287199145 -0.298926356  7.168022376     0.000000000  0.000000000  0.139508493

  length of vectors
     7.179998718  7.179998912  7.179998962     0.139508498  0.139508494  0.139508493


 
 k-points in units of 2pi/SCALE and weight: kpt_density=3000                        
   0.00000000  0.00000000  0.00000000       0.005
   0.02321263  0.00092925  0.00096881       0.028
   0.04642526  0.00185849  0.00193761       0.028
   0.06963790  0.00278774  0.00290642       0.014
   0.02321263  0.02416047  0.00193761       0.028
   0.04642526  0.02508972  0.00290642       0.056
   0.06963790  0.02601896  0.00387522       0.056
  -0.04642526  0.02137273 -0.00096881       0.056
  -0.02321263  0.02230198  0.00000000       0.028
   0.04642526  0.04832094  0.00387522       0.028
   0.06963790  0.04925019  0.00484403       0.056
  -0.04642526  0.04460395  0.00000000       0.028
   0.06963790  0.07248141  0.00581284       0.014
   0.02321263  0.02416047  0.02518903       0.009
   0.04642526  0.02508972  0.02615783       0.028
   0.06963790  0.02601896  0.02712664       0.028
  -0.04642526  0.02137273  0.02228261       0.028
  -0.02321263  0.02230198  0.02325142       0.028
   0.04642526  0.04832094  0.02712664       0.028
   0.06963790  0.04925019  0.02809545       0.056
  -0.04642526  0.04460395  0.02325142       0.056
  -0.02321263  0.04553320  0.02422022       0.056
   0.06963790  0.07248141  0.02906425       0.028
  -0.04642526  0.06783518  0.02422022       0.056
  -0.02321263  0.06876442  0.02518903       0.028
  -0.04642526 -0.04832094  0.01937619       0.028
   0.04642526  0.04832094  0.05037806       0.009
   0.06963790  0.04925019  0.05134686       0.028
  -0.04642526  0.04460395  0.04650283       0.028
   0.06963790  0.07248141  0.05231567       0.028
  -0.04642526  0.06783518  0.04747164       0.028
   0.06963790  0.07248141  0.07556708       0.005
 
 k-points in reciprocal lattice and weights: kpt_density=3000                        
   0.00000000  0.00000000  0.00000000       0.005
   0.16666667 -0.00000000  0.00000000       0.028
   0.33333333 -0.00000000 -0.00000000       0.028
   0.50000000 -0.00000000  0.00000000       0.014
   0.16666667  0.16666667  0.00000000       0.028
   0.33333333  0.16666667  0.00000000       0.056
   0.50000000  0.16666667  0.00000000       0.056
  -0.33333333  0.16666667 -0.00000000       0.056
  -0.16666667  0.16666667 -0.00000000       0.028
   0.33333333  0.33333333  0.00000000       0.028
   0.50000000  0.33333333  0.00000000       0.056
  -0.33333333  0.33333333  0.00000000       0.028
   0.50000000  0.50000000 -0.00000000       0.014
   0.16666667  0.16666667  0.16666667       0.009
   0.33333333  0.16666667  0.16666667       0.028
   0.50000000  0.16666667  0.16666667       0.028
  -0.33333333  0.16666667  0.16666667       0.028
  -0.16666667  0.16666667  0.16666667       0.028
   0.33333333  0.33333333  0.16666667       0.028
   0.50000000  0.33333333  0.16666667       0.056
  -0.33333333  0.33333333  0.16666667       0.056
  -0.16666667  0.33333333  0.16666667       0.056
   0.50000000  0.50000000  0.16666667       0.028
  -0.33333333  0.50000000  0.16666667       0.056
  -0.16666667  0.50000000  0.16666667       0.028
  -0.33333333 -0.33333333  0.16666667       0.028
   0.33333333  0.33333333  0.33333333       0.009
   0.50000000  0.33333333  0.33333333       0.028
  -0.33333333  0.33333333  0.33333333       0.028
   0.50000000  0.50000000  0.33333333       0.028
  -0.33333333  0.50000000  0.33333333       0.028
   0.50000000  0.50000000  0.50000000       0.005
 
 position of ions in fractional coordinates (direct lattice) 
   0.12500000  0.37500000  0.12500000
   0.62500000  0.37500000  0.12500000
   0.12500000  0.87500000  0.12500000
   0.62500000  0.87500000  0.12500000
   0.12500000  0.37500000  0.62500000
   0.62500000  0.37500000  0.62500000
   0.12500000  0.87500000  0.62500000
   0.62500000  0.87500000  0.62500000
   0.00000000  0.00000000  0.25000000
   0.50000000  0.00000000  0.25000000
   0.00000000  0.50000000  0.25000000
   0.50000000  0.50000000  0.25000000
   0.00000000  0.00000000  0.75000000
   0.50000000  0.00000000  0.75000000
   0.00000000  0.50000000  0.75000000
   0.50000000  0.50000000  0.75000000
   0.12500000  0.12500000  0.37500000
   0.62500000  0.12500000  0.37500000
   0.12500000  0.62500000  0.37500000
   0.62500000  0.62500000  0.37500000
   0.12500000  0.12500000  0.87500000
   0.62500000  0.12500000  0.87500000
   0.12500000  0.62500000  0.87500000
   0.62500000  0.62500000  0.87500000
   0.00000000  0.25000000  0.00000000
   0.50000000  0.25000000  0.00000000
   0.00000000  0.75000000  0.00000000
   0.50000000  0.75000000  0.00000000
   0.00000000  0.25000000  0.50000000
   0.50000000  0.25000000  0.50000000
   0.00000000  0.75000000  0.50000000
   0.50000000  0.75000000  0.50000000
   0.37500000  0.37500000  0.37500000
   0.87500000  0.37500000  0.37500000
   0.37500000  0.87500000  0.37500000
   0.87500000  0.87500000  0.37500000
   0.37500000  0.37500000  0.87500000
   0.87500000  0.37500000  0.87500000
   0.37500000  0.87500000  0.87500000
   0.87500000  0.87500000  0.87500000
   0.25000000  0.00000000  0.00000000
   0.75000000  0.00000000  0.00000000
   0.25000000  0.50000000  0.00000000
   0.75000000  0.50000000  0.00000000
   0.25000000  0.00000000  0.50000000
   0.75000000  0.00000000  0.50000000
   0.25000000  0.50000000  0.50000000
   0.75000000  0.50000000  0.50000000
   0.37500000  0.12500000  0.12500000
   0.87500000  0.12500000  0.12500000
   0.37500000  0.62500000  0.12500000
   0.87500000  0.62500000  0.12500000
   0.37500000  0.12500000  0.62500000
   0.87500000  0.12500000  0.62500000
   0.37500000  0.62500000  0.62500000
   0.87500000  0.62500000  0.62500000
   0.25000000  0.25000000  0.25000000
   0.75000000  0.25000000  0.25000000
   0.25000000  0.75000000  0.25000000
   0.75000000  0.75000000  0.25000000
   0.25000000  0.25000000  0.75000000
   0.75000000  0.25000000  0.75000000
   0.25000000  0.75000000  0.75000000
   0.75000000  0.75000000  0.75000000
 
 position of ions in cartesian coordinates  (Angst):
   0.75390027  2.65297895  0.89600280
   4.34389963  2.65297895  0.89600280
   0.61030069  6.24010527  0.89600280
   4.20030005  6.24010527  0.89600280
   0.61030069  2.50351577  4.48001399
   4.20030005  2.50351577  4.48001399
   0.46670112  6.09064209  4.48001399
   4.05670048  6.09064209  4.48001399
  -0.07179979 -0.07473159  1.79200559
   3.51819957 -0.07473159  1.79200559
  -0.21539936  3.51239473  1.79200559
   3.37460000  3.51239473  1.79200559
  -0.21539936 -0.22419477  5.37601678
   3.37460000 -0.22419477  5.37601678
  -0.35899893  3.36293156  5.37601678
   3.23100043  3.36293156  5.37601678
   0.75390027  0.78468420  2.68800839
   4.34389963  0.78468420  2.68800839
   0.61030069  4.37181052  2.68800839
   4.20030005  4.37181052  2.68800839
   0.61030069  0.63522102  6.27201958
   4.20030005  0.63522102  6.27201958
   0.46670112  4.22234734  6.27201958
   4.05670048  4.22234734  6.27201958
  -0.07179979  1.79356316  0.00000000
   3.51819957  1.79356316  0.00000000
  -0.21539936  5.38068948  0.00000000
   3.37460000  5.38068948  0.00000000
  -0.21539936  1.64409998  3.58401119
   3.37460000  1.64409998  3.58401119
  -0.35899893  5.23122631  3.58401119
   3.23100043  5.23122631  3.58401119
   2.47710016  2.57824736  2.68800839
   6.06709952  2.57824736  2.68800839
   2.33350059  6.16537368  2.68800839
   5.92349995  6.16537368  2.68800839
   2.33350059  2.42878418  6.27201958
   5.92349995  2.42878418  6.27201958
   2.18990102  6.01591050  6.27201958
   5.77990037  6.01591050  6.27201958
   1.79499968  0.00000000  0.00000000
   5.38499904  0.00000000  0.00000000
   1.65140011  3.58712632  0.00000000
   5.24139947  3.58712632  0.00000000
   1.65140011 -0.14946318  3.58401119
   5.24139947 -0.14946318  3.58401119
   1.50780053  3.43766314  3.58401119
   5.09779989  3.43766314  3.58401119
   2.62069973  0.85941579  0.89600280
   6.21069909  0.85941579  0.89600280
   2.47710016  4.44654211  0.89600280
   6.06709952  4.44654211  0.89600280
   2.47710016  0.70995261  4.48001399
   6.06709952  0.70995261  4.48001399
   2.33350059  4.29707893  4.48001399
   5.92349995  4.29707893  4.48001399
   1.65140011  1.71883157  1.79200559
   5.24139947  1.71883157  1.79200559
   1.50780053  5.30595790  1.79200559
   5.09779989  5.30595790  1.79200559
   1.50780053  1.56936839  5.37601678
   5.09779989  1.56936839  5.37601678
   1.36420096  5.15649472  5.37601678
   4.95420032  5.15649472  5.37601678
 


--------------------------------------------------------------------------------------------------------


 k-point  1 :   0.0000 0.0000 0.0000  plane waves:    6751
 k-point  2 :   0.1667-0.0000 0.0000  plane waves:    6708
 k-point  3 :   0.3333-0.0000-0.0000  plane waves:    6709
 k-point  4 :   0.5000-0.0000 0.0000  plane waves:    6724
 k-point  5 :   0.1667 0.1667 0.0000  plane waves:    6686
 k-point  6 :   0.3333 0.1667 0.0000  plane waves:    6701
 k-point  7 :   0.5000 0.1667 0.0000  plane waves:    6703
 k-point  8 :  -0.3333 0.1667-0.0000  plane waves:    6721
 k-point  9 :  -0.1667 0.1667-0.0000  plane waves:    6713
 k-point 10 :   0.3333 0.3333 0.0000  plane waves:    6714
 k-point 11 :   0.5000 0.3333 0.0000  plane waves:    6706
 k-point 12 :  -0.3333 0.3333 0.0000  plane waves:    6721
 k-point 13 :   0.5000 0.5000-0.0000  plane waves:    6716
 k-point 14 :   0.1667 0.1667 0.1667  plane waves:    6718
 k-point 15 :   0.3333 0.1667 0.1667  plane waves:    6710
 k-point 16 :   0.5000 0.1667 0.1667  plane waves:    6707
 k-point 17 :  -0.3333 0.1667 0.1667  plane waves:    6719
 k-point 18 :  -0.1667 0.1667 0.1667  plane waves:    6713
 k-point 19 :   0.3333 0.3333 0.1667  plane waves:    6705
 k-point 20 :   0.5000 0.3333 0.1667  plane waves:    6711
 k-point 21 :  -0.3333 0.3333 0.1667  plane waves:    6717
 k-point 22 :  -0.1667 0.3333 0.1667  plane waves:    6717
 k-point 23 :   0.5000 0.5000 0.1667  plane waves:    6722
 k-point 24 :  -0.3333 0.5000 0.1667  plane waves:    6714
 k-point 25 :  -0.1667 0.5000 0.1667  plane waves:    6718
 k-point 26 :  -0.3333-0.3333 0.1667  plane waves:    6708
 k-point 27 :   0.3333 0.3333 0.3333  plane waves:    6688
 k-point 28 :   0.5000 0.3333 0.3333  plane waves:    6694
 k-point 29 :  -0.3333 0.3333 0.3333  plane waves:    6702
 k-point 30 :   0.5000 0.5000 0.3333  plane waves:    6694
 k-point 31 :  -0.3333 0.5000 0.3333  plane waves:    6690
 k-point 32 :   0.5000 0.5000 0.5000  plane waves:    6678

 maximum and minimum number of plane-waves per node :      6751     6678

 maximum number of plane-waves:      6751
 maximum index in each direction: 
   IXMAX=   12   IYMAX=   12   IZMAX=   11
   IXMIN=  -12   IYMIN=  -12   IZMIN=  -12


 serial   3D FFT for wavefunctions
 parallel 3D FFT for charge:
    minimum data exchange during FFTs selected (reduces bandwidth)


 total amount of memory used by VASP MPI-rank0    83596. kBytes
=======================================================================

   base      :      30000. kBytes
   nonl-proj :      20742. kBytes
   fftplans  :       4537. kBytes
   grid      :       5806. kBytes
   one-center:        196. kBytes
   wavefun   :      22315. kBytes
 
     INWAV:  cpu time    0.0004: real time    0.0005
 Broyden mixing: mesh for mixing (old mesh)
   NGX = 23   NGY = 23   NGZ = 23
  (NGX  = 96   NGY  = 96   NGZ  = 96)
  gives a total of  12167 points

 initial charge density was supplied:
 charge density of overlapping atoms calculated
 number of electron     256.0000000 magnetization 
 keeping initial charge density in first step


--------------------------------------------------------------------------------------------------------


 Maximum index for augmentation-charges         1095 (set IRDMAX)


--------------------------------------------------------------------------------------------------------


 First call to EWALD:  gamma=   0.247
 Maximum number of real-space cells 3x 3x 3
 Maximum number of reciprocal cells 3x 3x 3

    FEWALD:  cpu time    0.0103: real time    0.0103


--------------------------------------- Iteration      1(   1)  ---------------------------------------


    POTLOK:  cpu time    0.0648: real time    0.1152
    SETDIJ:  cpu time    0.0466: real time    0.0468
     EDDAV:  cpu time   22.1354: real time   22.1491
       DOS:  cpu time    0.0072: real time    0.0072
    --------------------------------------------
      LOOP:  cpu time   22.2541: real time   22.3184

 eigenvalue-minimisations  : 12288
 total energy-change (2. order) : 0.5092339E+03  (-0.1136648E+05)
 number of electron     256.0000000 magnetization 
 augmentation part      256.0000000 magnetization 

 Free energy of the ion-electron system (eV)
  ---------------------------------------------------
  alpha Z        PSCENC =       903.88141499
  Ewald energy   TEWEN  =    -11061.54255791
  -Hartree energ DENC   =      -580.16928497
  -exchange      EXHF   =         0.00000000
  -V(xc)+E(xc)   XCENC  =       911.82141539
  PAW double counting   =      2421.21235816    -2494.84305711
  entropy T*S    EENTRO =        -0.01360292
  eigenvalues    EBANDS =       992.74485060
  atomic energy  EATOM  =      9416.14232778
  Solvation  Ediel_sol  =         0.00000000
  ---------------------------------------------------
  free energy    TOTEN  =       509.23386400 eV

  energy without entropy =      509.24746692  energy(sigma->0) =      509.24066546


--------------------------------------------------------------------------------------------------------




--------------------------------------- Iteration      1(   2)  ---------------------------------------


     EDDAV:  cpu time   27.7660: real time   27.7677
       DOS:  cpu time    0.0038: real time    0.0038
    --------------------------------------------
      LOOP:  cpu time   27.7698: real time   27.7715

 eigenvalue-minimisations  : 16224
 total energy-change (2. order) :-0.1065267E+04  (-0.1015409E+04)
 number of electron     256.0000000 magnetization 
 augmentation part      256.0000000 magnetization 

 Free energy of the ion-electron system (eV)
  ---------------------------------------------------
  alpha Z        PSCENC =       903.88141499
  Ewald energy   TEWEN  =    -11061.54255791
  -Hartree energ DENC   =      -580.16928497
  -exchange      EXHF   =         0.00000000
  -V(xc)+E(xc)   XCENC  =       911.82141539
  PAW double counting   =      2421.21235816    -2494.84305711
  entropy T*S    EENTRO =        -0.00000000
  eigenvalues    EBANDS =       -72.53558129
  atomic energy  EATOM  =      9416.14232778
  Solvation  Ediel_sol  =         0.00000000
  ---------------------------------------------------
  free energy    TOTEN  =      -556.03296496 eV

  energy without entropy =     -556.03296496  energy(sigma->0) =     -556.03296496


--------------------------------------------------------------------------------------------------------




--------------------------------------- Iteration      1(   3)  ---------------------------------------


     EDDAV:  cpu time   27.8957: real time   27.8976
       DOS:  cpu time    0.0039: real time    0.0039
    --------------------------------------------
      LOOP:  cpu time   27.8997: real time   27.9015

 eigenvalue-minimisations  : 16192
 total energy-change (2. order) :-0.4195213E+02  (-0.4169935E+02)
 number of electron     256.0000000 magnetization 
 augmentation part      256.0000000 magnetization 

 Free energy of the ion-electron system (eV)
  ---------------------------------------------------
  alpha Z        PSCENC =       903.88141499
  Ewald energy   TEWEN  =    -11061.54255791
  -Hartree energ DENC   =      -580.16928497
  -exchange      EXHF   =         0.00000000
  -V(xc)+E(xc)   XCENC  =       911.82141539
  PAW double counting   =      2421.21235816    -2494.84305711
  entropy T*S    EENTRO =        -0.00000000
  eigenvalues    EBANDS =      -114.48771609
  atomic energy  EATOM  =      9416.14232778
  Solvation  Ediel_sol  =         0.00000000
  ---------------------------------------------------
  free energy    TOTEN  =      -597.98509976 eV

  energy without entropy =     -597.98509976  energy(sigma->0) =     -597.98509976


--------------------------------------------------------------------------------------------------------




--------------------------------------- Iteration      1(   4)  ---------------------------------------


     EDDAV:  cpu time   27.4129: real time   27.4146
       DOS:  cpu time    0.0037: real time    0.0037
    --------------------------------------------
      LOOP:  cpu time   27.4167: real time   27.4184

 eigenvalue-minimisations  : 16384
 total energy-change (2. order) :-0.4624419E+00  (-0.4615332E+00)
 number of electron     256.0000000 magnetization 
 augmentation part      256.0000000 magnetization 

 Free energy of the ion-electron system (eV)
  ---------------------------------------------------
  alpha Z        PSCENC =       903.88141499
  Ewald energy   TEWEN  =    -11061.54255791
  -Hartree energ DENC   =      -580.16928497
  -exchange      EXHF   =         0.00000000
  -V(xc)+E(xc)   XCENC  =       911.82141539
  PAW double counting   =      2421.21235816    -2494.84305711
  entropy T*S    EENTRO =        -0.00000000
  eigenvalues    EBANDS =      -114.95015802
  atomic energy  EATOM  =      9416.14232778
  Solvation  Ediel_sol  =         0.00000000
  ---------------------------------------------------
  free energy    TOTEN  =      -598.44754169 eV

  energy without entropy =     -598.44754169  energy(sigma->0) =     -598.44754169


--------------------------------------------------------------------------------------------------------




--------------------------------------- Iteration      1(   5)  ---------------------------------------


     EDDAV:  cpu time   25.9307: real time   25.9324
       DOS:  cpu time    0.0043: real time    0.0043
    CHARGE:  cpu time    0.6435: real time    0.6438
    MIXING:  cpu time    0.0039: real time    0.0039
    --------------------------------------------
      LOOP:  cpu time   26.5824: real time   26.5844

 eigenvalue-minimisations  : 15296
 total energy-change (2. order) :-0.9660337E-02  (-0.9656241E-02)
 number of electron     255.9999994 magnetization 
 augmentation part        6.2120316 magnetization 

 Broyden mixing:
  rms(total) = 0.26574E+01    rms(broyden)= 0.26568E+01
  rms(prec ) = 0.38878E+01
  weight for this iteration     100.00

 Free energy of the ion-electron system (eV)
  ---------------------------------------------------
  alpha Z        PSCENC =       903.88141499
  Ewald energy   TEWEN  =    -11061.54255791
  -Hartree energ DENC   =      -580.16928497
  -exchange      EXHF   =         0.00000000
  -V(xc)+E(xc)   XCENC  =       911.82141539
  PAW double counting   =      2421.21235816    -2494.84305711
  entropy T*S    EENTRO =        -0.00000000
  eigenvalues    EBANDS =      -114.95981836
  atomic energy  EATOM  =      9416.14232778
  Solvation  Ediel_sol  =         0.00000000
  ---------------------------------------------------
  free energy    TOTEN  =      -598.45720203 eV

  energy without entropy =     -598.45720203  energy(sigma->0) =     -598.45720203


--------------------------------------------------------------------------------------------------------




--------------------------------------- Iteration      1(   6)  ---------------------------------------


    POTLOK:  cpu time    0.0611: real time    0.0614
    SETDIJ:  cpu time    0.0428: real time    0.0428
     EDDAV:  cpu time   24.6568: real time   24.6580
       DOS:  cpu time    0.0040: real time    0.0040
    CHARGE:  cpu time    0.6419: real time    0.6420
    MIXING:  cpu time    0.0040: real time    0.0040
    --------------------------------------------
      LOOP:  cpu time   25.4106: real time   25.4123

 eigenvalue-minimisations  : 14400
 total energy-change (2. order) : 0.1483782E+02  (-0.9944148E+00)
 number of electron     255.9999994 magnetization 
 augmentation part        6.0685773 magnetization 

 Broyden mixing:
  rms(total) = 0.14596E+01    rms(broyden)= 0.14595E+01
  rms(prec ) = 0.21147E+01
  weight for this iteration     100.00

 eigenvalues of (default mixing * dielectric matrix)
  average eigenvalue GAMMA=   2.1711
  2.1711

 Free energy of the ion-electron system (eV)
  ---------------------------------------------------
  alpha Z        PSCENC =       903.88141499
  Ewald energy   TEWEN  =    -11061.54255791
  -Hartree energ DENC   =      -701.11881649
  -exchange      EXHF   =         0.00000000
  -V(xc)+E(xc)   XCENC  =       923.06510257
  PAW double counting   =      3131.76136196    -3209.59926719
  entropy T*S    EENTRO =        -0.00000000
  eigenvalues    EBANDS =        13.79105268
  atomic energy  EATOM  =      9416.14232778
  Solvation  Ediel_sol  =         0.00000000
  ---------------------------------------------------
  free energy    TOTEN  =      -583.61938162 eV

  energy without entropy =     -583.61938162  energy(sigma->0) =     -583.61938162


--------------------------------------------------------------------------------------------------------




--------------------------------------- Iteration      1(   7)  ---------------------------------------


    POTLOK:  cpu time    0.0647: real time    0.0651
    SETDIJ:  cpu time    0.0410: real time    0.0410
     EDDAV:  cpu time   25.9399: real time   25.9412
       DOS:  cpu time    0.0036: real time    0.0036
    CHARGE:  cpu time    0.6430: real time    0.6430
    MIXING:  cpu time    0.0045: real time    0.0045
    --------------------------------------------
      LOOP:  cpu time   26.6967: real time   26.6983

 eigenvalue-minimisations  : 15296
 total energy-change (2. order) : 0.4986176E+01  (-0.1159113E+01)
 number of electron     255.9999994 magnetization 
 augmentation part        5.9171548 magnetization 

 Broyden mixing:
  rms(total) = 0.19835E+00    rms(broyden)= 0.19737E+00
  rms(prec ) = 0.24362E+00
  weight for this iteration     100.00

 eigenvalues of (default mixing * dielectric matrix)
  average eigenvalue GAMMA=   2.2702
  2.0428  2.4977

 Free energy of the ion-electron system (eV)
  ---------------------------------------------------
  alpha Z        PSCENC =       903.88141499
  Ewald energy   TEWEN  =    -11061.54255791
  -Hartree energ DENC   =      -855.81374386
  -exchange      EXHF   =         0.00000000
  -V(xc)+E(xc)   XCENC  =       937.62610196
  PAW double counting   =      4097.73625806    -4179.57408528
  entropy T*S    EENTRO =        -0.00000000
  eigenvalues    EBANDS =       162.91107897
  atomic energy  EATOM  =      9416.14232778
  Solvation  Ediel_sol  =         0.00000000
  ---------------------------------------------------
  free energy    TOTEN  =      -578.63320528 eV

  energy without entropy =     -578.63320528  energy(sigma->0) =     -578.63320528


--------------------------------------------------------------------------------------------------------




--------------------------------------- Iteration      1(   8)  ---------------------------------------


    POTLOK:  cpu time    0.0682: real time    0.0686
    SETDIJ:  cpu time    0.0421: real time    0.0421
     EDDAV:  cpu time   25.8619: real time   25.8632
       DOS:  cpu time    0.0036: real time    0.0036
    CHARGE:  cpu time    0.6436: real time    0.6436
    MIXING:  cpu time    0.0046: real time    0.0046
    --------------------------------------------
      LOOP:  cpu time   26.6240: real time   26.6257

 eigenvalue-minimisations  : 15456
 total energy-change (2. order) :-0.6498898E-01  (-0.3376117E-01)
 number of electron     255.9999994 magnetization 
 augmentation part        5.9246751 magnetization 

 Broyden mixing:
  rms(total) = 0.22684E-01    rms(broyden)= 0.22407E-01
  rms(prec ) = 0.27791E-01
  weight for this iteration     100.00

 eigenvalues of (default mixing * dielectric matrix)
  average eigenvalue GAMMA=   2.0707
  1.4546  2.6588  2.0987

 Free energy of the ion-electron system (eV)
  ---------------------------------------------------
  alpha Z        PSCENC =       903.88141499
  Ewald energy   TEWEN  =    -11061.54255791
  -Hartree energ DENC   =      -857.93924444
  -exchange      EXHF   =         0.00000000
  -V(xc)+E(xc)   XCENC  =       937.86493245
  PAW double counting   =      4161.02205605    -4241.79555738
  entropy T*S    EENTRO =        -0.00000000
  eigenvalues    EBANDS =       163.66843420
  atomic energy  EATOM  =      9416.14232778
  Solvation  Ediel_sol  =         0.00000000
  ---------------------------------------------------
  free energy    TOTEN  =      -578.69819426 eV

  energy without entropy =     -578.69819426  energy(sigma->0) =     -578.69819426


--------------------------------------------------------------------------------------------------------




--------------------------------------- Iteration      1(   9)  ---------------------------------------


    POTLOK:  cpu time    0.0669: real time    0.0718
    SETDIJ:  cpu time    0.0406: real time    0.0406
     EDDAV:  cpu time   27.0340: real time   27.0353
       DOS:  cpu time    0.0040: real time    0.0040
    CHARGE:  cpu time    0.6439: real time    0.6439
    MIXING:  cpu time    0.0077: real time    0.0077
    --------------------------------------------
      LOOP:  cpu time   27.7971: real time   27.8033

 eigenvalue-minimisations  : 15808
 total energy-change (2. order) :-0.2432559E-02  (-0.4495666E-03)
 number of electron     255.9999994 magnetization 
 augmentation part        5.9233796 magnetization 

 Broyden mixing:
  rms(total) = 0.96013E-02    rms(broyden)= 0.95794E-02
  rms(prec ) = 0.11898E-01
  weight for this iteration     100.00

 eigenvalues of (default mixing * dielectric matrix)
  average eigenvalue GAMMA=   1.9904
  0.9640  2.6813  2.3337  1.9824

 Free energy of the ion-electron system (eV)
  ---------------------------------------------------
  alpha Z        PSCENC =       903.88141499
  Ewald energy   TEWEN  =    -11061.54255791
  -Hartree energ DENC   =      -858.09207540
  -exchange      EXHF   =         0.00000000
  -V(xc)+E(xc)   XCENC  =       937.87907220
  PAW double counting   =      4160.36389235    -4241.06054219
  entropy T*S    EENTRO =        -0.00000000
  eigenvalues    EBANDS =       163.72784136
  atomic energy  EATOM  =      9416.14232778
  Solvation  Ediel_sol  =         0.00000000
  ---------------------------------------------------
  free energy    TOTEN  =      -578.70062682 eV

  energy without entropy =     -578.70062682  energy(sigma->0) =     -578.70062682


--------------------------------------------------------------------------------------------------------




--------------------------------------- Iteration      1(  10)  ---------------------------------------


    POTLOK:  cpu time    0.0607: real time    0.0612
    SETDIJ:  cpu time    0.0398: real time    0.0398
     EDDAV:  cpu time   25.6340: real time   25.6353
       DOS:  cpu time    0.0037: real time    0.0037
    CHARGE:  cpu time    0.6484: real time    0.6485
    MIXING:  cpu time    0.0051: real time    0.0051
    --------------------------------------------
      LOOP:  cpu time   26.3916: real time   26.3934

 eigenvalue-minimisations  : 14944
 total energy-change (2. order) :-0.4948094E-03  (-0.3442763E-04)
 number of electron     255.9999994 magnetization 
 augmentation part        5.9231735 magnetization 

 Broyden mixing:
  rms(total) = 0.12910E-02    rms(broyden)= 0.12805E-02
  rms(prec ) = 0.17137E-02
  weight for this iteration     100.00

 eigenvalues of (default mixing * dielectric matrix)
  average eigenvalue GAMMA=   1.9492
  2.9099  2.5455  2.0517  0.9834  1.2557

 Free energy of the ion-electron system (eV)
  ---------------------------------------------------
  alpha Z        PSCENC =       903.88141499
  Ewald energy   TEWEN  =    -11061.54255791
  -Hartree energ DENC   =      -858.47447994
  -exchange      EXHF   =         0.00000000
  -V(xc)+E(xc)   XCENC  =       937.91221297
  PAW double counting   =      4157.31227089    -4238.01702379
  entropy T*S    EENTRO =        -0.00000000
  eigenvalues    EBANDS =       164.08471338
  atomic energy  EATOM  =      9416.14232778
  Solvation  Ediel_sol  =         0.00000000
  ---------------------------------------------------
  free energy    TOTEN  =      -578.70112163 eV

  energy without entropy =     -578.70112163  energy(sigma->0) =     -578.70112163


--------------------------------------------------------------------------------------------------------




--------------------------------------- Iteration      1(  11)  ---------------------------------------


    POTLOK:  cpu time    0.0583: real time    0.0588
    SETDIJ:  cpu time    0.0402: real time    0.0402
     EDDAV:  cpu time   27.3903: real time   27.3917
       DOS:  cpu time    0.0037: real time    0.0037
    CHARGE:  cpu time    0.6426: real time    0.6426
    MIXING:  cpu time    0.0049: real time    0.0049
    --------------------------------------------
      LOOP:  cpu time   28.1400: real time   28.1418

 eigenvalue-minimisations  : 15872
 total energy-change (2. order) :-0.2150922E-04  (-0.1750462E-05)
 number of electron     255.9999994 magnetization 
 augmentation part        5.9230520 magnetization 

 Broyden mixing:
  rms(total) = 0.42326E-03    rms(broyden)= 0.42044E-03
  rms(prec ) = 0.50318E-03
  weight for this iteration     100.00

 eigenvalues of (default mixing * dielectric matrix)
  average eigenvalue GAMMA=   1.9715
  2.8718  2.4594  2.4594  2.0405  0.9670  1.0309

 Free energy of the ion-electron system (eV)
  ---------------------------------------------------
  alpha Z        PSCENC =       903.88141499
  Ewald energy   TEWEN  =    -11061.54255791
  -Hartree energ DENC   =      -858.58456320
  -exchange      EXHF   =         0.00000000
  -V(xc)+E(xc)   XCENC  =       937.92200231
  PAW double counting   =      4157.03639017    -4237.74379386
  entropy T*S    EENTRO =        -0.00000000
  eigenvalues    EBANDS =       164.18763657
  atomic energy  EATOM  =      9416.14232778
  Solvation  Ediel_sol  =         0.00000000
  ---------------------------------------------------
  free energy    TOTEN  =      -578.70114314 eV

  energy without entropy =     -578.70114314  energy(sigma->0) =     -578.70114314


--------------------------------------------------------------------------------------------------------




--------------------------------------- Iteration      1(  12)  ---------------------------------------


    POTLOK:  cpu time    0.0688: real time    0.0691
    SETDIJ:  cpu time    0.0403: real time    0.0403
     EDDAV:  cpu time   27.0195: real time   27.0209
       DOS:  cpu time    0.0039: real time    0.0039
    CHARGE:  cpu time    0.6424: real time    0.6425
    MIXING:  cpu time    0.0053: real time    0.0053
    --------------------------------------------
      LOOP:  cpu time   27.7802: real time   27.7820

 eigenvalue-minimisations  : 15872
 total energy-change (2. order) : 0.1022891E-06  (-0.4942883E-07)
 number of electron     255.9999994 magnetization 
 augmentation part        5.9230530 magnetization 

 Broyden mixing:
  rms(total) = 0.80414E-04    rms(broyden)= 0.77468E-04
  rms(prec ) = 0.91435E-04
  weight for this iteration     100.00

 eigenvalues of (default mixing * dielectric matrix)
  average eigenvalue GAMMA=   1.9548
  1.0041  1.0041  2.8671  2.5149  2.1278  2.1278  2.0376

 Free energy of the ion-electron system (eV)
  ---------------------------------------------------
  alpha Z        PSCENC =       903.88141499
  Ewald energy   TEWEN  =    -11061.54255791
  -Hartree energ DENC   =      -858.57452171
  -exchange      EXHF   =         0.00000000
  -V(xc)+E(xc)   XCENC  =       937.92103959
  PAW double counting   =      4157.07889650    -4237.78508252
  entropy T*S    EENTRO =        -0.00000000
  eigenvalues    EBANDS =       164.17734024
  atomic energy  EATOM  =      9416.14232778
  Solvation  Ediel_sol  =         0.00000000
  ---------------------------------------------------
  free energy    TOTEN  =      -578.70114303 eV

  energy without entropy =     -578.70114303  energy(sigma->0) =     -578.70114303


--------------------------------------------------------------------------------------------------------




--------------------------------------- Iteration      1(  13)  ---------------------------------------


    POTLOK:  cpu time    0.0590: real time    0.0593
    SETDIJ:  cpu time    0.0394: real time    0.0394
     EDDAV:  cpu time   25.4456: real time   25.4468
       DOS:  cpu time    0.0038: real time    0.0038
    CHARGE:  cpu time    0.6415: real time    0.6415
    MIXING:  cpu time    0.0053: real time    0.0053
    --------------------------------------------
      LOOP:  cpu time   26.1946: real time   26.1962

 eigenvalue-minimisations  : 13600
 total energy-change (2. order) :-0.3370951E-07  (-0.2635688E-08)
 number of electron     255.9999994 magnetization 
 augmentation part        5.9230516 magnetization 

 Broyden mixing:
  rms(total) = 0.33532E-04    rms(broyden)= 0.26701E-04
  rms(prec ) = 0.30983E-04
  weight for this iteration     100.00
  WARNING: grid for Broyden might be to small

 eigenvalues of (default mixing * dielectric matrix)
  average eigenvalue GAMMA=   1.9010
  2.9482  2.6220  2.4637  2.0698  1.9475  1.0040  1.0040  1.1489

 Free energy of the ion-electron system (eV)
  ---------------------------------------------------
  alpha Z        PSCENC =       903.88141499
  Ewald energy   TEWEN  =    -11061.54255791
  -Hartree energ DENC   =      -858.57245436
  -exchange      EXHF   =         0.00000000
  -V(xc)+E(xc)   XCENC  =       937.92085736
  PAW double counting   =      4157.08207627    -4237.78811838
  entropy T*S    EENTRO =        -0.00000000
  eigenvalues    EBANDS =       164.17531117
  atomic energy  EATOM  =      9416.14232778
  Solvation  Ediel_sol  =         0.00000000
  ---------------------------------------------------
  free energy    TOTEN  =      -578.70114307 eV

  energy without entropy =     -578.70114307  energy(sigma->0) =     -578.70114307


--------------------------------------------------------------------------------------------------------




--------------------------------------- Iteration      1(  14)  ---------------------------------------


    POTLOK:  cpu time    0.0666: real time    0.0669
    SETDIJ:  cpu time    0.0393: real time    0.0393
     EDDAV:  cpu time   21.6871: real time   21.6882
       DOS:  cpu time    0.0037: real time    0.0037
    CHARGE:  cpu time    0.6604: real time    0.6604
    MIXING:  cpu time    0.0056: real time    0.0056
    --------------------------------------------
      LOOP:  cpu time   22.4627: real time   22.4642

 eigenvalue-minimisations  : 11296
 total energy-change (2. order) :-0.5349648E-07  (-0.5018781E-09)
 number of electron     255.9999994 magnetization 
 augmentation part        5.9230522 magnetization 

 Broyden mixing:
  rms(total) = 0.20367E-04    rms(broyden)= 0.23516E-05
  rms(prec ) = 0.28563E-05
  weight for this iteration     100.00
  WARNING: grid for Broyden might be to small

 eigenvalues of (default mixing * dielectric matrix)
  average eigenvalue GAMMA=   1.8909
  2.9180  2.5678  2.5580  2.0561  2.0561  1.8398  1.0149  1.0149  0.9928

 Free energy of the ion-electron system (eV)
  ---------------------------------------------------
  alpha Z        PSCENC =       903.88141499
  Ewald energy   TEWEN  =    -11061.54255791
  -Hartree energ DENC   =      -858.57213337
  -exchange      EXHF   =         0.00000000
  -V(xc)+E(xc)   XCENC  =       937.92082789
  PAW double counting   =      4157.08330591    -4237.78925532
  entropy T*S    EENTRO =        -0.00000000
  eigenvalues    EBANDS =       164.17492690
  atomic energy  EATOM  =      9416.14232778
  Solvation  Ediel_sol  =         0.00000000
  ---------------------------------------------------
  free energy    TOTEN  =      -578.70114312 eV

  energy without entropy =     -578.70114312  energy(sigma->0) =     -578.70114312


--------------------------------------------------------------------------------------------------------




--------------------------------------- Iteration      1(  15)  ---------------------------------------


    POTLOK:  cpu time    0.0583: real time    0.0588
    SETDIJ:  cpu time    0.0421: real time    0.0421
     EDDAV:  cpu time   18.8934: real time   18.8943
       DOS:  cpu time    0.0040: real time    0.0040
    --------------------------------------------
      LOOP:  cpu time   18.9977: real time   18.9991

 eigenvalue-minimisations  :  9440
 total energy-change (2. order) : 0.5531547E-08  (-0.4194012E-10)
 number of electron     255.9999994 magnetization 
 augmentation part        5.9230522 magnetization 

 Free energy of the ion-electron system (eV)
  ---------------------------------------------------
  alpha Z        PSCENC =       903.88141499
  Ewald energy   TEWEN  =    -11061.54255791
  -Hartree energ DENC   =      -858.57230032
  -exchange      EXHF   =         0.00000000
  -V(xc)+E(xc)   XCENC  =       937.92084385
  PAW double counting   =      4157.08489735    -4237.79085960
  entropy T*S    EENTRO =        -0.00000000
  eigenvalues    EBANDS =       164.17509073
  atomic energy  EATOM  =      9416.14232778
  Solvation  Ediel_sol  =         0.00000000
  ---------------------------------------------------
  free energy    TOTEN  =      -578.70114312 eV

  energy without entropy =     -578.70114312  energy(sigma->0) =     -578.70114312


--------------------------------------------------------------------------------------------------------




 average (electrostatic) potential at core
  the test charge radii are     0.6991
  (the norm of the test charge is              1.0000)
       1 -45.6261       2 -45.6261       3 -45.6261       4 -45.6261       5 -45.6261
       6 -45.6261       7 -45.6261       8 -45.6261       9 -45.6261      10 -45.6261
      11 -45.6261      12 -45.6261      13 -45.6261      14 -45.6261      15 -45.6261
      16 -45.6261      17 -45.6261      18 -45.6261      19 -45.6261      20 -45.6261
      21 -45.6261      22 -45.6261      23 -45.6261      24 -45.6261      25 -45.6261
      26 -45.6261      27 -45.6261      28 -45.6261      29 -45.6261      30 -45.6261
      31 -45.6261      32 -45.6261      33 -45.6261      34 -45.6261      35 -45.6261
      36 -45.6261      37 -45.6261      38 -45.6261      39 -45.6261      40 -45.6261
      41 -45.6261      42 -45.6261      43 -45.6261      44 -45.6261      45 -45.6261
      46 -45.6261      47 -45.6261      48 -45.6261      49 -45.6261      50 -45.6261
      51 -45.6261      52 -45.6261      53 -45.6261      54 -45.6261      55 -45.6261
      56 -45.6261      57 -45.6261      58 -45.6261      59 -45.6261      60 -45.6261
      61 -45.6261      62 -45.6261      63 -45.6261      64 -45.6261
 
 
 
 E-fermi :   9.9102     XC(G=0): -13.1374     alpha+bet :-17.4008


 k-point     1 :       0.0000    0.0000    0.0000
  band No.  band energies     occupation 
      1     -11.7565      2.00000
      2      -9.4998      2.00000
      3      -9.4998      2.00000
      4      -9.4998      2.00000
      5      -9.4998      2.00000
      6      -9.4998      2.00000
      7      -9.4998      2.00000
      8      -7.5570      2.00000
      9      -7.5570      2.00000
     10      -7.5570      2.00000
     11      -7.5570      2.00000
     12      -7.5570      2.00000
     13      -7.5570      2.00000
     14      -7.1454      2.00000
     15      -7.1454      2.00000
     16      -7.1454      2.00000
     17      -7.1454      2.00000
     18      -7.1454      2.00000
     19      -7.1454      2.00000
     20      -6.3656      2.00000
     21      -6.3656      2.00000
     22      -6.3656      2.00000
     23      -5.1777      2.00000
     24      -3.7553      2.00000
     25      -3.6595      2.00000
     26      -3.6595      2.00000
     27      -3.6595      2.00000
     28      -3.4088      2.00000
     29      -3.4088      2.00000
     30      -3.4088      2.00000
     31      -2.9089      2.00000
     32      -2.9089      2.00000
     33      -2.9089      2.00000
     34      -2.9089      2.00000
     35      -2.9089      2.00000
     36      -2.9089      2.00000
     37      -2.8962      2.00000
     38      -2.8962      2.00000
     39      -2.8962      2.00000
     40      -1.8571      2.00000
     41      -1.8571      2.00000
     42      -1.8571      2.00000
     43      -1.8571      2.00000
     44      -1.8571      2.00000
     45      -1.8571      2.00000
     46       0.6740      2.00000
     47       0.6740      2.00000
     48       0.6740      2.00000
     49       0.6740      2.00000
     50       0.6740      2.00000
     51       0.6740      2.00000
     52       1.0312      2.00000
     53       1.0312      2.00000
     54       1.0312      2.00000
     55       1.0312      2.00000
     56       1.0312      2.00000
     57       1.0312      2.00000
     58       1.3535      2.00000
     59       1.3535      2.00000
     60       1.3535      2.00000
     61       1.3535      2.00000
     62       1.3535      2.00000
     63       1.3535      2.00000
     64       1.3593      2.00000
     65       1.3593      2.00000
     66       1.3593      2.00000
     67       1.3593      2.00000
     68       1.3593      2.00000
     69       1.3593      2.00000
     70       1.8706      2.00000
     71       1.8706      2.00000
     72       1.8706      2.00000
     73       1.8706      2.00000
     74       1.8706      2.00000
     75       1.8706      2.00000
     76       2.2638      2.00000
     77       2.2638      2.00000
[...]
      4.200300  0.635221  6.272020    -0.111697    0.107315    0.000000  
      0.466701  4.222347  6.272020    -0.111697    0.107315    0.000000  
      4.056700  4.222347  6.272020    -0.111697    0.107315    0.000000  
     -0.071800  1.793563  0.000000    -0.126075    0.121129    0.000000  
      3.518200  1.793563  0.000000    -0.126075    0.121129    0.000000  
     -0.215399  5.380689  0.000000    -0.126075    0.121129    0.000000  
      3.374600  5.380689  0.000000    -0.126075    0.121129    0.000000  
     -0.215399  1.644100  3.584011     0.126075   -0.121129   -0.000000  
      3.374600  1.644100  3.584011     0.126075   -0.121129   -0.000000  
     -0.358999  5.231226  3.584011     0.126075   -0.121129   -0.000000  
      3.231000  5.231226  3.584011     0.126075   -0.121129   -0.000000  
      2.477100  2.578247  2.688008     0.111697   -0.107315   -0.000000  
      6.067100  2.578247  2.688008     0.111697   -0.107315   -0.000000  
      2.333501  6.165374  2.688008     0.111697   -0.107315   -0.000000  
      5.923500  6.165374  2.688008     0.111697   -0.107315   -0.000000  
      2.333501  2.428784  6.272020    -0.111697    0.107315    0.000000  
      5.923500  2.428784  6.272020    -0.111697    0.107315    0.000000  
      2.189901  6.015911  6.272020    -0.111697    0.107315    0.000000  
      5.779900  6.015911  6.272020    -0.111697    0.107315    0.000000  
      1.795000  0.000000  0.000000    -0.126075    0.121129    0.000000  
      5.384999  0.000000  0.000000    -0.126075    0.121129    0.000000  
      1.651400  3.587126  0.000000    -0.126075    0.121129    0.000000  
      5.241399  3.587126  0.000000    -0.126075    0.121129    0.000000  
      1.651400 -0.149463  3.584011     0.126075   -0.121129   -0.000000  
      5.241399 -0.149463  3.584011     0.126075   -0.121129   -0.000000  
      1.507801  3.437663  3.584011     0.126075   -0.121129   -0.000000  
      5.097800  3.437663  3.584011     0.126075   -0.121129   -0.000000  
      2.620700  0.859416  0.896003    -0.061430    0.059020    0.000000  
      6.210699  0.859416  0.896003    -0.061430    0.059020    0.000000  
      2.477100  4.446542  0.896003    -0.061430    0.059020    0.000000  
      6.067100  4.446542  0.896003    -0.061430    0.059020    0.000000  
      2.477100  0.709953  4.480014     0.061430   -0.059020   -0.000000  
      6.067100  0.709953  4.480014     0.061430   -0.059020   -0.000000  
      2.333501  4.297079  4.480014     0.061430   -0.059020   -0.000000  
      5.923500  4.297079  4.480014     0.061430   -0.059020   -0.000000  
      1.651400  1.718832  1.792006     0.018845   -0.018106    0.000000  
      5.241399  1.718832  1.792006     0.018845   -0.018106    0.000000  
      1.507801  5.305958  1.792006     0.018845   -0.018106   -0.000000  
      5.097800  5.305958  1.792006     0.018845   -0.018106    0.000000  
      1.507801  1.569368  5.376017    -0.018845    0.018106   -0.000000  
      5.097800  1.569368  5.376017    -0.018845    0.018106    0.000000  
      1.364201  5.156495  5.376017    -0.018845    0.018106   -0.000000  
      4.954200  5.156495  5.376017    -0.018845    0.018106   -0.000000  
 
 190 f/i=    0.000002 THz     0.000014 2PiTHz    0.000076 cm-1     0.000009 meV
             X         Y         Z           dx          dy          dz
      0.753900  2.652979  0.896003     0.094915   -0.006949   -0.081042  
      4.343900  2.652979  0.896003     0.094915   -0.006949   -0.081042  
      0.610301  6.240105  0.896003     0.094915   -0.006949   -0.081042  
      4.200300  6.240105  0.896003     0.094915   -0.006949   -0.081042  
      0.610301  2.503516  4.480014     0.094915   -0.006949   -0.081042  
      4.200300  2.503516  4.480014     0.094915   -0.006949   -0.081042  
      0.466701  6.090642  4.480014     0.094915   -0.006949   -0.081042  
      4.056700  6.090642  4.480014     0.094915   -0.006949   -0.081042  
     -0.071800 -0.074732  1.792006     0.094915   -0.006949   -0.081042  
      3.518200 -0.074732  1.792006     0.094915   -0.006949   -0.081042  
     -0.215399  3.512395  1.792006     0.094915   -0.006949   -0.081042  
      3.374600  3.512395  1.792006     0.094915   -0.006949   -0.081042  
     -0.215399 -0.224195  5.376017     0.094915   -0.006949   -0.081042  
      3.374600 -0.224195  5.376017     0.094915   -0.006949   -0.081042  
     -0.358999  3.362932  5.376017     0.094915   -0.006949   -0.081042  
      3.231000  3.362932  5.376017     0.094915   -0.006949   -0.081042  
      0.753900  0.784684  2.688008     0.094915   -0.006949   -0.081042  
      4.343900  0.784684  2.688008     0.094915   -0.006949   -0.081042  
      0.610301  4.371811  2.688008     0.094915   -0.006949   -0.081042  
      4.200300  4.371811  2.688008     0.094915   -0.006949   -0.081042  
      0.610301  0.635221  6.272020     0.094915   -0.006949   -0.081042  
      4.200300  0.635221  6.272020     0.094915   -0.006949   -0.081042  
      0.466701  4.222347  6.272020     0.094915   -0.006949   -0.081042  
      4.056700  4.222347  6.272020     0.094915   -0.006949   -0.081042  
     -0.071800  1.793563  0.000000     0.094915   -0.006949   -0.081042  
      3.518200  1.793563  0.000000     0.094915   -0.006949   -0.081042  
     -0.215399  5.380689  0.000000     0.094915   -0.006949   -0.081042  
      3.374600  5.380689  0.000000     0.094915   -0.006949   -0.081042  
     -0.215399  1.644100  3.584011     0.094915   -0.006949   -0.081042  
      3.374600  1.644100  3.584011     0.094915   -0.006949   -0.081042  
     -0.358999  5.231226  3.584011     0.094915   -0.006949   -0.081042  
      3.231000  5.231226  3.584011     0.094915   -0.006949   -0.081042  
      2.477100  2.578247  2.688008     0.094915   -0.006949   -0.081042  
      6.067100  2.578247  2.688008     0.094915   -0.006949   -0.081042  
      2.333501  6.165374  2.688008     0.094915   -0.006949   -0.081042  
      5.923500  6.165374  2.688008     0.094915   -0.006949   -0.081042  
      2.333501  2.428784  6.272020     0.094915   -0.006949   -0.081042  
      5.923500  2.428784  6.272020     0.094915   -0.006949   -0.081042  
      2.189901  6.015911  6.272020     0.094915   -0.006949   -0.081042  
      5.779900  6.015911  6.272020     0.094915   -0.006949   -0.081042  
      1.795000  0.000000  0.000000     0.094915   -0.006949   -0.081042  
      5.384999  0.000000  0.000000     0.094915   -0.006949   -0.081042  
      1.651400  3.587126  0.000000     0.094915   -0.006949   -0.081042  
      5.241399  3.587126  0.000000     0.094915   -0.006949   -0.081042  
      1.651400 -0.149463  3.584011     0.094915   -0.006949   -0.081042  
      5.241399 -0.149463  3.584011     0.094915   -0.006949   -0.081042  
      1.507801  3.437663  3.584011     0.094915   -0.006949   -0.081042  
      5.097800  3.437663  3.584011     0.094915   -0.006949   -0.081042  
      2.620700  0.859416  0.896003     0.094915   -0.006949   -0.081042  
      6.210699  0.859416  0.896003     0.094915   -0.006949   -0.081042  
      2.477100  4.446542  0.896003     0.094915   -0.006949   -0.081042  
      6.067100  4.446542  0.896003     0.094915   -0.006949   -0.081042  
      2.477100  0.709953  4.480014     0.094915   -0.006949   -0.081042  
      6.067100  0.709953  4.480014     0.094915   -0.006949   -0.081042  
      2.333501  4.297079  4.480014     0.094915   -0.006949   -0.081042  
      5.923500  4.297079  4.480014     0.094915   -0.006949   -0.081042  
      1.651400  1.718832  1.792006     0.094915   -0.006949   -0.081042  
      5.241399  1.718832  1.792006     0.094915   -0.006949   -0.081042  
      1.507801  5.305958  1.792006     0.094915   -0.006949   -0.081042  
      5.097800  5.305958  1.792006     0.094915   -0.006949   -0.081042  
      1.507801  1.569368  5.376017     0.094915   -0.006949   -0.081042  
      5.097800  1.569368  5.376017     0.094915   -0.006949   -0.081042  
      1.364201  5.156495  5.376017     0.094915   -0.006949   -0.081042  
      4.954200  5.156495  5.376017     0.094915   -0.006949   -0.081042  
 
 191 f/i=    0.000003 THz     0.000017 2PiTHz    0.000092 cm-1     0.000011 meV
             X         Y         Z           dx          dy          dz
      0.753900  2.652979  0.896003     0.047371   -0.096520    0.063756  
      4.343900  2.652979  0.896003     0.047371   -0.096520    0.063756  
      0.610301  6.240105  0.896003     0.047371   -0.096520    0.063756  
      4.200300  6.240105  0.896003     0.047371   -0.096520    0.063756  
      0.610301  2.503516  4.480014     0.047371   -0.096520    0.063756  
      4.200300  2.503516  4.480014     0.047371   -0.096520    0.063756  
      0.466701  6.090642  4.480014     0.047371   -0.096520    0.063756  
      4.056700  6.090642  4.480014     0.047371   -0.096520    0.063756  
     -0.071800 -0.074732  1.792006     0.047371   -0.096520    0.063756  
      3.518200 -0.074732  1.792006     0.047371   -0.096520    0.063756  
     -0.215399  3.512395  1.792006     0.047371   -0.096520    0.063756  
      3.374600  3.512395  1.792006     0.047371   -0.096520    0.063756  
     -0.215399 -0.224195  5.376017     0.047371   -0.096520    0.063756  
      3.374600 -0.224195  5.376017     0.047371   -0.096520    0.063756  
     -0.358999  3.362932  5.376017     0.047371   -0.096520    0.063756  
      3.231000  3.362932  5.376017     0.047371   -0.096520    0.063756  
      0.753900  0.784684  2.688008     0.047371   -0.096520    0.063756  
      4.343900  0.784684  2.688008     0.047371   -0.096520    0.063756  
      0.610301  4.371811  2.688008     0.047371   -0.096520    0.063756  
      4.200300  4.371811  2.688008     0.047371   -0.096520    0.063756  
      0.610301  0.635221  6.272020     0.047371   -0.096520    0.063756  
      4.200300  0.635221  6.272020     0.047371   -0.096520    0.063756  
      0.466701  4.222347  6.272020     0.047371   -0.096520    0.063756  
      4.056700  4.222347  6.272020     0.047371   -0.096520    0.063756  
     -0.071800  1.793563  0.000000     0.047371   -0.096520    0.063756  
      3.518200  1.793563  0.000000     0.047371   -0.096520    0.063756  
     -0.215399  5.380689  0.000000     0.047371   -0.096520    0.063756  
      3.374600  5.380689  0.000000     0.047371   -0.096520    0.063756  
     -0.215399  1.644100  3.584011     0.047371   -0.096520    0.063756  
      3.374600  1.644100  3.584011     0.047371   -0.096520    0.063756  
     -0.358999  5.231226  3.584011     0.047371   -0.096520    0.063756  
      3.231000  5.231226  3.584011     0.047371   -0.096520    0.063756  
      2.477100  2.578247  2.688008     0.047371   -0.096520    0.063756  
      6.067100  2.578247  2.688008     0.047371   -0.096520    0.063756  
      2.333501  6.165374  2.688008     0.047371   -0.096520    0.063756  
      5.923500  6.165374  2.688008     0.047371   -0.096520    0.063756  
      2.333501  2.428784  6.272020     0.047371   -0.096520    0.063756  
      5.923500  2.428784  6.272020     0.047371   -0.096520    0.063756  
      2.189901  6.015911  6.272020     0.047371   -0.096520    0.063756  
      5.779900  6.015911  6.272020     0.047371   -0.096520    0.063756  
      1.795000  0.000000  0.000000     0.047371   -0.096520    0.063756  
      5.384999  0.000000  0.000000     0.047371   -0.096520    0.063756  
      1.651400  3.587126  0.000000     0.047371   -0.096520    0.063756  
      5.241399  3.587126  0.000000     0.047371   -0.096520    0.063756  
      1.651400 -0.149463  3.584011     0.047371   -0.096520    0.063756  
      5.241399 -0.149463  3.584011     0.047371   -0.096520    0.063756  
      1.507801  3.437663  3.584011     0.047371   -0.096520    0.063756  
      5.097800  3.437663  3.584011     0.047371   -0.096520    0.063756  
      2.620700  0.859416  0.896003     0.047371   -0.096520    0.063756  
      6.210699  0.859416  0.896003     0.047371   -0.096520    0.063756  
      2.477100  4.446542  0.896003     0.047371   -0.096520    0.063756  
      6.067100  4.446542  0.896003     0.047371   -0.096520    0.063756  
      2.477100  0.709953  4.480014     0.047371   -0.096520    0.063756  
      6.067100  0.709953  4.480014     0.047371   -0.096520    0.063756  
      2.333501  4.297079  4.480014     0.047371   -0.096520    0.063756  
      5.923500  4.297079  4.480014     0.047371   -0.096520    0.063756  
      1.651400  1.718832  1.792006     0.047371   -0.096520    0.063756  
      5.241399  1.718832  1.792006     0.047371   -0.096520    0.063756  
      1.507801  5.305958  1.792006     0.047371   -0.096520    0.063756  
      5.097800  5.305958  1.792006     0.047371   -0.096520    0.063756  
      1.507801  1.569368  5.376017     0.047371   -0.096520    0.063756  
      5.097800  1.569368  5.376017     0.047371   -0.096520    0.063756  
      1.364201  5.156495  5.376017     0.047371   -0.096520    0.063756  
      4.954200  5.156495  5.376017     0.047371   -0.096520    0.063756  
 
 192 f/i=    0.000006 THz     0.000040 2PiTHz    0.000213 cm-1     0.000026 meV
             X         Y         Z           dx          dy          dz
      0.753900  2.652979  0.896003     0.066122    0.079124    0.070656  
      4.343900  2.652979  0.896003     0.066122    0.079124    0.070656  
      0.610301  6.240105  0.896003     0.066122    0.079124    0.070656  
      4.200300  6.240105  0.896003     0.066122    0.079124    0.070656  
      0.610301  2.503516  4.480014     0.066122    0.079124    0.070656  
      4.200300  2.503516  4.480014     0.066122    0.079124    0.070656  
      0.466701  6.090642  4.480014     0.066122    0.079124    0.070656  
      4.056700  6.090642  4.480014     0.066122    0.079124    0.070656  
     -0.071800 -0.074732  1.792006     0.066122    0.079124    0.070656  
      3.518200 -0.074732  1.792006     0.066122    0.079124    0.070656  
     -0.215399  3.512395  1.792006     0.066122    0.079124    0.070656  
      3.374600  3.512395  1.792006     0.066122    0.079124    0.070656  
     -0.215399 -0.224195  5.376017     0.066122    0.079124    0.070656  
      3.374600 -0.224195  5.376017     0.066122    0.079124    0.070656  
     -0.358999  3.362932  5.376017     0.066122    0.079124    0.070656  
      3.231000  3.362932  5.376017     0.066122    0.079124    0.070656  
      0.753900  0.784684  2.688008     0.066122    0.079124    0.070656  
      4.343900  0.784684  2.688008     0.066122    0.079124    0.070656  
      0.610301  4.371811  2.688008     0.066122    0.079124    0.070656  
      4.200300  4.371811  2.688008     0.066122    0.079124    0.070656  
      0.610301  0.635221  6.272020     0.066122    0.079124    0.070656  
      4.200300  0.635221  6.272020     0.066122    0.079124    0.070656  
      0.466701  4.222347  6.272020     0.066122    0.079124    0.070656  
      4.056700  4.222347  6.272020     0.066122    0.079124    0.070656  
     -0.071800  1.793563  0.000000     0.066122    0.079124    0.070656  
      3.518200  1.793563  0.000000     0.066122    0.079124    0.070656  
     -0.215399  5.380689  0.000000     0.066122    0.079124    0.070656  
      3.374600  5.380689  0.000000     0.066122    0.079124    0.070656  
     -0.215399  1.644100  3.584011     0.066122    0.079124    0.070656  
      3.374600  1.644100  3.584011     0.066122    0.079124    0.070656  
     -0.358999  5.231226  3.584011     0.066122    0.079124    0.070656  
      3.231000  5.231226  3.584011     0.066122    0.079124    0.070656  
      2.477100  2.578247  2.688008     0.066122    0.079124    0.070656  
      6.067100  2.578247  2.688008     0.066122    0.079124    0.070656  
      2.333501  6.165374  2.688008     0.066122    0.079124    0.070656  
      5.923500  6.165374  2.688008     0.066122    0.079124    0.070656  
      2.333501  2.428784  6.272020     0.066122    0.079124    0.070656  
      5.923500  2.428784  6.272020     0.066122    0.079124    0.070656  
      2.189901  6.015911  6.272020     0.066122    0.079124    0.070656  
      5.779900  6.015911  6.272020     0.066122    0.079124    0.070656  
      1.795000  0.000000  0.000000     0.066122    0.079124    0.070656  
      5.384999  0.000000  0.000000     0.066122    0.079124    0.070656  
      1.651400  3.587126  0.000000     0.066122    0.079124    0.070656  
      5.241399  3.587126  0.000000     0.066122    0.079124    0.070656  
      1.651400 -0.149463  3.584011     0.066122    0.079124    0.070656  
      5.241399 -0.149463  3.584011     0.066122    0.079124    0.070656  
      1.507801  3.437663  3.584011     0.066122    0.079124    0.070656  
      5.097800  3.437663  3.584011     0.066122    0.079124    0.070656  
      2.620700  0.859416  0.896003     0.066122    0.079124    0.070656  
      6.210699  0.859416  0.896003     0.066122    0.079124    0.070656  
      2.477100  4.446542  0.896003     0.066122    0.079124    0.070656  
      6.067100  4.446542  0.896003     0.066122    0.079124    0.070656  
      2.477100  0.709953  4.480014     0.066122    0.079124    0.070656  
      6.067100  0.709953  4.480014     0.066122    0.079124    0.070656  
      2.333501  4.297079  4.480014     0.066122    0.079124    0.070656  
      5.923500  4.297079  4.480014     0.066122    0.079124    0.070656  
      1.651400  1.718832  1.792006     0.066122    0.079124    0.070656  
      5.241399  1.718832  1.792006     0.066122    0.079124    0.070656  
      1.507801  5.305958  1.792006     0.066122    0.079124    0.070656  
      5.097800  5.305958  1.792006     0.066122    0.079124    0.070656  
      1.507801  1.569368  5.376017     0.066122    0.079124    0.070656  
      5.097800  1.569368  5.376017     0.066122    0.079124    0.070656  
      1.364201  5.156495  5.376017     0.066122    0.079124    0.070656  
      4.954200  5.156495  5.376017     0.066122    0.079124    0.070656  
 


--------------------------------------------------------------------------------------------------------



 ELASTIC MODULI CONTR FROM IONIC RELAXATION (kBar)
 Direction    XX          YY          ZZ          XY          YZ          ZX
 --------------------------------------------------------------------------------
 XX         -40.7686    -45.2675    -50.4570    -57.6034    -62.2207    -60.0575
 YY         -45.2675    -50.5163    -56.1528    -64.1456    -69.5390    -66.5352
 ZZ         -50.4570    -56.1528    -62.7846    -71.1401    -77.5527    -74.5082
 XY         -57.6034    -64.1456    -71.1401    -81.7477    -87.9579    -84.5184
 YZ         -62.2207    -69.5390    -77.5527    -87.9579    -96.1379    -91.6884
 ZX         -60.0575    -66.5352    -74.5082    -84.5184    -91.6884    -88.7975
 --------------------------------------------------------------------------------



--------------------------------------------------------------------------------------------------------


     LOOP+:  cpu time 1180.9772: real time 1181.3902
    4ORBIT:  cpu time    0.0000: real time    0.0000

 total amount of memory used by VASP MPI-rank0    83596. kBytes
=======================================================================

   base      :      30000. kBytes
   nonl-proj :      20742. kBytes
   fftplans  :       4537. kBytes
   grid      :       5806. kBytes
   one-center:        196. kBytes
   wavefun   :      22315. kBytes
 
  
  
 General timing and accounting informations for this job:
 ========================================================
  
                  Total CPU time used (sec):     1193.173
                            User time (sec):     1186.449
                          System time (sec):        6.724
                         Elapsed time (sec):     1193.819
  
                   Maximum memory used (kb):      432244.
                   Average memory used (kb):           0.
  
                          Minor page faults:        39318
                          Major page faults:           36
                 Voluntary context switches:          854
