# Thermal properties / unit cell (natom)

unit:
  temperature:   K
  free_energy:   kJ/mol
  entropy:       J/K/mol
  heat_capacity: J/K/mol

natom: 8    
cutoff_frequency:    0.000
num_modes: 2654208
num_integrated_modes: 2654208

zero_point_energy:     136.4657468
high_T_entropy:        436.7390205

thermal_properties:
- temperature:         0.0000000
  free_energy:       136.4657468
  entropy:             0.0000000
  heat_capacity:       0.0000000
  energy:            136.4657468

- temperature:         2.0000000
  free_energy:       136.4657468
  entropy:             0.0000000
  heat_capacity:       0.0000000
  energy:            136.4657468

- temperature:         4.0000000
  free_energy:       136.4657468
  entropy:             0.0000096
  heat_capacity:       0.0000593
  energy:            136.4657469

- temperature:         6.0000000
  free_energy:       136.4657467
  entropy:             0.0000759
  heat_capacity:       0.0003217
  energy:            136.4657472

- temperature:         8.0000000
  free_energy:       136.4657465
  entropy:             0.0002305
  heat_capacity:       0.0008207
  energy:            136.4657483

- temperature:        10.0000000
  free_energy:       136.4657458
  entropy:             0.0004934
  heat_capacity:       0.0016231
  energy:            136.4657507

- temperature:        12.0000000
  free_energy:       136.4657444
  entropy:             0.0008880
  heat_capacity:       0.0028131
  energy:            136.4657551

- temperature:        14.0000000
  free_energy:       136.4657421
  entropy:             0.0014398
  heat_capacity:       0.0044733
  energy:            136.4657623

- temperature:        16.0000000
  free_energy:       136.4657385
  entropy:             0.0021749
  heat_capacity:       0.0066857
  energy:            136.4657733

- temperature:        18.0000000
  free_energy:       136.4657333
  entropy:             0.0031201
  heat_capacity:       0.0095320
  energy:            136.4657894

- temperature:        20.0000000
  free_energy:       136.4657259
  entropy:             0.0043021
  heat_capacity:       0.0130951
  energy:            136.4658119

- temperature:        22.0000000
  free_energy:       136.4657159
  entropy:             0.0057482
  heat_capacity:       0.0174589
  energy:            136.4658423

- temperature:        24.0000000
  free_energy:       136.4657027
  entropy:             0.0074857
  heat_capacity:       0.0227087
  energy:            136.4658823

- temperature:        26.0000000
  free_energy:       136.4656857
  entropy:             0.0095423
  heat_capacity:       0.0289315
  energy:            136.4659338

- temperature:        28.0000000
  free_energy:       136.4656643
  entropy:             0.0119461
  heat_capacity:       0.0362163
  energy:            136.4659988

- temperature:        30.0000000
  free_energy:       136.4656377
  entropy:             0.0147256
  heat_capacity:       0.0446543
  energy:            136.4660795

- temperature:        32.0000000
  free_energy:       136.4656051
  entropy:             0.0179097
  heat_capacity:       0.0543393
  energy:            136.4661782

- temperature:        34.0000000
  free_energy:       136.4655658
  entropy:             0.0215279
  heat_capacity:       0.0653680
  energy:            136.4662977

- temperature:        36.0000000
  free_energy:       136.4655187
  entropy:             0.0256102
  heat_capacity:       0.0778408
  energy:            136.4664407

- temperature:        38.0000000
  free_energy:       136.4654630
  entropy:             0.0301872
  heat_capacity:       0.0918616
  energy:            136.4666101

- temperature:        40.0000000
  free_energy:       136.4653976
  entropy:             0.0352904
  heat_capacity:       0.1075394
  energy:            136.4668092

- temperature:        42.0000000
  free_energy:       136.4653214
  entropy:             0.0409521
  heat_capacity:       0.1249883
  energy:            136.4670414

- temperature:        44.0000000
  free_energy:       136.4652334
  entropy:             0.0472053
  heat_capacity:       0.1443288
  energy:            136.4673104

- temperature:        46.0000000
  free_energy:       136.4651322
  entropy:             0.0540845
  heat_capacity:       0.1656883
  energy:            136.4676201

- temperature:        48.0000000
  free_energy:       136.4650166
  entropy:             0.0616250
  heat_capacity:       0.1892022
  energy:            136.4679746

- temperature:        50.0000000
  free_energy:       136.4648852
  entropy:             0.0698639
  heat_capacity:       0.2150150
  energy:            136.4683784

- temperature:        52.0000000
  free_energy:       136.4647367
  entropy:             0.0788393
  heat_capacity:       0.2432804
  energy:            136.4688363

- temperature:        54.0000000
  free_energy:       136.4645694
  entropy:             0.0885914
  heat_capacity:       0.2741626
  energy:            136.4693533

- temperature:        56.0000000
  free_energy:       136.4643818
  entropy:             0.0991619
  heat_capacity:       0.3078362
  energy:            136.4699348

- temperature:        58.0000000
  free_energy:       136.4641721
  entropy:             0.1105946
  heat_capacity:       0.3444867
  energy:            136.4705866

- temperature:        60.0000000
  free_energy:       136.4639388
  entropy:             0.1229352
  heat_capacity:       0.3843104
  energy:            136.4713149

- temperature:        62.0000000
  free_energy:       136.4636798
  entropy:             0.1362316
  heat_capacity:       0.4275140
  energy:            136.4721261

- temperature:        64.0000000
  free_energy:       136.4633932
  entropy:             0.1505338
  heat_capacity:       0.4743140
  energy:            136.4730273

- temperature:        66.0000000
  free_energy:       136.4630769
  entropy:             0.1658940
  heat_capacity:       0.5249360
  energy:            136.4740259

- temperature:        68.0000000
  free_energy:       136.4627289
  entropy:             0.1823666
  heat_capacity:       0.5796136
  energy:            136.4751298

- temperature:        70.0000000
  free_energy:       136.4623467
  entropy:             0.2000081
  heat_capacity:       0.6385871
  energy:            136.4763473

- temperature:        72.0000000
  free_energy:       136.4619280
  entropy:             0.2188771
  heat_capacity:       0.7021023
  energy:            136.4776872

- temperature:        74.0000000
  free_energy:       136.4614703
  entropy:             0.2390343
  heat_capacity:       0.7704089
  energy:            136.4791589

- temperature:        76.0000000
  free_energy:       136.4609710
  entropy:             0.2605420
  heat_capacity:       0.8437592
  energy:            136.4807722

- temperature:        78.0000000
  free_energy:       136.4604272
  entropy:             0.2834643
  heat_capacity:       0.9224062
  energy:            136.4825374

- temperature:        80.0000000
  free_energy:       136.4598361
  entropy:             0.3078670
  heat_capacity:       1.0066023
  energy:            136.4844655

- temperature:        82.0000000
  free_energy:       136.4591947
  entropy:             0.3338170
  heat_capacity:       1.0965975
  energy:            136.4865677

- temperature:        84.0000000
  free_energy:       136.4584998
  entropy:             0.3613824
  heat_capacity:       1.1926386
  energy:            136.4888559

- temperature:        86.0000000
  free_energy:       136.4577481
  entropy:             0.3906324
  heat_capacity:       1.2949670
  energy:            136.4913424

- temperature:        88.0000000
  free_energy:       136.4569361
  entropy:             0.4216368
  heat_capacity:       1.4038180
  energy:            136.4940401

- temperature:        90.0000000
  free_energy:       136.4560603
  entropy:             0.4544658
  heat_capacity:       1.5194197
  energy:            136.4969622

- temperature:        92.0000000
  free_energy:       136.4551170
  entropy:             0.4891901
  heat_capacity:       1.6419918
  energy:            136.5001224

- temperature:        94.0000000
  free_energy:       136.4541022
  entropy:             0.5258803
  heat_capacity:       1.7717445
  energy:            136.5035350

- temperature:        96.0000000
  free_energy:       136.4530121
  entropy:             0.5646070
  heat_capacity:       1.9088784
  energy:            136.5072143

- temperature:        98.0000000
  free_energy:       136.4518424
  entropy:             0.6054402
  heat_capacity:       2.0535835
  energy:            136.5111755

- temperature:       100.0000000
  free_energy:       136.4505889
  entropy:             0.6484498
  heat_capacity:       2.2060385
  energy:            136.5154338

- temperature:       102.0000000
  free_energy:       136.4492471
  entropy:             0.6937046
  heat_capacity:       2.3664112
  energy:            136.5200050

- temperature:       104.0000000
  free_energy:       136.4478125
  entropy:             0.7412728
  heat_capacity:       2.5348572
  energy:            136.5249049

- temperature:       106.0000000
  free_energy:       136.4462804
  entropy:             0.7912213
  heat_capacity:       2.7115208
  energy:            136.5301499

- temperature:       108.0000000
  free_energy:       136.4446460
  entropy:             0.8436161
  heat_capacity:       2.8965342
  energy:            136.5357565

- temperature:       110.0000000
  free_energy:       136.4429043
  entropy:             0.8985216
  heat_capacity:       3.0900177
  energy:            136.5417417

- temperature:       112.0000000
  free_energy:       136.4410502
  entropy:             0.9560012
  heat_capacity:       3.2920802
  energy:            136.5481223

- temperature:       114.0000000
  free_energy:       136.4390785
  entropy:             1.0161162
  heat_capacity:       3.5028187
  energy:            136.5549158

- temperature:       116.0000000
  free_energy:       136.4369839
  entropy:             1.0789268
  heat_capacity:       3.7223189
  energy:            136.5621394

- temperature:       118.0000000
  free_energy:       136.4347610
  entropy:             1.1444912
  heat_capacity:       3.9506556
  energy:            136.5698109

- temperature:       120.0000000
  free_energy:       136.4324041
  entropy:             1.2128658
  heat_capacity:       4.1878923
  energy:            136.5779480

- temperature:       122.0000000
  free_energy:       136.4299076
  entropy:             1.2841055
  heat_capacity:       4.4340825
  energy:            136.5865685

- temperature:       124.0000000
  free_energy:       136.4272657
  entropy:             1.3582629
  heat_capacity:       4.6892691
  energy:            136.5956903

- temperature:       126.0000000
  free_energy:       136.4244726
  entropy:             1.4353889
  heat_capacity:       4.9534853
  energy:            136.6053316

- temperature:       128.0000000
  free_energy:       136.4215222
  entropy:             1.5155323
  heat_capacity:       5.2267546
  energy:            136.6155103

- temperature:       130.0000000
  free_energy:       136.4184084
  entropy:             1.5987403
  heat_capacity:       5.5090916
  energy:            136.6262446

- temperature:       132.0000000
  free_energy:       136.4151251
  entropy:             1.6850575
  heat_capacity:       5.8005018
  energy:            136.6375527

- temperature:       134.0000000
  free_energy:       136.4116661
  entropy:             1.7745270
  heat_capacity:       6.1009825
  energy:            136.6494527

- temperature:       136.0000000
  free_energy:       136.4080249
  entropy:             1.8671897
  heat_capacity:       6.4105228
  energy:            136.6619627

- temperature:       138.0000000
  free_energy:       136.4041951
  entropy:             1.9630844
  heat_capacity:       6.7291039
  energy:            136.6751008

- temperature:       140.0000000
  free_energy:       136.4001704
  entropy:             2.0622481
  heat_capacity:       7.0566997
  energy:            136.6888851

- temperature:       142.0000000
  free_energy:       136.3959440
  entropy:             2.1647157
  heat_capacity:       7.3932770
  energy:            136.7033336

- temperature:       144.0000000
  free_energy:       136.3915093
  entropy:             2.2705201
  heat_capacity:       7.7387956
  energy:            136.7184642

- temperature:       146.0000000
  free_energy:       136.3868596
  entropy:             2.3796923
  heat_capacity:       8.0932090
  energy:            136.7342947

- temperature:       148.0000000
  free_energy:       136.3819882
  entropy:             2.4922612
  heat_capacity:       8.4564644
  energy:            136.7508429

- temperature:       150.0000000
  free_energy:       136.3768883
  entropy:             2.6082541
  heat_capacity:       8.8285030
  energy:            136.7681264

- temperature:       152.0000000
  free_energy:       136.3715529
  entropy:             2.7276961
  heat_capacity:       9.2092604
  energy:            136.7861627

- temperature:       154.0000000
  free_energy:       136.3659752
  entropy:             2.8506105
  heat_capacity:       9.5986668
  energy:            136.8049692

- temperature:       156.0000000
  free_energy:       136.3601482
  entropy:             2.9770189
  heat_capacity:       9.9966472
  energy:            136.8245631

- temperature:       158.0000000
  free_energy:       136.3540648
  entropy:             3.1069411
  heat_capacity:      10.4031216
  energy:            136.8449615

- temperature:       160.0000000
  free_energy:       136.3477180
  entropy:             3.2403948
  heat_capacity:      10.8180054
  energy:            136.8661812

- temperature:       162.0000000
  free_energy:       136.3411008
  entropy:             3.3773963
  heat_capacity:      11.2412095
  energy:            136.8882390

- temperature:       164.0000000
  free_energy:       136.3342061
  entropy:             3.5179601
  heat_capacity:      11.6726405
  energy:            136.9111515

- temperature:       166.0000000
  free_energy:       136.3270266
  entropy:             3.6620988
  heat_capacity:      12.1122008
  energy:            136.9349350

- temperature:       168.0000000
  free_energy:       136.3195553
  entropy:             3.8098238
  heat_capacity:      12.5597891
  energy:            136.9596057

- temperature:       170.0000000
  free_energy:       136.3117849
  entropy:             3.9611443
  heat_capacity:      13.0153004
  energy:            136.9851795

- temperature:       172.0000000
  free_energy:       136.3037083
  entropy:             4.1160685
  heat_capacity:      13.4786262
  energy:            137.0116721

- temperature:       174.0000000
  free_energy:       136.2953182
  entropy:             4.2746026
  heat_capacity:      13.9496545
  energy:            137.0390991

- temperature:       176.0000000
  free_energy:       136.2866075
  entropy:             4.4367516
  heat_capacity:      14.4282705
  energy:            137.0674758

- temperature:       178.0000000
  free_energy:       136.2775688
  entropy:             4.6025188
  heat_capacity:      14.9143562
  energy:            137.0968172

- temperature:       180.0000000
  free_energy:       136.2681950
  entropy:             4.7719061
  heat_capacity:      15.4077908
  energy:            137.1271381

- temperature:       182.0000000
  free_energy:       136.2584788
  entropy:             4.9449140
  heat_capacity:      15.9084509
  energy:            137.1584531

- temperature:       184.0000000
  free_energy:       136.2484129
  entropy:             5.1215418
  heat_capacity:      16.4162107
  energy:            137.1907766

- temperature:       186.0000000
  free_energy:       136.2379902
  entropy:             5.3017872
  heat_capacity:      16.9309420
  energy:            137.2241226

- temperature:       188.0000000
  free_energy:       136.2272034
  entropy:             5.4856467
  heat_capacity:      17.4525145
  energy:            137.2585050

- temperature:       190.0000000
  free_energy:       136.2160452
  entropy:             5.6731155
  heat_capacity:      17.9807959
  energy:            137.2939372

- temperature:       192.0000000
  free_energy:       136.2045085
  entropy:             5.8641876
  heat_capacity:      18.5156518
  energy:            137.3304325

- temperature:       194.0000000
  free_energy:       136.1925861
  entropy:             6.0588557
  heat_capacity:      19.0569466
  energy:            137.3680041

- temperature:       196.0000000
  free_energy:       136.1802707
  entropy:             6.2571113
  heat_capacity:      19.6045426
  energy:            137.4066645

- temperature:       198.0000000
  free_energy:       136.1675552
  entropy:             6.4589450
  heat_capacity:      20.1583010
  energy:            137.4464263

- temperature:       200.0000000
  free_energy:       136.1544325
  entropy:             6.6643460
  heat_capacity:      20.7180816
  energy:            137.4873017

- temperature:       202.0000000
  free_energy:       136.1408955
  entropy:             6.8733025
  heat_capacity:      21.2837432
  energy:            137.5293026

- temperature:       204.0000000
  free_energy:       136.1269370
  entropy:             7.0858018
  heat_capacity:      21.8551433
  energy:            137.5724405

- temperature:       206.0000000
  free_energy:       136.1125499
  entropy:             7.3018300
  heat_capacity:      22.4321388
  energy:            137.6167269

- temperature:       208.0000000
  free_energy:       136.0977273
  entropy:             7.5213722
  heat_capacity:      23.0145858
  energy:            137.6621727

- temperature:       210.0000000
  free_energy:       136.0824621
  entropy:             7.7444127
  heat_capacity:      23.6023397
  energy:            137.7087888

- temperature:       212.0000000
  free_energy:       136.0667473
  entropy:             7.9709349
  heat_capacity:      24.1952554
  energy:            137.7565855

- temperature:       214.0000000
  free_energy:       136.0505761
  entropy:             8.2009210
  heat_capacity:      24.7931875
  energy:            137.8055731

- temperature:       216.0000000
  free_energy:       136.0339413
  entropy:             8.4343526
  heat_capacity:      25.3959904
  energy:            137.8557615

- temperature:       218.0000000
  free_energy:       136.0168364
  entropy:             8.6712105
  heat_capacity:      26.0035182
  energy:            137.9071603

- temperature:       220.0000000
  free_energy:       135.9992542
  entropy:             8.9114746
  heat_capacity:      26.6156252
  energy:            137.9597786

- temperature:       222.0000000
  free_energy:       135.9811882
  entropy:             9.1551239
  heat_capacity:      27.2321655
  energy:            138.0136257

- temperature:       224.0000000
  free_energy:       135.9626315
  entropy:             9.4021369
  heat_capacity:      27.8529936
  energy:            138.0687102

- temperature:       226.0000000
  free_energy:       135.9435774
  entropy:             9.6524912
  heat_capacity:      28.4779643
  energy:            138.1250404

- temperature:       228.0000000
  free_energy:       135.9240193
  entropy:             9.9061639
  heat_capacity:      29.1069328
  energy:            138.1826247

- temperature:       230.0000000
  free_energy:       135.9039506
  entropy:            10.1631312
  heat_capacity:      29.7397547
  energy:            138.2414707

- temperature:       232.0000000
  free_energy:       135.8833646
  entropy:            10.4233688
  heat_capacity:      30.3762863
  energy:            138.3015862

- temperature:       234.0000000
  free_energy:       135.8622549
  entropy:            10.6868518
  heat_capacity:      31.0163845
  energy:            138.3629783

- temperature:       236.0000000
  free_energy:       135.8406151
  entropy:            10.9535548
  heat_capacity:      31.6599071
  energy:            138.4256540

- temperature:       238.0000000
  free_energy:       135.8184386
  entropy:            11.2234517
  heat_capacity:      32.3067126
  energy:            138.4896201

- temperature:       240.0000000
  free_energy:       135.7957191
  entropy:            11.4965158
  heat_capacity:      32.9566606
  energy:            138.5548829

- temperature:       242.0000000
  free_energy:       135.7724504
  entropy:            11.7727202
  heat_capacity:      33.6096116
  energy:            138.6214487

- temperature:       244.0000000
  free_energy:       135.7486262
  entropy:            12.0520373
  heat_capacity:      34.2654272
  energy:            138.6893233

- temperature:       246.0000000
  free_energy:       135.7242402
  entropy:            12.3344391
  heat_capacity:      34.9239703
  energy:            138.7585123

- temperature:       248.0000000
  free_energy:       135.6992864
  entropy:            12.6198972
  heat_capacity:      35.5851049
  energy:            138.8290209

- temperature:       250.0000000
  free_energy:       135.6737586
  entropy:            12.9083828
  heat_capacity:      36.2486963
  energy:            138.9008543

- temperature:       252.0000000
  free_energy:       135.6476509
  entropy:            13.1998666
  heat_capacity:      36.9146112
  energy:            138.9740172

- temperature:       254.0000000
  free_energy:       135.6209572
  entropy:            13.4943191
  heat_capacity:      37.5827177
  energy:            139.0485142

- temperature:       256.0000000
  free_energy:       135.5936716
  entropy:            13.7917104
  heat_capacity:      38.2528855
  energy:            139.1243495

- temperature:       258.0000000
  free_energy:       135.5657884
  entropy:            14.0920103
  heat_capacity:      38.9249855
  energy:            139.2015270

- temperature:       260.0000000
  free_energy:       135.5373017
  entropy:            14.3951883
  heat_capacity:      39.5988904
  energy:            139.2800506

- temperature:       262.0000000
  free_energy:       135.5082057
  entropy:            14.7012137
  heat_capacity:      40.2744747
  energy:            139.3599237

- temperature:       264.0000000
  free_energy:       135.4784949
  entropy:            15.0100554
  heat_capacity:      40.9516141
  energy:            139.4411496

- temperature:       266.0000000
  free_energy:       135.4481637
  entropy:            15.3216823
  heat_capacity:      41.6301863
  energy:            139.5237311

- temperature:       268.0000000
  free_energy:       135.4172064
  entropy:            15.6360627
  heat_capacity:      42.3100706
  energy:            139.6076712

- temperature:       270.0000000
  free_energy:       135.3856176
  entropy:            15.9531653
  heat_capacity:      42.9911483
  energy:            139.6929722

- temperature:       272.0000000
  free_energy:       135.3533919
  entropy:            16.2729580
  heat_capacity:      43.6733021
  energy:            139.7796365

- temperature:       274.0000000
  free_energy:       135.3205240
  entropy:            16.5954090
  heat_capacity:      44.3564169
  energy:            139.8676661

- temperature:       276.0000000
  free_energy:       135.2870085
  entropy:            16.9204862
  heat_capacity:      45.0403793
  energy:            139.9570627

- temperature:       278.0000000
  free_energy:       135.2528403
  entropy:            17.2481574
  heat_capacity:      45.7250775
  energy:            140.0478281

- temperature:       280.0000000
  free_energy:       135.2180142
  entropy:            17.5783902
  heat_capacity:      46.4104021
  energy:            140.1399635

- temperature:       282.0000000
  free_energy:       135.1825251
  entropy:            17.9111523
  heat_capacity:      47.0962453
  energy:            140.2334700

- temperature:       284.0000000
  free_energy:       135.1463679
  entropy:            18.2464113
  heat_capacity:      47.7825011
  energy:            140.3283487

- temperature:       286.0000000
  free_energy:       135.1095378
  entropy:            18.5841345
  heat_capacity:      48.4690657
  energy:            140.4246002

- temperature:       288.0000000
  free_energy:       135.0720298
  entropy:            18.9242894
  heat_capacity:      49.1558370
  energy:            140.5222251

- temperature:       290.0000000
  free_energy:       135.0338390
  entropy:            19.2668436
  heat_capacity:      49.8427151
  energy:            140.6212237

- temperature:       292.0000000
  free_energy:       134.9949608
  entropy:            19.6117643
  heat_capacity:      50.5296019
  energy:            140.7215960

- temperature:       294.0000000
  free_energy:       134.9553904
  entropy:            19.9590190
  heat_capacity:      51.2164012
  energy:            140.8233420

- temperature:       296.0000000
  free_energy:       134.9151232
  entropy:            20.3085752
  heat_capacity:      51.9030188
  energy:            140.9264615

- temperature:       298.0000000
  free_energy:       134.8741546
  entropy:            20.6604003
  heat_capacity:      52.5893626
  energy:            141.0309539

- temperature:       300.0000000
  free_energy:       134.8324801
  entropy:            21.0144619
  heat_capacity:      53.2753424
  energy:            141.1368187

- temperature:       302.0000000
  free_energy:       134.7900953
  entropy:            21.3707274
  heat_capacity:      53.9608696
  energy:            141.2440550

- temperature:       304.0000000
  free_energy:       134.7469957
  entropy:            21.7291646
  heat_capacity:      54.6458582
  energy:            141.3526618

- temperature:       306.0000000
  free_energy:       134.7031772
  entropy:            22.0897411
  heat_capacity:      55.3302235
  energy:            141.4626380

- temperature:       308.0000000
  free_energy:       134.6586354
  entropy:            22.4524248
  heat_capacity:      56.0138832
  energy:            141.5739822

- temperature:       310.0000000
  free_energy:       134.6133661
  entropy:            22.8171835
  heat_capacity:      56.6967566
  energy:            141.6866930

- temperature:       312.0000000
  free_energy:       134.5673653
  entropy:            23.1839852
  heat_capacity:      57.3787652
  energy:            141.8007687

- temperature:       314.0000000
  free_energy:       134.5206288
  entropy:            23.5527981
  heat_capacity:      58.0598321
  energy:            141.9162074

- temperature:       316.0000000
  free_energy:       134.4731528
  entropy:            23.9235903
  heat_capacity:      58.7398826
  energy:            142.0330073

- temperature:       318.0000000
  free_energy:       134.4249332
  entropy:            24.2963304
  heat_capacity:      59.4188435
  energy:            142.1511662

- temperature:       320.0000000
  free_energy:       134.3759662
  entropy:            24.6709867
  heat_capacity:      60.0966439
  energy:            142.2706819

- temperature:       322.0000000
  free_energy:       134.3262480
  entropy:            25.0475280
  heat_capacity:      60.7732143
  energy:            142.3915520

- temperature:       324.0000000
  free_energy:       134.2757748
  entropy:            25.4259231
  heat_capacity:      61.4484873
  energy:            142.5137739

- temperature:       326.0000000
  free_energy:       134.2245431
  entropy:            25.8061410
  heat_capacity:      62.1223974
  energy:            142.6373450

- temperature:       328.0000000
  free_energy:       134.1725491
  entropy:            26.1881509
  heat_capacity:      62.7948805
  energy:            142.7622625

- temperature:       330.0000000
  free_energy:       134.1197893
  entropy:            26.5719220
  heat_capacity:      63.4658746
  energy:            142.8885236

- temperature:       332.0000000
  free_energy:       134.0662602
  entropy:            26.9574241
  heat_capacity:      64.1353193
  energy:            143.0161250

- temperature:       334.0000000
  free_energy:       134.0119585
  entropy:            27.3446267
  heat_capacity:      64.8031560
  energy:            143.1450638

- temperature:       336.0000000
  free_energy:       133.9568806
  entropy:            27.7334998
  heat_capacity:      65.4693278
  energy:            143.2753365

- temperature:       338.0000000
  free_energy:       133.9010234
  entropy:            28.1240135
  heat_capacity:      66.1337795
  energy:            143.4069399

- temperature:       340.0000000
  free_energy:       133.8443835
  entropy:            28.5161382
  heat_capacity:      66.7964574
  energy:            143.5398705

- temperature:       342.0000000
  free_energy:       133.7869578
  entropy:            28.9098444
  heat_capacity:      67.4573096
  energy:            143.6741245

- temperature:       344.0000000
  free_energy:       133.7287431
  entropy:            29.3051029
  heat_capacity:      68.1162858
  energy:            143.8096984

- temperature:       346.0000000
  free_energy:       133.6697363
  entropy:            29.7018846
  heat_capacity:      68.7733372
  energy:            143.9465884

- temperature:       348.0000000
  free_energy:       133.6099345
  entropy:            30.1001608
  heat_capacity:      69.4284167
  energy:            144.0847905

- temperature:       350.0000000
  free_energy:       133.5493347
  entropy:            30.4999029
  heat_capacity:      70.0814787
  energy:            144.2243007

- temperature:       352.0000000
  free_energy:       133.4879340
  entropy:            30.9010826
  heat_capacity:      70.7324791
  energy:            144.3651150

- temperature:       354.0000000
  free_energy:       133.4257294
  entropy:            31.3036717
  heat_capacity:      71.3813752
  energy:            144.5072292

- temperature:       356.0000000
  free_energy:       133.3627183
  entropy:            31.7076425