<?xml version="1.0" encoding="ISO-8859-1"?>
<modeling>
 <generator>
  <i name="program" type="string">vasp </i>
  <i name="version" type="string">5.4.4.18Apr17-6-g9f103f2a35  </i>
  <i name="subversion" type="string">(build Mar 12 2022 03:36:41) complex            parallel </i>
  <i name="platform" type="string">IFC19.0.3.199_CrayMPICH7.7.19 </i>
  <i name="date" type="string">2022 12 02 </i>
  <i name="time" type="string">01:05:26 </i>
 </generator>
 <incar>
  <i type="string" name="PREC">accurate</i>
  <i type="int" name="IALGO">    38</i>
  <i type="logical" name="ADDGRID"> T  </i>
  <i type="int" name="IBRION">     8</i>
  <i name="EDIFF">      0.00000001</i>
  <i type="logical" name="LREAL"> F  </i>
  <i type="int" name="ISMEAR">     0</i>
  <i name="SIGMA">      0.06000000</i>
  <i type="logical" name="LWAVE"> F  </i>
  <i type="logical" name="LCHARG"> F  </i>
  <v type="int" name="KPOINT_BSE">    -1     0     0     0</v>
 </incar>
 <structure name="primitive_cell" >
  <crystal>
   <varray name="basis" >
    <v>      -0.14359957       1.71883157       1.79200559 </v>
    <v>       1.72319989      -0.07473159       1.79200559 </v>
    <v>       1.72319989       1.79356316       0.00000000 </v>
   </varray>
   <i name="volume">     11.53852797 </i>
   <varray name="rec_basis" >
    <v>      -0.27855158       0.26762373       0.27901699 </v>
    <v>       0.27855158      -0.26762373       0.27901698 </v>
    <v>       0.27855158       0.28992564      -0.25576564 </v>
   </varray>
  </crystal>
  <varray name="positions" >
   <v>      -0.25000000      -0.25000000      -0.25000000 </v>
   <v>      -0.50000000      -0.50000000      -0.50000000 </v>
  </varray>
 </structure>
 <varray name="primitive_index" >
  <v type="int" >        1 </v>
  <v type="int" >       25 </v>
 </varray>
 <kpoints>
  <generation param="Gamma">
   <v type="int" name="divisions">       6        6        6 </v>
   <v name="usershift">      0.00000000       0.00000000       0.00000000 </v>
   <v name="genvec1">      0.16666667       0.00000000      -0.00000000 </v>
   <v name="genvec2">      0.00000000       0.16666667       0.00000000 </v>
   <v name="genvec3">      0.00000000       0.00000000       0.16666667 </v>
   <v name="shift">      0.00000000       0.00000000       0.00000000 </v>
  </generation>
  <varray name="kpointlist" >
   <v>       0.00000000       0.00000000       0.00000000 </v>
   <v>       0.16666667      -0.00000000       0.00000000 </v>
   <v>       0.33333333      -0.00000000      -0.00000000 </v>
   <v>       0.50000000      -0.00000000       0.00000000 </v>
   <v>       0.16666667       0.16666667       0.00000000 </v>
   <v>       0.33333333       0.16666667       0.00000000 </v>
   <v>       0.50000000       0.16666667       0.00000000 </v>
   <v>      -0.33333333       0.16666667      -0.00000000 </v>
   <v>      -0.16666667       0.16666667      -0.00000000 </v>
   <v>       0.33333333       0.33333333       0.00000000 </v>
   <v>       0.50000000       0.33333333       0.00000000 </v>
   <v>      -0.33333333       0.33333333       0.00000000 </v>
   <v>       0.50000000       0.50000000      -0.00000000 </v>
   <v>       0.16666667       0.16666667       0.16666667 </v>
   <v>       0.33333333       0.16666667       0.16666667 </v>
   <v>       0.50000000       0.16666667       0.16666667 </v>
   <v>      -0.33333333       0.16666667       0.16666667 </v>
   <v>      -0.16666667       0.16666667       0.16666667 </v>
   <v>       0.33333333       0.33333333       0.16666667 </v>
   <v>       0.50000000       0.33333333       0.16666667 </v>
   <v>      -0.33333333       0.33333333       0.16666667 </v>
   <v>      -0.16666667       0.33333333       0.16666667 </v>
   <v>       0.50000000       0.50000000       0.16666667 </v>
   <v>      -0.33333333       0.50000000       0.16666667 </v>
   <v>      -0.16666667       0.50000000       0.16666667 </v>
   <v>      -0.33333333      -0.33333333       0.16666667 </v>
   <v>       0.33333333       0.33333333       0.33333333 </v>
   <v>       0.50000000       0.33333333       0.33333333 </v>
   <v>      -0.33333333       0.33333333       0.33333333 </v>
   <v>       0.50000000       0.50000000       0.33333333 </v>
   <v>      -0.33333333       0.50000000       0.33333333 </v>
   <v>       0.50000000       0.50000000       0.50000000 </v>
  </varray>
  <varray name="weights" >
   <v>       0.00462963 </v>
   <v>       0.02777778 </v>
   <v>       0.02777778 </v>
   <v>       0.01388889 </v>
   <v>       0.02777778 </v>
   <v>       0.05555556 </v>
   <v>       0.05555556 </v>
   <v>       0.05555556 </v>
   <v>       0.02777778 </v>
   <v>       0.02777778 </v>
   <v>       0.05555556 </v>
   <v>       0.02777778 </v>
   <v>       0.01388889 </v>
   <v>       0.00925926 </v>
   <v>       0.02777778 </v>
   <v>       0.02777778 </v>
   <v>       0.02777778 </v>
   <v>       0.02777778 </v>
   <v>       0.02777778 </v>
   <v>       0.05555556 </v>
   <v>       0.05555556 </v>
   <v>       0.05555556 </v>
   <v>       0.02777778 </v>
   <v>       0.05555556 </v>
   <v>       0.02777778 </v>
   <v>       0.02777778 </v>
   <v>       0.00925926 </v>
   <v>       0.02777778 </v>
   <v>       0.02777778 </v>
   <v>       0.02777778 </v>
   <v>       0.02777778 </v>
   <v>       0.00462963 </v>
  </varray>
 </kpoints>
 <parameters>
  <separator name="general" >
   <i type="string" name="SYSTEM">unknown system</i>
   <i type="logical" name="LCOMPAT"> F  </i>
  </separator>
  <separator name="electronic" >
   <i type="string" name="PREC">accura</i>
   <i name="ENMAX">    400.00000000</i>
   <i name="ENAUG">    644.87300000</i>
   <i name="EDIFF">      0.00000001</i>
   <i type="int" name="IALGO">    38</i>
   <i type="int" name="IWAVPR">    11</i>
   <i type="int" name="NBANDS">   192</i>
   <i name="NELECT">    256.00000000</i>
   <i type="int" name="TURBO">     0</i>
   <i type="int" name="IRESTART">     0</i>
   <i type="int" name="NREBOOT">     0</i>
   <i type="int" name="NMIN">     0</i>
   <i name="EREF">      0.00000000</i>
   <separator name="electronic smearing" >
    <i type="int" name="ISMEAR">     0</i>
    <i name="SIGMA">      0.06000000</i>
    <i name="KSPACING">      0.50000000</i>
    <i type="logical" name="KGAMMA"> T  </i>
   </separator>
   <separator name="electronic projectors" >
    <i type="logical" name="LREAL"> F  </i>
    <v name="ROPT">      0.00000000</v>
    <i type="int" name="LMAXPAW">  -100</i>
    <i type="int" name="LMAXMIX">     2</i>
    <i type="logical" name="NLSPLINE"> F  </i>
   </separator>
   <separator name="electronic startup" >
    <i type="int" name="ISTART">     0</i>
    <i type="int" name="ICHARG">     2</i>
    <i type="int" name="INIWAV">     1</i>
   </separator>
   <separator name="electronic spin" >
    <i type="int" name="ISPIN">     1</i>
    <i type="logical" name="LNONCOLLINEAR"> F  </i>
    <v name="MAGMOM">      1.00000000      1.00000000      1.00000000      1.00000000      1.00000000      1.00000000      1.00000000      1.00000000      1.00000000      1.00000000      1.00000000      1.00000000      1.00000000      1.00000000      1.00000000      1.00000000      1.00000000      1.00000000      1.00000000      1.00000000
      1.00000000      1.00000000      1.00000000      1.00000000      1.00000000      1.00000000      1.00000000      1.00000000      1.00000000      1.00000000      1.00000000      1.00000000      1.00000000      1.00000000      1.00000000      1.00000000      1.00000000      1.00000000      1.00000000      1.00000000
      1.00000000      1.00000000      1.00000000      1.00000000      1.00000000      1.00000000      1.00000000      1.00000000      1.00000000      1.00000000      1.00000000      1.00000000      1.00000000      1.00000000      1.00000000      1.00000000      1.00000000      1.00000000      1.00000000      1.00000000
      1.00000000      1.00000000      1.00000000      1.00000000</v>
    <i name="NUPDOWN">     -1.00000000</i>
    <i type="logical" name="LSORBIT"> F  </i>
    <v name="SAXIS">      0.00000000      0.00000000      1.00000000</v>
    <i type="logical" name="LSPIRAL"> F  </i>
    <v name="QSPIRAL">      0.00000000      0.00000000      0.00000000</v>
    <i type="logical" name="LZEROZ"> F  </i>
   </separator>
   <separator name="electronic exchange-correlation" >
    <i type="logical" name="LASPH"> F  </i>
    <i type="logical" name="LMETAGGA"> F  </i>
   </separator>
   <separator name="electronic convergence" >
    <i type="int" name="NELM">    60</i>
    <i type="int" name="NELMDL">    -5</i>
    <i type="int" name="NELMIN">     2</i>
    <i name="ENINI">    400.00000000</i>
    <separator name="electronic convergence detail" >
     <i type="logical" name="LDIAG"> T  </i>
     <i type="logical" name="LSUBROT"> F  </i>
     <i name="WEIMIN">      0.00100000</i>
     <i name="EBREAK">      0.00000000</i>
     <i name="DEPER">      0.30000000</i>
     <i type="int" name="NRMM">     4</i>
     <i name="TIME">      0.40000000</i>
    </separator>
   </separator>
   <separator name="electronic mixer" >
    <i name="AMIX">      0.40000000</i>
    <i name="BMIX">      1.00000000</i>
    <i name="AMIN">      0.10000000</i>
    <i name="AMIX_MAG">      1.60000000</i>
    <i name="BMIX_MAG">      1.00000000</i>
    <separator name="electronic mixer details" >
     <i type="int" name="IMIX">     4</i>
     <i type="logical" name="MIXFIRST"> F  </i>
     <i type="int" name="MAXMIX">   -45</i>
     <i name="WC">    100.00000000</i>
     <i type="int" name="INIMIX">     1</i>
     <i type="int" name="MIXPRE">     1</i>
     <i type="int" name="MREMOVE">     5</i>
    </separator>
   </separator>
   <separator name="electronic dipolcorrection" >
    <i type="logical" name="LDIPOL"> F  </i>
    <i type="logical" name="LMONO"> F  </i>
    <i type="int" name="IDIPOL">     0</i>
    <i name="EPSILON">      1.00000000</i>
    <v name="DIPOL">   -100.00000000   -100.00000000   -100.00000000</v>
    <i name="EFIELD">      0.00000000</i>
   </separator>
  </separator>
  <separator name="grids" >
   <i type="int" name="NGX">    48</i>
   <i type="int" name="NGY">    48</i>
   <i type="int" name="NGZ">    48</i>
   <i type="int" name="NGXF">    96</i>
   <i type="int" name="NGYF">    96</i>
   <i type="int" name="NGZF">    96</i>
   <i type="logical" name="ADDGRID"> T  </i>
  </separator>
  <separator name="ionic" >
   <i type="int" name="NSW">     1</i>
   <i type="int" name="IBRION">     8</i>
   <i type="int" name="MDALGO">     0</i>
   <i type="int" name="ISIF">     2</i>
   <i name="PSTRESS">      0.00000000</i>
   <i name="EDIFFG">      0.00000010</i>
   <i type="int" name="NFREE">     0</i>
   <i name="POTIM">      0.50000000</i>
   <i name="SMASS">     -3.00000000</i>
   <i name="SCALEE">      1.00000000</i>
  </separator>
  <separator name="ionic md" >
   <i name="TEBEG">      0.00010000</i>
   <i name="TEEND">      0.00010000</i>
   <i type="int" name="NBLOCK">     1</i>
   <i type="int" name="KBLOCK">     1</i>
   <i type="int" name="NPACO">   256</i>
   <i name="APACO">     16.00000000</i>
  </separator>
  <separator name="symmetry" >
   <i type="int" name="ISYM">     2</i>
   <i name="SYMPREC">      0.00001000</i>
  </separator>
  <separator name="dos" >
   <i type="int" name="LORBIT">     0</i>
   <v name="RWIGS">     -1.00000000</v>
   <i type="int" name="NEDOS">   301</i>
   <i name="EMIN">     10.00000000</i>
   <i name="EMAX">    -10.00000000</i>
   <i name="EFERMI">      0.00000000</i>
  </separator>
  <separator name="writing" >
   <i type="int" name="NWRITE">     2</i>
   <i type="logical" name="LWAVE"> F  </i>
   <i type="logical" name="LDOWNSAMPLE"> F  </i>
   <i type="logical" name="LCHARG"> F  </i>
   <i type="logical" name="LPARD"> F  </i>
   <i type="logical" name="LVTOT"> F  </i>
   <i type="logical" name="LVHAR"> F  </i>
   <i type="logical" name="LELF"> F  </i>
   <i type="logical" name="LOPTICS"> F  </i>
   <v name="STM">      0.00000000      0.00000000      0.00000000      0.00000000      0.00000000      0.00000000      0.00000000</v>
  </separator>
  <separator name="performance" >
   <i type="int" name="NPAR">    32</i>
   <i type="int" name="NSIM">     4</i>
   <i type="int" name="NBLK">    -1</i>
   <i type="logical" name="LPLANE"> T  </i>
   <i type="logical" name="LSCALAPACK"> T  </i>
   <i type="logical" name="LSCAAWARE"> F  </i>
   <i type="logical" name="LSCALU"> F  </i>
   <i type="logical" name="LASYNC"> F  </i>
   <i type="logical" name="LORBITALREAL"> F  </i>
  </separator>
  <separator name="miscellaneous" >
   <i type="int" name="IDIOT">     3</i>
   <i type="int" name="ISPECIAL">     0</i>
   <i type="logical" name="LMUSIC"> F  </i>
   <v name="POMASS">     12.01100000</v>
   <v name="DARWINR">      0.00000000</v>
   <v name="DARWINV">      1.00000000</v>
   <i type="logical" name="LCORR"> T  </i>
  </separator>
  <i type="logical" name="GGA_COMPAT"> T  </i>
  <i type="logical" name="LBERRY"> F  </i>
  <i type="int" name="ICORELEVEL">     0</i>
  <i type="logical" name="LDAU"> F  </i>
  <i type="int" name="I_CONSTRAINED_M">     0</i>
  <separator name="electronic exchange-correlation" >
   <i type="string" name="GGA">--</i>
   <i type="int" name="VOSKOWN">     0</i>
   <i type="logical" name="LHFCALC"> F  </i>
   <i type="string" name="PRECFOCK"></i>
   <i type="logical" name="LSYMGRAD"> F  </i>
   <i type="logical" name="LHFONE"> F  </i>
   <i type="logical" name="LRHFCALC"> F  </i>
   <i type="logical" name="LTHOMAS"> F  </i>
   <i type="logical" name="LMODELHF"> F  </i>
   <i name="ENCUT4O">     -1.00000000</i>
   <i type="int" name="EXXOEP">     0</i>
   <i type="int" name="FOURORBIT">     0</i>
   <i name="AEXX">      0.00000000</i>
   <i name="HFALPHA">      0.00000000</i>
   <i name="MCALPHA">      0.00000000</i>
   <i name="ALDAX">      1.00000000</i>
   <i name="AGGAX">      1.00000000</i>
   <i name="ALDAC">      1.00000000</i>
   <i name="AGGAC">      1.00000000</i>
   <i type="int" name="NKREDX">     1</i>
   <i type="int" name="NKREDY">     1</i>
   <i type="int" name="NKREDZ">     1</i>
   <i type="logical" name="SHIFTRED"> F  </i>
   <i type="logical" name="ODDONLY"> F  </i>
   <i type="logical" name="EVENONLY"> F  </i>
   <i type="int" name="LMAXFOCK">     0</i>
   <i type="int" name="NMAXFOCKAE">     0</i>
   <i type="logical" name="LFOCKAEDFT"> F  </i>
   <i name="HFSCREEN">      0.00000000</i>
   <i name="HFSCREENC">      0.00000000</i>
   <i type="int" name="NBANDSGWLOW">     0</i>
  </separator>
  <separator name="vdW DFT" >
   <i type="logical" name="LUSE_VDW"> F  </i>
   <i name="Zab_VDW">     -0.84910000</i>
   <i name="PARAM1">      0.12340000</i>
   <i name="PARAM2">      1.00000000</i>
   <i name="PARAM3">      0.00000000</i>
  </separator>
  <separator name="model GW" >
   <i type="int" name="MODEL_GW">     0</i>
   <i name="MODEL_EPS0">      3.46155839</i>
   <i name="MODEL_ALPHA">      1.00000000</i>
  </separator>
  <separator name="linear response parameters" >
   <i type="logical" name="LEPSILON"> F  </i>
   <i type="logical" name="LRPA"> F  </i>
   <i type="logical" name="LNABLA"> F  </i>
   <i type="logical" name="LVEL"> F  </i>
   <i type="int" name="KINTER">     0</i>
   <i name="CSHIFT">      0.10000000</i>
   <i name="OMEGAMAX">     -1.00000000</i>
   <i name="DEG_THRESHOLD">      0.00200000</i>
   <i name="RTIME">     -0.10000000</i>
   <i name="WPLASMAI">      0.00000000</i>
   <v name="DFIELD">      0.00000000      0.00000000      0.00000000</v>
   <v name="WPLASMA">      0.00000000      0.00000000      0.00000000      0.00000000      0.00000000      0.00000000      0.00000000      0.00000000      0.00000000</v>
  </separator>
  <separator name="orbital magnetization" >
   <i type="logical" name="NUCIND"> F  </i>
   <v name="MAGPOS">      0.00000000      0.00000000      0.00000000</v>
   <i type="logical" name="LNICSALL"> T  </i>
   <i type="logical" name="ORBITALMAG"> F  </i>
   <i type="logical" name="LMAGBLOCH"> F  </i>
   <i type="logical" name="LCHIMAG"> F  </i>
   <i type="logical" name="LGAUGE"> T  </i>
   <i type="int" name="MAGATOM">     0</i>
   <v name="MAGDIPOL">      0.00000000      0.00000000      0.00000000</v>
   <v name="AVECCONST">      0.00000000      0.00000000      0.00000000</v>
  </separator>
  <separator name="response functions" >
   <i type="logical" name="LADDER"> F  </i>
   <i type="logical" name="LRPAFORCE"> F  </i>
   <i type="logical" name="LFXC"> F  </i>
   <i type="logical" name="LHARTREE"> T  </i>
   <i type="int" name="IBSE">     0</i>
   <v type="int" name="KPOINT">    -1     0     0     0</v>
   <i type="logical" name="LTCTE"> F  </i>
   <i type="logical" name="LTETE"> F  </i>
   <i type="logical" name="LTRIPLET"> F  </i>
   <i type="logical" name="LFXCEPS"> F  </i>
   <i type="logical" name="LFXHEG"> F  </i>
   <i type="int" name="NATURALO">     2</i>
   <i type="logical" name="L2ORDER"> F  </i>
   <i type="logical" name="LMP2LT"> F  </i>
   <i type="logical" name="LUSEW"> F  </i>
   <i name="ENCUTGW">     -2.00000000</i>
   <i name="ENCUTGWSOFT">     -2.00000000</i>
   <i name="ENCUTLF">     -1.00000000</i>
   <i type="int" name="LMAXMP2">    -1</i>
   <i name="SCISSOR">      0.00000000</i>
   <i type="int" name="NOMEGA">     0</i>
   <i type="int" name="NOMEGAR">     0</i>
   <i type="int" name="NBANDSGW">    -1</i>
   <i type="int" name="NBANDSO">    -1</i>
   <i type="int" name="NBANDSV">    -1</i>
   <i type="int" name="NELM">     1</i>
   <i type="int" name="NELMHF">     1</i>
   <i type="int" name="DIM">     3</i>
   <i type="int" name="ANTIRES">     0</i>
   <i name="OMEGAMAX">    -30.00000000</i>
   <i name="OMEGAMIN">    -30.00000000</i>
   <i name="OMEGATL">   -200.00000000</i>
   <i type="int" name="OMEGAGRID">   140</i>
   <i name="CSHIFT">     -0.10000000</i>
   <i type="logical" name="SELFENERGY"> F  </i>
   <i type="logical" name="LSPECTRAL"> F  </i>
   <i type="logical" name="LSPECTRALGW"> F  </i>
   <i type="logical" name="LSINGLES"> F  </i>
   <i type="logical" name="LFERMIGW"> F  </i>
   <i type="logical" name="ODDONLYGW"> F  </i>
   <i type="logical" name="EVENONLYGW"> F  </i>
   <i type="int" name="NKREDLFX">     1</i>
   <i type="int" name="NKREDLFY">     1</i>
   <i type="int" name="NKREDLFZ">     1</i>
   <i type="int" name="MAXMEM">  2800</i>
   <i type="int" name="TELESCOPE">     0</i>
   <i type="int" name="TAUPAR">     1</i>
   <i type="int" name="OMEGAPAR">    -1</i>
   <i name="LAMBDA">      1.00000000</i>
  </separator>
  <separator name="External order field" >
   <i name="OFIELD_KAPPA">      0.00000000</i>
   <v name="OFIELD_K">      0.00000000      0.00000000      0.00000000</v>
   <i name="OFIELD_Q6_NEAR">      0.00000000</i>
   <i name="OFIELD_Q6_FAR">      0.00000000</i>
   <i name="OFIELD_A">      0.00000000</i>
  </separator>
 </parameters>
 <atominfo>
  <atoms>      64 </atoms>
  <types>       1 </types>
  <array name="atoms" >
   <dimension dim="1">ion</dimension>
   <field type="string">element</field>
   <field type="int">atomtype</field>
   <set>
    <rc><c>C </c><c>   1</c></rc>
    <rc><c>C </c><c>   1</c></rc>
    <rc><c>C </c><c>   1</c></rc>
    <rc><c>C </c><c>   1</c></rc>
    <rc><c>C </c><c>   1</c></rc>
    <rc><c>C </c><c>   1</c></rc>
    <rc><c>C </c><c>   1</c></rc>
    <rc><c>C </c><c>   1</c></rc>
    <rc><c>C </c><c>   1</c></rc>
    <rc><c>C </c><c>   1</c></rc>
    <rc><c>C </c><c>   1</c></rc>
    <rc><c>C </c><c>   1</c></rc>
    <rc><c>C </c><c>   1</c></rc>
    <rc><c>C </c><c>   1</c></rc>
    <rc><c>C </c><c>   1</c></rc>
    <rc><c>C </c><c>   1</c></rc>
    <rc><c>C </c><c>   1</c></rc>
    <rc><c>C </c><c>   1</c></rc>
    <rc><c>C </c><c>   1</c></rc>
    <rc><c>C </c><c>   1</c></rc>
    <rc><c>C </c><c>   1</c></rc>
    <rc><c>C </c><c>   1</c></rc>
    <rc><c>C </c><c>   1</c></rc>
    <rc><c>C </c><c>   1</c></rc>
    <rc><c>C </c><c>   1</c></rc>
    <rc><c>C </c><c>   1</c></rc>
    <rc><c>C </c><c>   1</c></rc>
    <rc><c>C </c><c>   1</c></rc>
    <rc><c>C </c><c>   1</c></rc>
    <rc><c>C </c><c>   1</c></rc>
    <rc><c>C </c><c>   1</c></rc>
    <rc><c>C </c><c>   1</c></rc>
    <rc><c>C </c><c>   1</c></rc>
    <rc><c>C </c><c>   1</c></rc>
    <rc><c>C </c><c>   1</c></rc>
    <rc><c>C </c><c>   1</c></rc>
    <rc><c>C </c><c>   1</c></rc>
    <rc><c>C </c><c>   1</c></rc>
    <rc><c>C </c><c>   1</c></rc>
    <rc><c>C </c><c>   1</c></rc>
    <rc><c>C </c><c>   1</c></rc>
    <rc><c>C </c><c>   1</c></rc>
    <rc><c>C </c><c>   1</c></rc>
    <rc><c>C </c><c>   1</c></rc>
    <rc><c>C </c><c>   1</c></rc>
    <rc><c>C </c><c>   1</c></rc>
    <rc><c>C </c><c>   1</c></rc>
    <rc><c>C </c><c>   1</c></rc>
    <rc><c>C </c><c>   1</c></rc>
    <rc><c>C </c><c>   1</c></rc>
    <rc><c>C </c><c>   1</c></rc>
    <rc><c>C </c><c>   1</c></rc>
    <rc><c>C </c><c>   1</c></rc>
    <rc><c>C </c><c>   1</c></rc>
    <rc><c>C </c><c>   1</c></rc>
    <rc><c>C </c><c>   1</c></rc>
    <rc><c>C </c><c>   1</c></rc>
    <rc><c>C </c><c>   1</c></rc>
    <rc><c>C </c><c>   1</c></rc>
    <rc><c>C </c><c>   1</c></rc>
    <rc><c>C </c><c>   1</c></rc>
    <rc><c>C </c><c>   1</c></rc>
    <rc><c>C </c><c>   1</c></rc>
    <rc><c>C </c><c>   1</c></rc>
   </set>
  </array>
  <array name="atomtypes" >
   <dimension dim="1">type</dimension>
   <field type="int">atomspertype</field>
   <field type="string">element</field>
   <field>mass</field>
   <field>valence</field>
   <field type="string">pseudopotential</field>
   <set>
    <rc><c>  64</c><c>C </c><c>     12.01100000</c><c>      4.00000000</c><c> PAW_PBE C 08Apr2002                    </c></rc>
   </set>
  </array>
 </atominfo>
 <structure name="initialpos" >
  <crystal>
   <varray name="basis" >
    <v>       7.17999872       0.00000000       0.00000000 </v>
    <v>      -0.28719915       7.17425265       0.00000000 </v>
    <v>      -0.28719915      -0.29892636       7.16802238 </v>
   </varray>
   <i name="volume">    369.23289517 </i>
   <varray name="rec_basis" >
    <v>       0.13927579       0.00557548       0.00581284 </v>
    <v>       0.00000000       0.13938734       0.00581284 </v>
    <v>       0.00000000       0.00000000       0.13950849 </v>
   </varray>
  </crystal>
  <varray name="positions" >
   <v>       0.12500000       0.37500000       0.12500000 </v>
   <v>       0.62500000       0.37500000       0.12500000 </v>
   <v>       0.12500000       0.87500000       0.12500000 </v>
   <v>       0.62500000       0.87500000       0.12500000 </v>
   <v>       0.12500000       0.37500000       0.62500000 </v>
   <v>       0.62500000       0.37500000       0.62500000 </v>
   <v>       0.12500000       0.87500000       0.62500000 </v>
   <v>       0.62500000       0.87500000       0.62500000 </v>
   <v>       0.00000000       0.00000000       0.25000000 </v>
   <v>       0.50000000       0.00000000       0.25000000 </v>
   <v>       0.00000000       0.50000000       0.25000000 </v>
   <v>       0.50000000       0.50000000       0.25000000 </v>
   <v>       0.00000000       0.00000000       0.75000000 </v>
   <v>       0.50000000       0.00000000       0.75000000 </v>
   <v>       0.00000000       0.50000000       0.75000000 </v>
   <v>       0.50000000       0.50000000       0.75000000 </v>
   <v>       0.12500000       0.12500000       0.37500000 </v>
   <v>       0.62500000       0.12500000       0.37500000 </v>
   <v>       0.12500000       0.62500000       0.37500000 </v>
   <v>       0.62500000       0.62500000       0.37500000 </v>
   <v>       0.12500000       0.12500000       0.87500000 </v>
   <v>       0.62500000       0.12500000       0.87500000 </v>
   <v>       0.12500000       0.62500000       0.87500000 </v>
   <v>       0.62500000       0.62500000       0.87500000 </v>
   <v>       0.00000000       0.25000000       0.00000000 </v>
   <v>       0.50000000       0.25000000       0.00000000 </v>
   <v>       0.00000000       0.75000000       0.00000000 </v>
   <v>       0.50000000       0.75000000       0.00000000 </v>
   <v>       0.00000000       0.25000000       0.50000000 </v>
   <v>       0.50000000       0.25000000       0.50000000 </v>
   <v>       0.00000000       0.75000000       0.50000000 </v>
   <v>       0.50000000       0.75000000       0.50000000 </v>
   <v>       0.37500000       0.37500000       0.37500000 </v>
   <v>       0.87500000       0.37500000       0.37500000 </v>
   <v>       0.37500000       0.87500000       0.37500000 </v>
   <v>       0.87500000       0.87500000       0.37500000 </v>
   <v>       0.37500000       0.37500000       0.87500000 </v>
   <v>       0.87500000       0.37500000       0.87500000 </v>
   <v>       0.37500000       0.87500000       0.87500000 </v>
   <v>       0.87500000       0.87500000       0.87500000 </v>
   <v>       0.25000000       0.00000000       0.00000000 </v>
   <v>       0.75000000       0.00000000       0.00000000 </v>
   <v>       0.25000000       0.50000000       0.00000000 </v>
   <v>       0.75000000       0.50000000       0.00000000 </v>
   <v>       0.25000000       0.00000000       0.50000000 </v>
   <v>       0.75000000       0.00000000       0.50000000 </v>
   <v>       0.25000000       0.50000000       0.50000000 </v>
   <v>       0.75000000       0.50000000       0.50000000 </v>
   <v>       0.37500000       0.12500000       0.12500000 </v>
   <v>       0.87500000       0.12500000       0.12500000 </v>
   <v>       0.37500000       0.62500000       0.12500000 </v>
   <v>       0.87500000       0.62500000       0.12500000 </v>
   <v>       0.37500000       0.12500000       0.62500000 </v>
   <v>       0.87500000       0.12500000       0.62500000 </v>
   <v>       0.37500000       0.62500000       0.62500000 </v>
   <v>       0.87500000       0.62500000       0.62500000 </v>
   <v>       0.25000000       0.25000000       0.25000000 </v>
   <v>       0.75000000       0.25000000       0.25000000 </v>
   <v>       0.25000000       0.75000000       0.25000000 </v>
   <v>       0.75000000       0.75000000       0.25000000 </v>
   <v>       0.25000000       0.25000000       0.75000000 </v>
   <v>       0.75000000       0.25000000       0.75000000 </v>
   <v>       0.25000000       0.75000000       0.75000000 </v>
   <v>       0.75000000       0.75000000       0.75000000 </v>
  </varray>
 </structure>
 <calculation>
  <scstep>
   <time name="dav">   22.14   22.15</time>
   <time name="total">   22.25   22.32</time>
   <energy>
    <i name="alphaZ">    903.88141499 </i>
    <i name="ewald"> -11061.54255791 </i>
    <i name="hartreedc">   -580.16928497 </i>
    <i name="XCdc">    911.82141539 </i>
    <i name="pawpsdc">   2421.21235816 </i>
    <i name="pawaedc">  -2494.84305711 </i>
    <i name="eentropy">     -0.01360292 </i>
    <i name="bandstr">    992.74485060 </i>
    <i name="atom">   9416.14232778 </i>
    <i name="e_fr_energy">    509.23386400 </i>
    <i name="e_wo_entrp">    509.24746692 </i>
    <i name="e_0_energy">    509.24066546 </i>
   </energy>
  </scstep>
  <scstep>
   <time name="dav">   27.77   27.77</time>
   <time name="total">   27.77   27.77</time>
   <energy>
    <i name="e_fr_energy">   -556.03296496 </i>
    <i name="e_wo_entrp">   -556.03296496 </i>
    <i name="e_0_energy">   -556.03296496 </i>
   </energy>
  </scstep>
  <scstep>
   <time name="dav">   27.90   27.90</time>
   <time name="total">   27.90   27.90</time>
   <energy>
    <i name="e_fr_energy">   -597.98509976 </i>
    <i name="e_wo_entrp">   -597.98509976 </i>
    <i name="e_0_energy">   -597.98509976 </i>
   </energy>
  </scstep>
  <scstep>
   <time name="dav">   27.41   27.41</time>
   <time name="total">   27.42   27.42</time>
   <energy>
    <i name="e_fr_energy">   -598.44754169 </i>
    <i name="e_wo_entrp">   -598.44754169 </i>
    <i name="e_0_energy">   -598.44754169 </i>
   </energy>
  </scstep>
  <scstep>
   <time name="dav">   25.93   25.93</time>
   <time name="total">   26.58   26.58</time>
   <energy>
    <i name="e_fr_energy">   -598.45720203 </i>
    <i name="e_wo_entrp">   -598.45720203 </i>
    <i name="e_0_energy">   -598.45720203 </i>
   </energy>
  </scstep>
  <scstep>
   <time name="dav">   24.66   24.66</time>
   <time name="total">   25.41   25.41</time>
   <energy>
    <i name="e_fr_energy">   -583.61938162 </i>
    <i name="e_wo_entrp">   -583.61938162 </i>
    <i name="e_0_energy">   -583.61938162 </i>
   </energy>
  </scstep>
  <scstep>
   <time name="dav">   25.94   25.94</time>
   <time name="total">   26.70   26.70</time>
   <energy>
    <i name="e_fr_energy">   -578.63320528 </i>
    <i name="e_wo_entrp">   -578.63320528 </i>
    <i name="e_0_energy">   -578.63320528 </i>
   </energy>
  </scstep>
  <scstep>
   <time name="dav">   25.86   25.86</time>
   <time name="total">   26.62   26.63</time>
   <energy>
    <i name="e_fr_energy">   -578.69819426 </i>
    <i name="e_wo_entrp">   -578.69819426 </i>
    <i name="e_0_energy">   -578.69819426 </i>
   </energy>
  </scstep>
  <scstep>
   <time name="dav">   27.03   27.04</time>
   <time name="total">   27.80   27.80</time>
   <energy>
    <i name="e_fr_energy">   -578.70062682 </i>
    <i name="e_wo_entrp">   -578.70062682 </i>
    <i name="e_0_energy">   -578.70062682 </i>
   </energy>
  </scstep>
  <scstep>
   <time name="dav">   25.63   25.64</time>
   <time name="total">   26.39   26.39</time>
   <energy>
    <i name="e_fr_energy">   -578.70112163 </i>
    <i name="e_wo_entrp">   -578.70112163 </i>
    <i name="e_0_energy">   -578.70112163 </i>
   </energy>
  </scstep>
  <scstep>
   <time name="dav">   27.39   27.39</time>
   <time name="total">   28.14   28.14</time>
   <energy>
    <i name="e_fr_energy">   -578.70114314 </i>
    <i name="e_wo_entrp">   -578.70114314 </i>
    <i name="e_0_energy">   -578.70114314 </i>
   </energy>
  </scstep>
  <scstep>
   <time name="dav">   27.02   27.02</time>
   <time name="total">   27.78   27.78</time>
   <energy>
    <i name="e_fr_energy">   -578.70114303 </i>
    <i name="e_wo_entrp">   -578.70114303 </i>
    <i name="e_0_energy">   -578.70114303 </i>
   </energy>
  </scstep>
  <scstep>
   <time name="dav">   25.45   25.45</time>
   <time name="total">   26.19   26.20</time>
   <energy>
    <i name="e_fr_energy">   -578.70114307 </i>
    <i name="e_wo_entrp">   -578.70114307 </i>
    <i name="e_0_energy">   -578.70114307 </i>
   </energy>
  </scstep>
  <scstep>
   <time name="dav">   21.69   21.69</time>
   <time name="total">   22.46   22.46</time>
   <energy>
    <i name="e_fr_energy">   -578.70114312 </i>
    <i name="e_wo_entrp">   -578.70114312 </i>
    <i name="e_0_energy">   -578.70114312 </i>
   </energy>
  </scstep>
  <scstep>
   <time name="dav">   18.89   18.89</time>
   <time name="total">   19.00   19.00</time>
   <energy>
    <i name="alphaZ">    903.88141499 </i>
    <i name="ewald"> -11061.54255791 </i>
    <i name="hartreedc">   -858.57230032 </i>
    <i name="XCdc">    937.92084385 </i>
    <i name="pawpsdc">   4157.08489735 </i>
    <i name="pawaedc">  -4237.79085960 </i>
    <i name="eentropy">     -0.00000000 </i>
    <i name="bandstr">    164.17509073 </i>
    <i name="atom">   9416.14232778 </i>
    <i name="e_fr_energy">   -578.70114312 </i>
    <i name="e_wo_entrp">   -578.70114312 </i>
    <i name="e_0_energy">   -578.70114312 </i>
   </energy>
  </scstep>
  <structure>
   <crystal>
    <varray name="basis" >
     <v>       7.17999872       0.00000000       0.00000000 </v>
     <v>      -0.28719915       7.17425265       0.00000000 </v>
     <v>      -0.28719915      -0.29892636       7.16802238 </v>
    </varray>
    <i name="volume">    369.23289517 </i>
    <varray name="rec_basis" >
     <v>       0.13927579       0.00557548       0.00581284 </v>
     <v>       0.00000000       0.13938734       0.00581284 </v>
     <v>       0.00000000       0.00000000       0.13950849 </v>
    </varray>
   </crystal>
   <varray name="positions" >
    <v>       0.12500000       0.37500000       0.12500000 </v>
    <v>       0.62500000       0.37500000       0.12500000 </v>
    <v>       0.12500000       0.87500000       0.12500000 </v>
    <v>       0.62500000       0.87500000       0.12500000 </v>
    <v>       0.12500000       0.37500000       0.62500000 </v>
    <v>       0.62500000       0.37500000       0.62500000 </v>
    <v>       0.12500000       0.87500000       0.62500000 </v>
    <v>       0.62500000       0.87500000       0.62500000 </v>
    <v>       0.00000000       0.00000000       0.25000000 </v>
    <v>       0.50000000       0.00000000       0.25000000 </v>
    <v>       0.00000000       0.50000000       0.25000000 </v>
    <v>       0.50000000       0.50000000       0.25000000 </v>
    <v>       0.00000000       0.00000000       0.75000000 </v>
    <v>       0.50000000       0.00000000       0.75000000 </v>
    <v>       0.00000000       0.50000000       0.75000000 </v>
    <v>       0.50000000       0.50000000       0.75000000 </v>
    <v>       0.12500000       0.12500000       0.37500000 </v>
    <v>       0.62500000       0.12500000       0.37500000 </v>
    <v>       0.12500000       0.62500000       0.37500000 </v>
    <v>       0.62500000       0.62500000       0.37500000 </v>
    <v>       0.12500000       0.12500000       0.87500000 </v>
    <v>       0.62500000       0.12500000       0.87500000 </v>
    <v>       0.12500000       0.62500000       0.87500000 </v>
    <v>       0.62500000       0.62500000       0.87500000 </v>
    <v>       0.00000000       0.25000000       0.00000000 </v>
    <v>       0.50000000       0.25000000       0.00000000 </v>
    <v>       0.00000000       0.75000000       0.00000000 </v>
    <v>       0.50000000       0.75000000       0.00000000 </v>
    <v>       0.00000000       0.25000000       0.50000000 </v>
    <v>       0.50000000       0.25000000       0.50000000 </v>
    <v>       0.00000000       0.75000000       0.50000000 </v>
    <v>       0.50000000       0.75000000       0.50000000 </v>
    <v>       0.37500000       0.37500000       0.37500000 </v>
    <v>       0.87500000       0.37500000       0.37500000 </v>
    <v>       0.37500000       0.87500000       0.37500000 </v>
    <v>       0.87500000       0.87500000       0.37500000 </v>
    <v>       0.37500000       0.37500000       0.87500000 </v>
    <v>       0.87500000       0.37500000       0.87500000 </v>
    <v>       0.37500000       0.87500000       0.87500000 </v>
    <v>       0.87500000       0.87500000       0.87500000 </v>
    <v>       0.25000000       0.00000000       0.00000000 </v>
    <v>       0.75000000       0.00000000       0.00000000 </v>
    <v>       0.25000000       0.50000000       0.00000000 </v>
    <v>       0.75000000       0.50000000       0.00000000 </v>
    <v>       0.25000000       0.00000000       0.50000000 </v>
    <v>       0.75000000       0.00000000       0.50000000 </v>
    <v>       0.25000000       0.50000000       0.50000000 </v>
    <v>       0.75000000       0.50000000       0.50000000 </v>
    <v>       0.37500000       0.12500000       0.12500000 </v>
    <v>       0.87500000       0.12500000       0.12500000 </v>
    <v>       0.37500000       0.62500000       0.12500000 </v>
    <v>       0.87500000       0.62500000       0.12500000 </v>
    <v>       0.37500000       0.12500000       0.62500000 </v>
    <v>       0.87500000       0.12500000       0.62500000 </v>
    <v>       0.37500000       0.62500000       0.62500000 </v>
    <v>       0.87500000       0.62500000       0.62500000 </v>
    <v>       0.25000000       0.25000000       0.25000000 </v>
    <v>       0.75000000       0.25000000       0.25000000 </v>
    <v>       0.25000000       0.75000000       0.25000000 </v>
    <v>       0.75000000       0.75000000       0.25000000 </v>
    <v>       0.25000000       0.25000000       0.75000000 </v>
    <v>       0.75000000       0.25000000       0.75000000 </v>
    <v>       0.25000000       0.75000000       0.75000000 </v>
    <v>       0.75000000       0.75000000       0.75000000 </v>
   </varray>
  </structure>
  <varray name="forces" >
   <v>       0.21662917       0.22547477       0.23507367 </v>
   <v>       0.21662917       0.22547477       0.23507367 </v>
   <v>       0.21662917       0.22547477       0.23507367 </v>
   <v>       0.21662917       0.22547477       0.23507367 </v>
   <v>       0.21662917       0.22547477       0.23507367 </v>
   <v>       0.21662917       0.22547477       0.23507367 </v>
   <v>       0.21662917       0.22547477       0.23507367 </v>
   <v>       0.21662917       0.22547477       0.23507367 </v>
   <v>      -0.21662917      -0.22547477      -0.23507367 </v>
   <v>      -0.21662917      -0.22547477      -0.23507367 </v>
   <v>      -0.21662917      -0.22547477      -0.23507367 </v>
   <v>      -0.21662917      -0.22547477      -0.23507367 </v>
   <v>      -0.21662917      -0.22547477      -0.23507367 </v>
   <v>      -0.21662917      -0.22547477      -0.23507367 </v>
   <v>      -0.21662917      -0.22547477      -0.23507367 </v>
   <v>      -0.21662917      -0.22547477      -0.23507367 </v>
   <v>       0.21662917       0.22547477       0.23507367 </v>
   <v>       0.21662917       0.22547477       0.23507367 </v>
   <v>       0.21662917       0.22547477       0.23507367 </v>
   <v>       0.21662917       0.22547477       0.23507367 </v>
   <v>       0.21662917       0.22547477       0.23507367 </v>
   <v>       0.21662917       0.22547477       0.23507367 </v>
   <v>       0.21662917       0.22547477       0.23507367 </v>
   <v>       0.21662917       0.22547477       0.23507367 </v>
   <v>      -0.21662917      -0.22547477      -0.23507367 </v>
   <v>      -0.21662917      -0.22547477      -0.23507367 </v>
   <v>      -0.21662917      -0.22547477      -0.23507367 </v>
   <v>      -0.21662917      -0.22547477      -0.23507367 </v>
   <v>      -0.21662917      -0.22547477      -0.23507367 </v>
   <v>      -0.21662917      -0.22547477      -0.23507367 </v>
   <v>      -0.21662917      -0.22547477      -0.23507367 </v>
   <v>      -0.21662917      -0.22547477      -0.23507367 </v>
   <v>       0.21662917       0.22547477       0.23507367 </v>
   <v>       0.21662917       0.22547477       0.23507367 </v>
   <v>       0.21662917       0.22547477       0.23507367 </v>
   <v>       0.21662917       0.22547477       0.23507367 </v>
   <v>       0.21662917       0.22547477       0.23507367 </v>
   <v>       0.21662917       0.22547477       0.23507367 </v>
   <v>       0.21662917       0.22547477       0.23507367 </v>
   <v>       0.21662917       0.22547477       0.23507367 </v>
   <v>      -0.21662917      -0.22547477      -0.23507367 </v>
   <v>      -0.21662917      -0.22547477      -0.23507367 </v>
   <v>      -0.21662917      -0.22547477      -0.23507367 </v>
   <v>      -0.21662917      -0.22547477      -0.23507367 </v>
   <v>      -0.21662917      -0.22547477      -0.23507367 </v>
   <v>      -0.21662917      -0.22547477      -0.23507367 </v>
   <v>      -0.21662917      -0.22547477      -0.23507367 </v>
   <v>      -0.21662917      -0.22547477      -0.23507367 </v>
   <v>       0.21662917       0.22547477       0.23507367 </v>
   <v>       0.21662917       0.22547477       0.23507367 </v>
   <v>       0.21662917       0.22547477       0.23507367 </v>
   <v>       0.21662917       0.22547477       0.23507367 </v>
   <v>       0.21662917       0.22547477       0.23507367 </v>
   <v>       0.21662917       0.22547477       0.23507367 </v>
   <v>       0.21662917       0.22547477       0.23507367 </v>
   <v>       0.21662917       0.22547477       0.23507367 </v>
   <v>      -0.21662917      -0.22547477      -0.23507367 </v>
   <v>      -0.21662917      -0.22547477      -0.23507367 </v>
   <v>      -0.21662917      -0.22547477      -0.23507367 </v>
   <v>      -0.21662917      -0.22547477      -0.23507367 </v>
   <v>      -0.21662917      -0.22547477      -0.23507367 </v>
   <v>      -0.21662917      -0.22547477      -0.23507367 </v>
   <v>      -0.21662917      -0.22547477      -0.23507367 </v>
   <v>      -0.21662917      -0.22547477      -0.23507367 </v>
  </varray>
  <varray name="stress" >
   <v>     -87.30461080     223.87378135     233.40452608 </v>
   <v>     223.87378135     -69.38041986     242.93511259 </v>
   <v>     233.40452608     242.93511259     -49.11828848 </v>
  </varray>
  <energy>
   <i name="e_fr_energy">   -578.70114312 </i>
   <i name="e_wo_entrp">   -578.70114312 </i>
   <i name="e_0_energy">     -0.00000000 </i>
  </energy>
  <kpoints>
   <generation param="Gamma">
    <v type="int" name="divisions">       6        6        6 </v>
    <v name="usershift">      0.00000000       0.00000000       0.00000000 </v>
    <v name="genvec1">      0.16666667       0.00000000      -0.00000000 </v>
    <v name="genvec2">      0.00000000       0.16666667       0.00000000 </v>
    <v name="genvec3">      0.00000000       0.00000000       0.16666667 </v>
    <v name="shift">      0.00000000       0.00000000       0.00000000 </v>
   </generation>
   <varray name="kpointlist" >
    <v>       0.00000000       0.00000000       0.00000000 </v>
    <v>       0.16666667      -0.00000000       0.00000000 </v>
    <v>       0.33333333      -0.00000000      -0.00000000 </v>
    <v>       0.50000000      -0.00000000       0.00000000 </v>
    <v>       0.00000000       0.16666667       0.00000000 </v>
    <v>       0.16666667       0.16666667       0.00000000 </v>
    <v>       0.33333333       0.16666667       0.00000000 </v>
    <v>       0.50000000       0.16666667       0.00000000 </v>
    <v>      -0.33333333       0.16666667      -0.00000000 </v>
    <v>      -0.16666667       0.16666667      -0.00000000 </v>
    <v>       0.00000000       0.33333333       0.00000000 </v>
    <v>       0.16666667       0.33333333       0.00000000 </v>
    <v>       0.33333333       0.33333333       0.00000000 </v>
    <v>       0.50000000       0.33333333       0.00000000 </v>
    <v>      -0.33333333       0.33333333       0.00000000 </v>
    <v>      -0.16666667       0.33333333       0.00000000 </v>
    <v>       0.00000000       0.50000000      -0.00000000 </v>
    <v>       0.16666667       0.50000000      -0.00000000 </v>
    <v>       0.33333333       0.50000000       0.00000000 </v>
    <v>       0.50000000       0.50000000      -0.00000000 </v>
    <v>       0.00000000       0.16666667       0.16666667 </v>
    <v>       0.16666667       0.16666667       0.16666667 </v>
    <v>       0.33333333       0.16666667       0.16666667 </v>
    <v>       0.50000000       0.16666667       0.16666667 </v>
    <v>      -0.33333333       0.16666667       0.16666667 </v>
    <v>      -0.16666667       0.16666667       0.16666667 </v>
    <v>       0.00000000       0.33333333       0.16666667 </v>
    <v>       0.16666667       0.33333333       0.16666667 </v>
    <v>       0.33333333       0.33333333       0.16666667 </v>
    <v>       0.50000000       0.33333333       0.16666667 </v>
    <v>      -0.33333333       0.33333333       0.16666667 </v>
    <v>      -0.16666667       0.33333333       0.16666667 </v>
    <v>       0.00000000       0.50000000       0.16666667 </v>
    <v>       0.16666667       0.50000000       0.16666667 </v>
    <v>       0.33333333       0.50000000       0.16666667 </v>
    <v>       0.50000000       0.50000000       0.16666667 </v>
    <v>      -0.33333333       0.50000000       0.16666667 </v>
    <v>      -0.16666667       0.50000000       0.16666667 </v>
    <v>       0.00000000      -0.33333333       0.16666667 </v>
    <v>       0.16666667      -0.33333333       0.16666667 </v>
    <v>       0.33333333      -0.33333333       0.16666667 </v>
    <v>       0.50000000      -0.33333333       0.16666667 </v>
    <v>      -0.33333333      -0.33333333       0.16666667 </v>
    <v>      -0.16666667      -0.33333333       0.16666667 </v>
    <v>       0.00000000      -0.16666667       0.16666667 </v>
    <v>       0.16666667      -0.16666667       0.16666667 </v>
    <v>       0.33333333      -0.16666667       0.16666667 </v>
    <v>       0.50000000      -0.16666667       0.16666667 </v>
    <v>       0.00000000       0.33333333       0.33333333 </v>
    <v>       0.16666667       0.33333333       0.33333333 </v>
    <v>       0.33333333       0.33333333       0.33333333 </v>
    <v>       0.50000000       0.33333333       0.33333333 </v>
    <v>      -0.33333333       0.33333333       0.33333333 </v>
    <v>      -0.16666667       0.33333333       0.33333333 </v>
    <v>       0.00000000       0.50000000       0.33333333 </v>
    <v>       0.16666667       0.50000000       0.33333333 </v>
    <v>       0.33333333       0.50000000       0.33333333 </v>
    <v>       0.50000000       0.50000000       0.33333333 </v>
    <v>      -0.33333333       0.50000000       0.33333333 </v>
    <v>      -0.16666667       0.50000000       0.33333333 </v>
    <v>       0.00000000      -0.33333333       0.33333333 </v>
    <v>       0.16666667      -0.33333333       0.33333333 </v>
    <v>       0.33333333      -0.33333333       0.33333333 </v>
    <v>       0.50000000      -0.33333333       0.33333333 </v>
    <v>       0.00000000       0.50000000       0.50000000 </v>
    <v>       0.16666667       0.50000000       0.50000000 </v>
    <v>       0.33333333       0.50000000       0.50000000 </v>
    <v>       0.50000000       0.50000000       0.50000000 </v>
   </varray>
   <varray name="weights" >
    <v>       0.00462963 </v>
    <v>       0.00925926 </v>
    <v>       0.00925926 </v>
    <v>       0.00462963 </v>
    <v>       0.01851852 </v>
    <v>       0.01851852 </v>
    <v>       0.01851852 </v>
    <v>       0.01851852 </v>
    <v>       0.01851852 </v>
    <v>       0.01851852 </v>
    <v>       0.01851852 </v>
    <v>       0.01851852 </v>
    <v>       0.01851852 </v>
    <v>       0.01851852 </v>
    <v>       0.01851852 </v>
    <v>       0.01851852 </v>
    <v>       0.00925926 </v>
    <v>       0.01851852 </v>
    <v>       0.01851852 </v>
    <v>       0.00925926 </v>
    <v>       0.00925926 </v>
    <v>       0.00925926 </v>
    <v>       0.00925926 </v>
    <v>       0.00925926 </v>
    <v>       0.00925926 </v>
    <v>       0.00925926 </v>
    <v>       0.01851852 </v>
    <v>       0.01851852 </v>
    <v>       0.01851852 </v>
    <v>       0.01851852 </v>
    <v>       0.01851852 </v>
    <v>       0.01851852 </v>
    <v>       0.01851852 </v>
    <v>       0.01851852 </v>
    <v>       0.01851852 </v>
    <v>       0.01851852 </v>
    <v>       0.01851852 </v>
    <v>       0.01851852 </v>
    <v>       0.01851852 </v>
    <v>       0.01851852 </v>
    <v>       0.01851852 </v>
    <v>       0.01851852 </v>
    <v>       0.01851852 </v>
    <v>       0.01851852 </v>
    <v>       0.00925926 </v>
    <v>       0.01851852 </v>
    <v>       0.01851852 </v>
    <v>       0.00925926 </v>
    <v>       0.00925926 </v>
    <v>       0.00925926 </v>
    <v>       0.00925926 </v>
    <v>       0.00925926 </v>
    <v>       0.00925926 </v>
    <v>       0.00925926 </v>
    <v>       0.01851852 </v>
    <v>       0.01851852 </v>
    <v>       0.01851852 </v>
    <v>       0.01851852 </v>
    <v>       0.01851852 </v>
    <v>       0.01851852 </v>
    <v>       0.00925926 </v>
    <v>       0.01851852 </v>
    <v>       0.01851852 </v>
    <v>       0.00925926 </v>
    <v>       0.00462963 </v>
    <v>       0.00925926 </v>
    <v>       0.00925926 </v>
    <v>       0.00462963 </v>
   </varray>
  </kpoints>
  <scstep>
   <time name="total">   57.52   57.53</time>
   <energy>
    <i name="e_fr_energy">   -362.90816803 </i>
    <i name="e_wo_entrp">   -362.90816803 </i>
    <i name="e_0_energy">   -362.90816803 </i>
   </energy>
  </scstep>
  <scstep>
   <time name="total">   42.08   42.12</time>
   <energy>
    <i name="e_fr_energy">   -309.01670710 </i>
    <i name="e_wo_entrp">   -309.01670710 </i>
    <i name="e_0_energy">   -309.01670710 </i>
   </energy>
  </scstep>
  <scstep>
   <time name="total">   42.82   42.82</time>
   <energy>
    <i name="e_fr_energy">   -308.62544669 </i>
    <i name="e_wo_entrp">   -308.62544669 </i>
    <i name="e_0_energy">   -308.62544669 </i>
   </energy>
  </scstep>
  <scstep>
   <time name="total">   42.61   42.61</time>
   <energy>
    <i name="e_fr_energy">   -309.26894738 </i>
    <i name="e_wo_entrp">   -309.26894738 </i>
    <i name="e_0_energy">   -309.26894738 </i>
   </energy>
  </scstep>
  <scstep>
   <time name="total">   43.60   43.60</time>
   <energy>
    <i name="e_fr_energy">   -309.47751953 </i>
    <i name="e_wo_entrp">   -309.47751953 </i>
    <i name="e_0_energy">   -309.47751953 </i>
   </energy>
  </scstep>
  <scstep>
   <time name="total">   45.40   45.40</time>
   <energy>
    <i name="e_fr_energy">   -309.43439088 </i>
    <i name="e_wo_entrp">   -309.43439088 </i>
    <i name="e_0_energy">   -309.43439088 </i>
   </energy>
  </scstep>
  <scstep>
   <time name="total">   44.91   44.92</time>
   <energy>
    <i name="e_fr_energy">   -309.41340069 </i>
    <i name="e_wo_entrp">   -309.41340069 </i>
    <i name="e_0_energy">   -309.41340069 </i>
   </energy>
  </scstep>
  <scstep>
   <time name="total">   45.04   45.04</time>
   <energy>
    <i name="e_fr_energy">   -309.41202674 </i>
    <i name="e_wo_entrp">   -309.41202674 </i>
    <i name="e_0_energy">   -309.41202674 </i>
   </energy>
  </scstep>
  <scstep>
   <time name="total">   46.13   46.13</time>
   <energy>
    <i name="e_fr_energy">   -309.41138561 </i>
    <i name="e_wo_entrp">   -309.41138561 </i>
    <i name="e_0_energy">   -309.41138561 </i>
   </energy>
  </scstep>
  <scstep>
   <time name="total">   47.87   47.88</time>
   <energy>
    <i name="e_fr_energy">   -309.41154918 </i>
    <i name="e_wo_entrp">   -309.41154918 </i>
    <i name="e_0_energy">   -309.41154918 </i>
   </energy>
  </scstep>
  <scstep>
   <time name="total">   47.38   47.39</time>
   <energy>
    <i name="e_fr_energy">   -309.41152601 </i>
    <i name="e_wo_entrp">   -309.41152601 </i>
    <i name="e_0_energy">   -309.41152601 </i>
   </energy>
  </scstep>
  <kpoints>
   <generation param="Gamma">
    <v type="int" name="divisions">       6        6        6 </v>
    <v name="usershift">      0.00000000       0.00000000       0.00000000 </v>
    <v name="genvec1">      0.16666667       0.00000000      -0.00000000 </v>
    <v name="genvec2">      0.00000000       0.16666667       0.00000000 </v>
    <v name="genvec3">      0.00000000       0.00000000       0.16666667 </v>
    <v name="shift">      0.00000000       0.00000000       0.00000000 </v>
   </generation>
   <varray name="kpointlist" >
    <v>       0.00000000       0.00000000       0.00000000 </v>
    <v>       0.16666667      -0.00000000       0.00000000 </v>
    <v>       0.33333333      -0.00000000      -0.00000000 </v>
    <v>       0.50000000      -0.00000000       0.00000000 </v>
    <v>       0.16666667       0.16666667       0.00000000 </v>
    <v>       0.33333333       0.16666667       0.00000000 </v>
    <v>       0.50000000       0.16666667       0.00000000 </v>
    <v>      -0.33333333       0.16666667      -0.00000000 </v>
    <v>      -0.16666667       0.16666667      -0.00000000 </v>
    <v>       0.33333333       0.33333333       0.00000000 </v>
    <v>       0.50000000       0.33333333       0.00000000 </v>
    <v>      -0.33333333       0.33333333       0.00000000 </v>
    <v>       0.50000000       0.50000000      -0.00000000 </v>
    <v>       0.16666667       0.16666667       0.16666667 </v>
    <v>       0.33333333       0.16666667       0.16666667 </v>
    <v>       0.50000000       0.16666667       0.16666667 </v>
    <v>      -0.33333333       0.16666667       0.16666667 </v>
    <v>      -0.16666667       0.16666667       0.16666667 </v>
    <v>       0.33333333       0.33333333       0.16666667 </v>
    <v>       0.50000000       0.33333333       0.16666667 </v>
    <v>      -0.33333333       0.33333333       0.16666667 </v>
    <v>      -0.16666667       0.33333333       0.16666667 </v>
    <v>       0.50000000       0.50000000       0.16666667 </v>
    <v>      -0.33333333       0.50000000       0.16666667 </v>
    <v>      -0.16666667       0.50000000       0.16666667 </v>
    <v>      -0.33333333      -0.33333333       0.16666667 </v>
    <v>       0.33333333       0.33333333       0.33333333 </v>
    <v>       0.50000000       0.33333333       0.33333333 </v>
    <v>      -0.33333333       0.33333333       0.33333333 </v>
    <v>       0.50000000       0.50000000       0.33333333 </v>
    <v>      -0.33333333       0.50000000       0.33333333 </v>
    <v>       0.50000000       0.50000000       0.50000000 </v>
   </varray>
   <varray name="weights" >
    <v>       0.00462963 </v>
    <v>       0.02777778 </v>
    <v>       0.02777778 </v>
    <v>       0.01388889 </v>
    <v>       0.02777778 </v>
    <v>       0.05555556 </v>
    <v>       0.05555556 </v>
    <v>       0.05555556 </v>
    <v>       0.02777778 </v>
    <v>       0.02777778 </v>
    <v>       0.05555556 </v>
    <v>       0.02777778 </v>
    <v>       0.01388889 </v>
    <v>       0.00925926 </v>
    <v>       0.02777778 </v>
    <v>       0.02777778 </v>
    <v>       0.02777778 </v>
    <v>       0.02777778 </v>
    <v>       0.02777778 </v>
    <v>       0.05555556 </v>
    <v>       0.05555556 </v>
    <v>       0.05555556 </v>
    <v>       0.02777778 </v>
    <v>       0.05555556 </v>
    <v>       0.02777778 </v>
    <v>       0.02777778 </v>
    <v>       0.00925926 </v>
    <v>       0.02777778 </v>
    <v>       0.02777778 </v>
    <v>       0.02777778 </v>
    <v>       0.02777778 </v>
    <v>       0.00462963 </v>
   </varray>
  </kpoints>
  <dynmat>
   <varray name="hessian" >
    <v>      -3.56453067      -0.33543624      -0.34971642       0.01353223      -0.00021735      -0.00022660       0.00772238      -0.00044993      -0.00003839       0.00955776       0.00202051       0.00022430       0.00772238      -0.00001961      -0.00045114       0.00955776       0.00013992       0.00202810      -0.04645513      -0.00210239      -0.00219189       0.00441214      -0.00032393      -0.00033772      -0.01467131      -0.01017484       0.00313903       0.00536084      -0.00539645      -0.01652360       0.68961134      -0.09405521      -0.09805932      -0.00056253      -0.00528464      -0.00550962       0.03316524      -0.01689452      -0.01761375      -0.00309151      -0.00240943      -0.00251200      -0.01467131       0.00356025      -0.01003521       0.00536084      -0.01628440      -0.00608024      -0.11019190       0.05195789      -0.05467807      -0.00381829       0.00312878      -0.00363549      -0.11620128       0.04814607       0.05019575      -0.00473525       0.00223401       0.00232911      -0.11620128      -0.07361889      -0.07675299      -0.00473525      -0.00320313      -0.00333949      -0.11019190      -0.05679550       0.04963452      -0.00381829      -0.00376270       0.00297459       0.90327148       0.37960261       0.39576304      -0.00547646       0.00638949       0.00666150      -0.01309163       0.00608464      -0.00109518       0.00410737       0.01063274       0.01976614      -0.01309163      -0.00134776       0.00603372       0.00410737       0.01930594       0.01144709       0.02380712       0.02009456       0.02095002      -0.00345713       0.00244202       0.00254598       0.13147424      -0.06370396       0.14143624       0.11720951      -0.04769218      -0.11572514       0.00695907      -0.00273498      -0.00705412       0.00697689      -0.00333055       0.00608020       0.11720951       0.06106121      -0.11530856       0.13147424       0.05806100       0.14651417       0.00697689       0.00356093       0.00513804       0.00695907       0.00270215      -0.00682737      -0.01033365       0.00869206       0.00409963       0.01145648       0.01199150      -0.01727892       0.67882264       0.08921857      -0.09084856      -0.00766252       0.00879899      -0.00953592       0.02767073       0.01760803      -0.01467036      -0.00237503       0.00317982      -0.00225021      -0.01293541       0.00150491      -0.00572222       0.00396557       0.01665906      -0.00476231       0.11720951      -0.11775264       0.05620367       0.13147424       0.14396773       0.06411532       0.13147424       0.14396773      -0.05775548       0.11720951      -0.11363747      -0.05247263       0.00697689       0.00498521       0.00377193       0.00695907      -0.00693403       0.00241533       0.00695907      -0.00693403      -0.00302653       0.00697689       0.00621369      -0.00307431       0.67882264      -0.09448710       0.08535575      -0.00766252      -0.00989426       0.00839402      -0.01293541      -0.00577995       0.00126518       0.00396557      -0.00545230       0.01644617      -0.01033365       0.00373390       0.00885533       0.01145648      -0.01776356       0.01126114       0.02767073      -0.01539129       0.01698147      -0.00237503      -0.00238075       0.00308330 </v>
    <v>      -0.33543624      -3.59138717      -0.36399634      -0.00021735       0.00769567      -0.00004750      -0.00044993       0.01350552      -0.00022832       0.00202051       0.00971953       0.00023346      -0.00001961       0.00772081      -0.00046956       0.00013992      -0.04653369      -0.00211246      -0.00210239       0.00947920       0.00194198      -0.00032393       0.00438620      -0.00035151      -0.01017484      -0.00846592       0.00852641      -0.00539645       0.00353128       0.01579787      -0.09405521       0.67127496       0.08149861      -0.00528464      -0.01337834       0.00104563      -0.01689452       0.01006905       0.01056505      -0.00240943      -0.00256679       0.00298521       0.00356025      -0.01004165       0.00846070      -0.01628440       0.02640270       0.01675167      -0.05679550       0.11738028      -0.11800671      -0.00376270       0.00696882       0.00593953      -0.07361889       0.13085143       0.14355896      -0.00320313       0.00693902      -0.00696653       0.04814607       0.13085143       0.14355896       0.00223401       0.00693902      -0.00696653       0.05195789       0.11738028      -0.11341396       0.00312878       0.00696882       0.00526123       0.37960261       0.93366397       0.41192319       0.00638949      -0.01259226      -0.00082939       0.00608464      -0.00497710       0.00662299       0.01063274       0.00495867       0.02057324      -0.00134776      -0.01319953       0.00628010       0.01930594       0.02538439       0.02142505       0.02009456       0.00568465       0.01229493       0.00244202      -0.00326162       0.00264994       0.05806100      -0.11682410       0.05589792       0.06106121      -0.11002114      -0.05935457       0.00270215      -0.00475530       0.00204859       0.00356093      -0.00382637      -0.00339500      -0.04769218      -0.11002114       0.04505825      -0.06370396      -0.11682410      -0.07094922      -0.00333055      -0.00382637       0.00318266      -0.00273498      -0.00475530      -0.00361548       0.00869206      -0.00696232      -0.00937944       0.01199150       0.01241656      -0.01798447       0.08921857       0.68596586      -0.09455818       0.00879899      -0.00963345       0.00372117       0.01760803       0.00533735      -0.00535341       0.00317982      -0.00212044      -0.00234209       0.00150491      -0.01281492      -0.00595587       0.01665906       0.02904251      -0.01487276      -0.11363747       0.10794652      -0.05026472       0.14396773       0.14300085       0.06673334       0.14396773       0.14300085      -0.06011380      -0.11775264       0.10794652       0.05414811       0.00621369       0.00742521      -0.00292578      -0.00693403       0.00640391       0.00251396      -0.00693403       0.00640391      -0.00315011       0.00498521       0.00742521       0.00365188      -0.09448710       0.68206367      -0.09472091      -0.00989426      -0.01547471       0.00347757      -0.00577995      -0.00100547      -0.00546339      -0.00545230       0.00492655      -0.01587846       0.00373390      -0.01437931      -0.00968875      -0.01776356       0.03177782      -0.01717705      -0.01539129       0.00409280      -0.00540531      -0.00238075      -0.00328327      -0.00239058 </v>
    <v>      -0.34971642      -0.36399634      -3.62174653      -0.00022660      -0.00004750       0.00769171      -0.00003839      -0.00022832       0.00769171       0.00022430       0.00023346      -0.04661205      -0.00045114      -0.00046956       0.01347641       0.00202810      -0.00211246       0.00964118      -0.00219189       0.00194198       0.00964118      -0.00033772      -0.00035151       0.00435689       0.00313903       0.00852641      -0.00933324      -0.01652360       0.01579787       0.02776010      -0.09805932       0.08149861       0.67807241      -0.00550962       0.00104563      -0.01329113      -0.01761375       0.01056505       0.01095023      -0.00251200       0.00298521      -0.00231781      -0.01003521       0.00846070      -0.00775751      -0.00608024       0.01675167       0.00488868       0.04963452      -0.11341396       0.10772940       0.00297459       0.00526123       0.00743592      -0.07675299       0.14355896       0.14282504      -0.00333949      -0.00696653       0.00635797       0.05019575       0.14355896       0.14282504       0.00232911      -0.00696653       0.00635797      -0.05467807      -0.11800671       0.10772940      -0.00363549       0.00593953       0.00743592       0.39576304       0.41192319       0.96802066       0.00666150      -0.00082939      -0.01266144      -0.00109518       0.00662299      -0.01266144       0.01976614       0.02057324       0.02713584       0.00603372       0.00628010      -0.00443900       0.01144709       0.02142505       0.00671012       0.02095002       0.01229493       0.00671012       0.00254598       0.00264994      -0.00304060       0.14651417      -0.07094922       0.14282504      -0.11530856       0.04505825       0.10772940      -0.00682737      -0.00361548       0.00635797       0.00513804       0.00318266       0.00743592      -0.11572514      -0.05935457       0.10772940       0.14143624       0.05589792       0.14282504       0.00608020      -0.00339500       0.00743592      -0.00705412       0.00204859       0.00635797       0.00409963      -0.00937944      -0.01517451      -0.01727892      -0.01798447       0.03031148      -0.09084856      -0.09455818       0.67417021      -0.00953592       0.00372117      -0.01517451      -0.01467036      -0.00535341       0.00364414      -0.00225021      -0.00234209      -0.00348063      -0.00572222      -0.00595587      -0.00148168      -0.00476231      -0.01487276       0.00364414      -0.05247263       0.05414811      -0.11023827      -0.05775548      -0.06011380      -0.11699991       0.06411532       0.06673334      -0.11699991       0.05620367      -0.05026472      -0.11023827      -0.00307431       0.00365188      -0.00381566      -0.00302653      -0.00315011      -0.00480124       0.00241533       0.00251396      -0.00480124       0.00377193      -0.00292578      -0.00381566       0.08535575      -0.09472091       0.67807241       0.00839402       0.00347757      -0.00933324       0.00126518      -0.00546339      -0.01329113       0.01644617      -0.01587846       0.02776010       0.00885533      -0.00968875      -0.00775751       0.01126114      -0.01717705       0.01095023       0.01698147      -0.00540531       0.00488868       0.00308330      -0.00239058      -0.00231781 </v>
    <v>       0.01353223      -0.00021735      -0.00022660      -3.56453067      -0.33543624      -0.34971642       0.00955776       0.00202051       0.00022430       0.00772238      -0.00044993      -0.00003839       0.00955776       0.00013992       0.00202810       0.00772238      -0.00001961      -0.00045114       0.00441214      -0.00032393      -0.00033772      -0.04645513      -0.00210239      -0.00219189       0.00536084      -0.00539645      -0.01652360      -0.01467131      -0.01017484       0.00313903      -0.00056253      -0.00528464      -0.00550962       0.68961134      -0.09405521      -0.09805932      -0.00309151      -0.00240943      -0.00251200       0.03316524      -0.01689452      -0.01761375       0.00536084      -0.01628440      -0.00608024      -0.01467131       0.00356025      -0.01003521      -0.00381829       0.00312878      -0.00363549      -0.11019190       0.05195789      -0.05467807      -0.00473525       0.00223401       0.00232911      -0.11620128       0.04814607       0.05019575      -0.00473525      -0.00320313      -0.00333949      -0.11620128      -0.07361889      -0.07675299      -0.00381829      -0.00376270       0.00297459      -0.11019190      -0.05679550       0.04963452      -0.00547646       0.00638949       0.00666150       0.90327148       0.37960261       0.39576304       0.00410737       0.01063274       0.01976614      -0.01309163       0.00608464      -0.00109518       0.00410737       0.01930594       0.01144709      -0.01309163      -0.00134776       0.00603372      -0.00345713       0.00244202       0.00254598       0.02380712       0.02009456       0.02095002       0.11720951      -0.04769218      -0.11572514       0.13147424      -0.06370396       0.14143624       0.00697689      -0.00333055       0.00608020       0.00695907      -0.00273498      -0.00705412       0.13147424       0.05806100       0.14651417       0.11720951       0.06106121      -0.11530856       0.00695907       0.00270215      -0.00682737       0.00697689       0.00356093       0.00513804       0.01145648       0.01199150      -0.01727892      -0.01033365       0.00869206       0.00409963      -0.00766252       0.00879899      -0.00953592       0.67882264       0.08921857      -0.09084856      -0.00237503       0.00317982      -0.00225021       0.02767073       0.01760803      -0.01467036       0.00396557       0.01665906      -0.00476231      -0.01293541       0.00150491      -0.00572222       0.13147424       0.14396773       0.06411532       0.11720951      -0.11775264       0.05620367       0.11720951      -0.11363747      -0.05247263       0.13147424       0.14396773      -0.05775548       0.00695907      -0.00693403       0.00241533       0.00697689       0.00498521       0.00377193       0.00697689       0.00621369      -0.00307431       0.00695907      -0.00693403      -0.00302653      -0.00766252      -0.00989426       0.00839402       0.67882264      -0.09448710       0.08535575       0.00396557      -0.00545230       0.01644617      -0.01293541      -0.00577995       0.00126518       0.01145648      -0.01776356       0.01126114      -0.01033365       0.00373390       0.00885533      -0.00237503      -0.00238075       0.00308330       0.02767073      -0.01539129       0.01698147 </v>
    <v>      -0.00021735       0.00769567      -0.00004750      -0.33543624      -3.59138717      -0.36399634       0.00202051       0.00971953       0.00023346      -0.00044993       0.01350552      -0.00022832       0.00013992      -0.04653369      -0.00211246      -0.00001961       0.00772081      -0.00046956      -0.00032393       0.00438620      -0.00035151      -0.00210239       0.00947920       0.00194198      -0.00539645       0.00353128       0.01579787      -0.01017484      -0.00846592       0.00852641      -0.00528464      -0.01337834       0.00104563      -0.09405521       0.67127496       0.08149861      -0.00240943      -0.00256679       0.00298521      -0.01689452       0.01006905       0.01056505      -0.01628440       0.02640270       0.01675167       0.00356025      -0.01004165       0.00846070      -0.00376270       0.00696882       0.00593953      -0.05679550       0.11738028      -0.11800671      -0.00320313       0.00693902      -0.00696653      -0.07361889       0.13085143       0.14355896       0.00223401       0.00693902      -0.00696653       0.04814607       0.13085143       0.14355896       0.00312878       0.00696882       0.00526123       0.05195789       0.11738028      -0.11341396       0.00638949      -0.01259226      -0.00082939       0.37960261       0.93366397       0.41192319       0.01063274       0.00495867       0.02057324       0.00608464      -0.00497710       0.00662299       0.01930594       0.02538439       0.02142505      -0.00134776      -0.01319953       0.00628010       0.00244202      -0.00326162       0.00264994       0.02009456       0.00568465       0.01229493       0.06106121      -0.11002114      -0.05935457       0.05806100      -0.11682410       0.05589792       0.00356093      -0.00382637      -0.00339500       0.00270215      -0.00475530       0.00204859      -0.06370396      -0.11682410      -0.07094922      -0.04769218      -0.11002114       0.04505825      -0.00273498      -0.00475530      -0.00361548      -0.00333055      -0.00382637       0.00318266       0.01199150       0.01241656      -0.01798447       0.00869206      -0.00696232      -0.00937944       0.00879899      -0.00963345       0.00372117       0.08921857       0.68596586      -0.09455818       0.00317982      -0.00212044      -0.00234209       0.01760803       0.00533735      -0.00535341       0.01665906       0.02904251      -0.01487276       0.00150491      -0.01281492      -0.00595587       0.14396773       0.14300085       0.06673334      -0.11363747       0.10794652      -0.05026472      -0.11775264       0.10794652       0.05414811       0.14396773       0.14300085      -0.06011380      -0.00693403       0.00640391       0.00251396       0.00621369       0.00742521      -0.00292578       0.00498521       0.00742521       0.00365188      -0.00693403       0.00640391      -0.00315011      -0.00989426      -0.01547471       0.00347757      -0.09448710       0.68206367      -0.09472091      -0.00545230       0.00492655      -0.01587846      -0.00577995      -0.00100547      -0.00546339      -0.01776356       0.03177782      -0.01717705       0.00373390      -0.01437931      -0.00968875      -0.00238075      -0.00328327      -0.00239058      -0.01539129       0.00409280      -0.00540531 </v>
    <v>      -0.00022660      -0.00004750       0.00769171      -0.34971642      -0.36399634      -3.62174653       0.00022430       0.00023346      -0.04661205      -0.00003839      -0.00022832       0.00769171       0.00202810      -0.00211246       0.00964118      -0.00045114      -0.00046956       0.01347641      -0.00033772      -0.00035151       0.00435689      -0.00219189       0.00194198       0.00964118      -0.01652360       0.01579787       0.02776010       0.00313903       0.00852641      -0.00933324      -0.00550962       0.00104563      -0.01329113      -0.09805932       0.08149861       0.67807241      -0.00251200       0.00298521      -0.00231781      -0.01761375       0.01056505       0.01095023      -0.00608024       0.01675167       0.00488868      -0.01003521       0.00846070      -0.00775751       0.00297459       0.00526123       0.00743592       0.04963452      -0.11341396       0.10772940      -0.00333949      -0.00696653       0.00635797      -0.07675299       0.14355896       0.14282504       0.00232911      -0.00696653       0.00635797       0.05019575       0.14355896       0.14282504      -0.00363549       0.00593953       0.00743592      -0.05467807      -0.11800671       0.10772940       0.00666150      -0.00082939      -0.01266144       0.39576304       0.41192319       0.96802066       0.01976614       0.02057324       0.02713584      -0.00109518       0.00662299      -0.01266144       0.01144709       0.02142505       0.00671012       0.00603372       0.00628010      -0.00443900       0.00254598       0.00264994      -0.00304060       0.02095002       0.01229493       0.00671012      -0.11530856       0.04505825       0.10772940       0.14651417      -0.07094922       0.14282504       0.00513804       0.00318266       0.00743592      -0.00682737      -0.00361548       0.00635797       0.14143624       0.05589792       0.14282504      -0.11572514      -0.05935457       0.10772940      -0.00705412       0.00204859       0.00635797       0.00608020      -0.00339500       0.00743592      -0.01727892      -0.01798447       0.03031148       0.00409963      -0.00937944      -0.01517451      -0.00953592       0.00372117      -0.01517451      -0.09084856      -0.09455818       0.67417021      -0.00225021      -0.00234209      -0.00348063      -0.01467036      -0.00535341       0.00364414      -0.00476231      -0.01487276       0.00364414      -0.00572222      -0.00595587      -0.00148168      -0.05775548      -0.06011380      -0.11699991      -0.05247263       0.05414811      -0.11023827       0.05620367      -0.05026472      -0.11023827       0.06411532       0.06673334      -0.11699991      -0.00302653      -0.00315011      -0.00480124      -0.00307431       0.00365188      -0.00381566       0.00377193      -0.00292578      -0.00381566       0.00241533       0.00251396      -0.00480124       0.00839402       0.00347757      -0.00933324       0.08535575      -0.09472091       0.67807241       0.01644617      -0.01587846       0.02776010       0.00126518      -0.00546339      -0.01329113       0.01126114      -0.01717705       0.01095023       0.00885533      -0.00968875      -0.00775751       0.00308330      -0.00239058      -0.00231781       0.01698147      -0.00540531       0.00488868 </v>
    <v>       0.00772238      -0.00044993      -0.00003839       0.00955776       0.00202051       0.00022430      -3.56453067      -0.33543624      -0.34971642       0.01353223      -0.00021735      -0.00022660      -0.04645513      -0.00210239      -0.00219189       0.00441214      -0.00032393      -0.00033772       0.00772238      -0.00001961      -0.00045114       0.00955776       0.00013992       0.00202810       0.68961134      -0.09405521      -0.09805932      -0.00056253      -0.00528464      -0.00550962      -0.01467131      -0.01017484       0.00313903       0.00536084      -0.00539645      -0.01652360      -0.01467131       0.00356025      -0.01003521       0.00536084      -0.01628440      -0.00608024       0.03316524      -0.01689452      -0.01761375      -0.00309151      -0.00240943      -0.00251200      -0.11620128       0.04814607       0.05019575      -0.00473525       0.00223401       0.00232911      -0.11019190       0.05195789      -0.05467807      -0.00381829       0.00312878      -0.00363549      -0.11019190      -0.05679550       0.04963452      -0.00381829      -0.00376270       0.00297459      -0.11620128      -0.07361889      -0.07675299      -0.00473525      -0.00320313      -0.00333949      -0.01309163       0.00608464      -0.00109518       0.00410737       0.01063274       0.01976614       0.90327148       0.37960261       0.39576304      -0.00547646       0.00638949       0.00666150       0.02380712       0.02009456       0.02095002      -0.00345713       0.00244202       0.00254598      -0.01309163      -0.00134776       0.00603372       0.00410737       0.01930594       0.01144709       0.00695907      -0.00273498      -0.00705412       0.00697689      -0.00333055       0.00608020       0.13147424      -0.06370396       0.14143624       0.11720951      -0.04769218      -0.11572514       0.00697689       0.00356093       0.00513804       0.00695907       0.00270215      -0.00682737       0.11720951       0.06106121      -0.11530856       0.13147424       0.05806100       0.14651417       0.67882264       0.08921857      -0.09084856      -0.00766252       0.00879899      -0.00953592      -0.01033365       0.00869206       0.00409963       0.01145648       0.01199150      -0.01727892      -0.01293541       0.00150491      -0.00572222       0.00396557       0.01665906      -0.00476231       0.02767073       0.01760803      -0.01467036      -0.00237503       0.00317982      -0.00225021       0.13147424       0.14396773      -0.05775548       0.11720951      -0.11363747      -0.05247263       0.11720951      -0.11775264       0.05620367       0.13147424       0.14396773       0.06411532       0.00695907      -0.00693403      -0.00302653       0.00697689       0.00621369      -0.00307431       0.00697689       0.00498521       0.00377193       0.00695907      -0.00693403       0.00241533      -0.01293541      -0.00577995       0.00126518       0.00396557      -0.00545230       0.01644617       0.67882264      -0.09448710       0.08535575      -0.00766252      -0.00989426       0.00839402       0.02767073      -0.01539129       0.01698147      -0.00237503      -0.00238075       0.00308330      -0.01033365       0.00373390       0.00885533       0.01145648      -0.01776356       0.01126114 </v>
[...]
      </set>
     </set>
    </set>
   </array>
  </eigenvalues>
  <separator name="orbital magnetization" >
   <v name="MAGDIPOLOUT">      0.00000000      0.00000000      0.00000000</v>
  </separator>
  <dos>
   <i name="efermi">      9.91012969 </i>
   <total>
    <array>
     <dimension dim="1">gridpoints</dimension>
     <dimension dim="2">spin</dimension>
     <field>energy</field>
     <field>total</field>
     <field>integrated</field>
     <set>
      <set comment="spin 1">
       <r>   -13.4032     0.0000     0.0000 </r>
       <r>   -13.2824     0.0000     0.0000 </r>
       <r>   -13.1617     0.0000     0.0000 </r>
       <r>   -13.0409     0.0000     0.0000 </r>
       <r>   -12.9202     0.0000     0.0000 </r>
       <r>   -12.7994     0.0000     0.0000 </r>
       <r>   -12.6786     0.0000     0.0000 </r>
       <r>   -12.5579     0.0000     0.0000 </r>
       <r>   -12.4371     0.0000     0.0000 </r>
       <r>   -12.3164     0.0000     0.0000 </r>
       <r>   -12.1956     0.0000     0.0000 </r>
       <r>   -12.0749     0.0000     0.0000 </r>
       <r>   -11.9541     0.0000     0.0000 </r>
       <r>   -11.8334     0.0029     0.0004 </r>
       <r>   -11.7126     0.2355     0.0288 </r>
       <r>   -11.5918     1.2227     0.1764 </r>
       <r>   -11.4711     1.4303     0.3492 </r>
       <r>   -11.3503     2.7843     0.6854 </r>
       <r>   -11.2296     1.6201     0.8810 </r>
       <r>   -11.1088     3.4813     1.3014 </r>
       <r>   -10.9881     2.9554     1.6583 </r>
       <r>   -10.8673     3.6867     2.1035 </r>
       <r>   -10.7466     2.5370     2.4098 </r>
       <r>   -10.6258     4.5378     2.9578 </r>
       <r>   -10.5050     4.3990     3.4890 </r>
       <r>   -10.3843     4.7183     4.0587 </r>
       <r>   -10.2635     2.8572     4.4037 </r>
       <r>   -10.1428     4.6156     4.9611 </r>
       <r>   -10.0220     6.0974     5.6974 </r>
       <r>    -9.9013     5.5691     6.3699 </r>
       <r>    -9.7805     4.2702     6.8855 </r>
       <r>    -9.6598     5.4570     7.5445 </r>
       <r>    -9.5390     4.6711     8.1086 </r>
       <r>    -9.4182     6.3479     8.8751 </r>
       <r>    -9.2975     5.9822     9.5975 </r>
       <r>    -9.1767     6.8611    10.4260 </r>
       <r>    -9.0560     6.5932    11.2222 </r>
       <r>    -8.9352     5.8240    11.9255 </r>
       <r>    -8.8145     4.8178    12.5072 </r>
       <r>    -8.6937     7.6246    13.4279 </r>
       <r>    -8.5730     6.5909    14.2238 </r>
       <r>    -8.4522     7.4315    15.1212 </r>
       <r>    -8.3315     8.6907    16.1707 </r>
       <r>    -8.2107     7.3031    17.0526 </r>
       <r>    -8.0899     6.7277    17.8650 </r>
       <r>    -7.9692     6.4893    18.6486 </r>
       <r>    -7.8484     7.1141    19.5076 </r>
       <r>    -7.7277     7.7538    20.4439 </r>
       <r>    -7.6069    10.8803    21.7578 </r>
       <r>    -7.4862     7.1274    22.6185 </r>
       <r>    -7.3654     9.8810    23.8117 </r>
       <r>    -7.2447     9.0713    24.9071 </r>
       <r>    -7.1239     7.1458    25.7700 </r>
       <r>    -7.0031     9.6249    26.9322 </r>
       <r>    -6.8824     7.7664    27.8700 </r>
       <r>    -6.7616     9.4160    29.0071 </r>
       <r>    -6.6409    11.4198    30.3861 </r>
       <r>    -6.5201    10.8915    31.7013 </r>
       <r>    -6.3994    11.4647    33.0857 </r>
       <r>    -6.2786    11.9683    34.5310 </r>
       <r>    -6.1579    10.4306    35.7905 </r>
       <r>    -6.0371    12.8368    37.3406 </r>
       <r>    -5.9163    13.0270    38.9137 </r>
       <r>    -5.7956     6.4617    39.6940 </r>
       <r>    -5.6748     9.2010    40.8050 </r>
       <r>    -5.5541    13.9985    42.4954 </r>
       <r>    -5.4333    12.8990    44.0531 </r>
       <r>    -5.3126    10.8405    45.3621 </r>
       <r>    -5.1918    10.9102    46.6796 </r>
       <r>    -5.0711     8.1553    47.6644 </r>
       <r>    -4.9503    12.1589    49.1326 </r>
       <r>    -4.8296     9.0162    50.2214 </r>
       <r>    -4.7088    11.0317    51.5535 </r>
       <r>    -4.5880     6.3108    52.3156 </r>
       <r>    -4.4673     5.5684    52.9880 </r>
       <r>    -4.3465    11.4959    54.3762 </r>
       <r>    -4.2258     8.5074    55.4035 </r>
       <r>    -4.1050    11.6618    56.8117 </r>
       <r>    -3.9843     9.9979    58.0190 </r>
       <r>    -3.8635     6.6972    58.8277 </r>
       <r>    -3.7428     6.4951    59.6120 </r>
       <r>    -3.6220     4.6510    60.1737 </r>
       <r>    -3.5012     6.1329    60.9142 </r>
       <r>    -3.3805     7.0799    61.7692 </r>
       <r>    -3.2597    11.0841    63.1076 </r>
       <r>    -3.1390     9.5531    64.2612 </r>
       <r>    -3.0182     7.6841    65.1891 </r>
       <r>    -2.8975     8.1603    66.1745 </r>
       <r>    -2.7767     9.7669    67.3539 </r>
       <r>    -2.6560     7.2352    68.2276 </r>
       <r>    -2.5352     8.6378    69.2707 </r>
       <r>    -2.4144     8.0117    70.2381 </r>
       <r>    -2.2937    11.2494    71.5966 </r>
       <r>    -2.1729    13.5212    73.2293 </r>
       <r>    -2.0522    14.3214    74.9587 </r>
       <r>    -1.9314    12.3431    76.4492 </r>
       <r>    -1.8107    19.7239    78.8310 </r>
       <r>    -1.6899    22.6359    81.5644 </r>
       <r>    -1.5692    16.3026    83.5330 </r>
       <r>    -1.4484    18.3728    85.7516 </r>
       <r>    -1.3277    14.6490    87.5205 </r>
       <r>    -1.2069    15.0474    89.3376 </r>
       <r>    -1.0861    12.0778    90.7961 </r>
       <r>    -0.9654     9.1802    91.9046 </r>
       <r>    -0.8446    11.8707    93.3381 </r>
       <r>    -0.7239     9.9260    94.5367 </r>
       <r>    -0.6031    12.3267    96.0252 </r>
       <r>    -0.4824    10.3169    97.2710 </r>
       <r>    -0.3616    11.5781    98.6691 </r>
       <r>    -0.2409     9.6904    99.8393 </r>
       <r>    -0.1201     8.1065   100.8182 </r>
       <r>     0.0007     8.3196   101.8228 </r>
       <r>     0.1214     7.0691   102.6765 </r>
       <r>     0.2422    10.7333   103.9726 </r>
       <r>     0.3629     7.7911   104.9134 </r>
       <r>     0.4837    13.3336   106.5235 </r>
       <r>     0.6044     8.6570   107.5688 </r>
       <r>     0.7252    13.4604   109.1943 </r>
       <r>     0.8459    18.2089   111.3931 </r>
       <r>     0.9667    17.1917   113.4691 </r>
       <r>     1.0875    17.6238   115.5972 </r>
       <r>     1.2082    18.5043   117.8317 </r>
       <r>     1.3290    15.4945   119.7028 </r>
       <r>     1.4497    13.3184   121.3110 </r>
       <r>     1.5705    13.9339   122.9936 </r>
       <r>     1.6912    17.6622   125.1264 </r>
       <r>     1.8120    15.4229   126.9888 </r>
       <r>     1.9327    18.3462   129.2042 </r>
       <r>     2.0535    23.4727   132.0387 </r>
       <r>     2.1742    16.5458   134.0366 </r>
       <r>     2.2950    15.4654   135.9042 </r>
       <r>     2.4158    15.2069   137.7405 </r>
       <r>     2.5365    16.9494   139.7872 </r>
       <r>     2.6573    21.0968   142.3348 </r>
       <r>     2.7780    18.0675   144.5165 </r>
       <r>     2.8988    22.8138   147.2714 </r>
       <r>     3.0195    23.8508   150.1515 </r>
       <r>     3.1403    24.9614   153.1657 </r>
       <r>     3.2610    23.1768   155.9644 </r>
       <r>     3.3818    17.6380   158.0943 </r>
       <r>     3.5026    18.2882   160.3027 </r>
       <r>     3.6233    22.0272   162.9626 </r>
       <r>     3.7441    29.8096   166.5623 </r>
       <r>     3.8648    26.7076   169.7874 </r>
       <r>     3.9856    27.8226   173.1471 </r>
       <r>     4.1063    20.8229   175.6616 </r>
       <r>     4.2271    25.1443   178.6979 </r>
       <r>     4.3478    21.6448   181.3116 </r>
       <r>     4.4686    22.9385   184.0815 </r>
       <r>     4.5894    26.1998   187.2453 </r>
       <r>     4.7101    22.9637   190.0183 </r>
       <r>     4.8309    25.1813   193.0591 </r>
       <r>     4.9516    23.7306   195.9247 </r>
       <r>     5.0724    22.0072   198.5821 </r>
       <r>     5.1931    22.5253   201.3022 </r>
       <r>     5.3139    20.0750   203.7263 </r>
       <r>     5.4346    26.3955   206.9137 </r>
       <r>     5.5554    21.4857   209.5082 </r>
       <r>     5.6762    20.3381   211.9642 </r>
       <r>     5.7969    23.1693   214.7620 </r>
       <r>     5.9177    22.0577   217.4256 </r>
       <r>     6.0384    18.4890   219.6582 </r>
       <r>     6.1592    22.1232   222.3297 </r>
       <r>     6.2799    24.3387   225.2687 </r>
       <r>     6.4007    19.3774   227.6086 </r>
       <r>     6.5214    17.4404   229.7147 </r>
       <r>     6.6422    17.8917   231.8752 </r>
       <r>     6.7629    17.2275   233.9555 </r>
       <r>     6.8837    18.9694   236.2462 </r>
       <r>     7.0045    22.6128   238.9768 </r>
       <r>     7.1252    13.1690   240.5670 </r>
       <r>     7.2460     8.8774   241.6390 </r>
       <r>     7.3667    12.5711   243.1570 </r>
       <r>     7.4875    12.3345   244.6465 </r>
       <r>     7.6082    11.8292   246.0749 </r>
       <r>     7.7290    11.3199   247.4418 </r>
       <r>     7.8497     6.2232   248.1933 </r>
       <r>     7.9705     7.9091   249.1484 </r>
       <r>     8.0913     6.6085   249.9464 </r>
       <r>     8.2120     9.1281   251.0487 </r>
       <r>     8.3328     6.7967   251.8694 </r>
       <r>     8.4535     4.4688   252.4090 </r>
       <r>     8.5743     4.7046   252.9771 </r>
       <r>     8.6950     6.5911   253.7731 </r>
       <r>     8.8158     3.9897   254.2548 </r>
       <r>     8.9365     4.0535   254.7443 </r>
       <r>     9.0573     1.9975   254.9855 </r>
       <r>     9.1781     3.4207   255.3986 </r>
       <r>     9.2988     3.1800   255.7826 </r>
       <r>     9.4196     0.8602   255.8865 </r>
       <r>     9.5403     0.7948   255.9824 </r>
       <r>     9.6611     0.1442   255.9999 </r>
       <r>     9.7818     0.0012   256.0000 </r>
       <r>     9.9026     0.0000   256.0000 </r>
       <r>    10.0233     0.0000   256.0000 </r>
       <r>    10.1441     0.0000   256.0000 </r>
       <r>    10.2648     0.0000   256.0000 </r>
       <r>    10.3856     0.0000   256.0000 </r>
       <r>    10.5064     0.0000   256.0000 </r>
       <r>    10.6271     0.0000   256.0000 </r>
       <r>    10.7479     0.0000   256.0000 </r>
       <r>    10.8686     0.0000   256.0000 </r>
       <r>    10.9894     0.0000   256.0000 </r>
       <r>    11.1101     0.0000   256.0000 </r>
       <r>    11.2309     0.0000   256.0000 </r>
       <r>    11.3516     0.0000   256.0000 </r>
       <r>    11.4724     0.0000   256.0000 </r>
       <r>    11.5932     0.0000   256.0000 </r>
       <r>    11.7139     0.0000   256.0000 </r>
       <r>    11.8347     0.0000   256.0000 </r>
       <r>    11.9554     0.0000   256.0000 </r>
       <r>    12.0762     0.0000   256.0000 </r>
       <r>    12.1969     0.0000   256.0000 </r>
       <r>    12.3177     0.0000   256.0000 </r>
       <r>    12.4384     0.0000   256.0000 </r>
       <r>    12.5592     0.0000   256.0000 </r>
       <r>    12.6800     0.0000   256.0000 </r>
       <r>    12.8007     0.0000   256.0000 </r>
       <r>    12.9215     0.0000   256.0000 </r>
       <r>    13.0422     0.0000   256.0000 </r>
       <r>    13.1630     0.0000   256.0000 </r>
       <r>    13.2837     0.0005   256.0001 </r>
       <r>    13.4045     0.3849   256.0465 </r>
       <r>    13.5252     1.5369   256.2321 </r>
       <r>    13.6460     2.9965   256.5940 </r>
       <r>    13.7667     7.1798   257.4610 </r>
       <r>    13.8875     3.3960   257.8711 </r>
       <r>    14.0083     5.4442   258.5285 </r>
       <r>    14.1290     6.5253   259.3164 </r>
       <r>    14.2498     5.3777   259.9658 </r>
       <r>    14.3705     6.4313   260.7424 </r>
       <r>    14.4913    11.6589   262.1503 </r>
       <r>    14.6120     9.1042   263.2497 </r>
       <r>    14.7328     7.6140   264.1691 </r>
       <r>    14.8535    12.9729   265.7357 </r>
       <r>    14.9743    12.2884   267.2195 </r>
       <r>    15.0951    12.2394   268.6975 </r>
       <r>    15.2158    10.9381   270.0184 </r>
       <r>    15.3366    13.9554   271.7035 </r>
       <r>    15.4573    14.6349   273.4708 </r>
       <r>    15.5781    14.6199   275.2362 </r>
       <r>    15.6988    11.1181   276.5788 </r>
       <r>    15.8196    15.8358   278.4910 </r>
       <r>    15.9403    24.8950   281.4972 </r>
       <r>    16.0611    21.2193   284.0596 </r>
       <r>    16.1819    20.2031   286.4992 </r>
       <r>    16.3026    13.6411   288.1464 </r>
       <r>    16.4234    17.7396   290.2886 </r>
       <r>    16.5441    18.4790   292.5200 </r>
       <r>    16.6649    19.4053   294.8633 </r>
       <r>    16.7856    22.3864   297.5666 </r>
       <r>    16.9064    34.5692   301.7410 </r>
       <r>    17.0271    31.9556   305.5998 </r>
       <r>    17.1479    29.8561   309.2051 </r>
       <r>    17.2686    28.9731   312.7037 </r>
       <r>    17.3894    33.8168   316.7873 </r>
       <r>    17.5102    27.8383   320.1489 </r>
       <r>    17.6309    32.0058   324.0138 </r>
       <r>    17.7517    33.1867   328.0213 </r>
       <r>    17.8724    30.2143   331.6698 </r>
       <r>    17.9932    34.4528   335.8301 </r>
       <r>    18.1139    25.8529   338.9520 </r>
       <r>    18.2347    25.3192   342.0094 </r>
       <r>    18.3554    27.2990   345.3059 </r>
       <r>    18.4762    24.3473   348.2460 </r>
       <r>    18.5970    22.1488   350.9206 </r>
       <r>    18.7177    25.0075   353.9404 </r>
       <r>    18.8385    28.1596   357.3408 </r>
       <r>    18.9592    21.4974   359.9367 </r>
       <r>    19.0800    22.5276   362.6570 </r>
       <r>    19.2007    26.9426   365.9105 </r>
       <r>    19.3215    21.7951   368.5424 </r>
       <r>    19.4422    24.8153   371.5389 </r>
       <r>    19.5630    30.7365   375.2505 </r>
       <r>    19.6838    25.7771   378.3633 </r>
       <r>    19.8045    19.8604   380.7615 </r>
       <r>    19.9253    12.3488   382.2527 </r>
       <r>    20.0460     4.3421   382.7770 </r>
       <r>    20.1668     1.4440   382.9514 </r>
       <r>    20.2875     2.1855   383.2153 </r>
       <r>    20.4083     2.5415   383.5222 </r>
       <r>    20.5290     1.6183   383.7176 </r>
       <r>    20.6498     1.3918   383.8857 </r>
       <r>    20.7706     0.6355   383.9624 </r>
       <r>    20.8913     0.0045   383.9630 </r>
       <r>    21.0121     0.0000   383.9630 </r>
       <r>    21.1328     0.0461   383.9685 </r>
       <r>    21.2536     0.2498   383.9987 </r>
       <r>    21.3743     0.0107   384.0000 </r>
       <r>    21.4951     0.0000   384.0000 </r>
       <r>    21.6158     0.0000   384.0000 </r>
       <r>    21.7366     0.0000   384.0000 </r>
       <r>    21.8573     0.0000   384.0000 </r>
       <r>    21.9781     0.0000   384.0000 </r>
       <r>    22.0989     0.0000   384.0000 </r>
       <r>    22.2196     0.0000   384.0000 </r>
       <r>    22.3404     0.0000   384.0000 </r>
       <r>    22.4611     0.0000   384.0000 </r>
       <r>    22.5819     0.0000   384.0000 </r>
       <r>    22.7026     0.0000   384.0000 </r>
       <r>    22.8234     0.0000   384.0000 </r>
      </set>
     </set>
    </array>
   </total>
  </dos>
 </calculation>
 <structure name="finalpos" >
  <crystal>
   <varray name="basis" >
    <v>       7.17999872       0.00000000       0.00000000 </v>
    <v>      -0.28719915       7.17425265       0.00000000 </v>
    <v>      -0.28719915      -0.29892636       7.16802238 </v>
   </varray>
   <i name="volume">    369.23289517 </i>
   <varray name="rec_basis" >
    <v>       0.13927579       0.00557548       0.00581284 </v>
    <v>       0.00000000       0.13938734       0.00581284 </v>
    <v>       0.00000000       0.00000000       0.13950849 </v>
   </varray>
  </crystal>
  <varray name="positions" >
   <v>       0.12500000       0.37500000       0.12500000 </v>
   <v>       0.62500000       0.37500000       0.12500000 </v>
   <v>       0.12500000       0.87500000       0.12500000 </v>
   <v>       0.62500000       0.87500000       0.12500000 </v>
   <v>       0.12500000       0.37500000       0.62500000 </v>
   <v>       0.62500000       0.37500000       0.62500000 </v>
   <v>       0.12500000       0.87500000       0.62500000 </v>
   <v>       0.62500000       0.87500000       0.62500000 </v>
   <v>       0.00000000       0.00000000       0.25000000 </v>
   <v>       0.50000000       0.00000000       0.25000000 </v>
   <v>       0.00000000       0.50000000       0.25000000 </v>
   <v>       0.50000000       0.50000000       0.25000000 </v>
   <v>       0.00000000       0.00000000       0.75000000 </v>
   <v>       0.50000000       0.00000000       0.75000000 </v>
   <v>       0.00000000       0.50000000       0.75000000 </v>
   <v>       0.50000000       0.50000000       0.75000000 </v>
   <v>       0.12500000       0.12500000       0.37500000 </v>
   <v>       0.62500000       0.12500000       0.37500000 </v>
   <v>       0.12500000       0.62500000       0.37500000 </v>
   <v>       0.62500000       0.62500000       0.37500000 </v>
   <v>       0.12500000       0.12500000       0.87500000 </v>
   <v>       0.62500000       0.12500000       0.87500000 </v>
   <v>       0.12500000       0.62500000       0.87500000 </v>
   <v>       0.62500000       0.62500000       0.87500000 </v>
   <v>       0.00000000       0.25000000       0.00000000 </v>
   <v>       0.50000000       0.25000000       0.00000000 </v>
   <v>       0.00000000       0.75000000       0.00000000 </v>
   <v>       0.50000000       0.75000000       0.00000000 </v>
   <v>       0.00000000       0.25000000       0.50000000 </v>
   <v>       0.50000000       0.25000000       0.50000000 </v>
   <v>       0.00000000       0.75000000       0.50000000 </v>
   <v>       0.50000000       0.75000000       0.50000000 </v>
   <v>       0.37500000       0.37500000       0.37500000 </v>
   <v>       0.87500000       0.37500000       0.37500000 </v>
   <v>       0.37500000       0.87500000       0.37500000 </v>
   <v>       0.87500000       0.87500000       0.37500000 </v>
   <v>       0.37500000       0.37500000       0.87500000 </v>
   <v>       0.87500000       0.37500000       0.87500000 </v>
   <v>       0.37500000       0.87500000       0.87500000 </v>
   <v>       0.87500000       0.87500000       0.87500000 </v>
   <v>       0.25000000       0.00000000       0.00000000 </v>
   <v>       0.75000000       0.00000000       0.00000000 </v>
   <v>       0.25000000       0.50000000       0.00000000 </v>
   <v>       0.75000000       0.50000000       0.00000000 </v>
   <v>       0.25000000       0.00000000       0.50000000 </v>
   <v>       0.75000000       0.00000000       0.50000000 </v>
   <v>       0.25000000       0.50000000       0.50000000 </v>
   <v>       0.75000000       0.50000000       0.50000000 </v>
   <v>       0.37500000       0.12500000       0.12500000 </v>
   <v>       0.87500000       0.12500000       0.12500000 </v>
   <v>       0.37500000       0.62500000       0.12500000 </v>
   <v>       0.87500000       0.62500000       0.12500000 </v>
   <v>       0.37500000       0.12500000       0.62500000 </v>
   <v>       0.87500000       0.12500000       0.62500000 </v>
   <v>       0.37500000       0.62500000       0.62500000 </v>
   <v>       0.87500000       0.62500000       0.62500000 </v>
   <v>       0.25000000       0.25000000       0.25000000 </v>
   <v>       0.75000000       0.25000000       0.25000000 </v>
   <v>       0.25000000       0.75000000       0.25000000 </v>
   <v>       0.75000000       0.75000000       0.25000000 </v>
   <v>       0.25000000       0.25000000       0.75000000 </v>
   <v>       0.75000000       0.25000000       0.75000000 </v>
   <v>       0.25000000       0.75000000       0.75000000 </v>
   <v>       0.75000000       0.75000000       0.75000000 </v>
  </varray>
 </structure>
</modeling>
