  64  64   0   0
  0.5552189E+01  0.7034933E-09  0.7034933E-09  0.7179999E-09  0.5000000E-15
  1.000000000000000E-004
  CAR 
 unknown system                          
     23.67950790    -13.38279612  301     10.46834078      1.00000000
    -13.383  0.0000E+00  0.0000E+00
    -13.259  0.0000E+00  0.0000E+00
    -13.136  0.0000E+00  0.0000E+00
    -13.012  0.0000E+00  0.0000E+00
    -12.889  0.0000E+00  0.0000E+00
    -12.765  0.0000E+00  0.0000E+00
    -12.642  0.0000E+00  0.0000E+00
    -12.518  0.0000E+00  0.0000E+00
    -12.394  0.0000E+00  0.0000E+00
    -12.271  0.0000E+00  0.0000E+00
    -12.147  0.0000E+00  0.0000E+00
    -12.024  0.6116E-15  0.7556E-16
    -11.900  0.7087E-07  0.8756E-08
    -11.777  0.2554E-02  0.3155E-03
    -11.653  0.2244E+00  0.2804E-01
    -11.530  0.1195E+01  0.1756E+00
    -11.406  0.1355E+01  0.3431E+00
    -11.283  0.2777E+01  0.6861E+00
    -11.159  0.1461E+01  0.8666E+00
    -11.036  0.3458E+01  0.1294E+01
    -10.912  0.2779E+01  0.1637E+01
    -10.788  0.3718E+01  0.2097E+01
    -10.665  0.2285E+01  0.2379E+01
    -10.541  0.4444E+01  0.2928E+01
    -10.418  0.4270E+01  0.3455E+01
    -10.294  0.4801E+01  0.4049E+01
    -10.171  0.2394E+01  0.4344E+01
    -10.047  0.4499E+01  0.4900E+01
     -9.924  0.6091E+01  0.5653E+01
     -9.800  0.5400E+01  0.6320E+01
     -9.677  0.4335E+01  0.6855E+01
     -9.553  0.3873E+01  0.7334E+01
     -9.429  0.6684E+01  0.8159E+01
     -9.306  0.5052E+01  0.8784E+01
     -9.182  0.5467E+01  0.9459E+01
     -9.059  0.6002E+01  0.1020E+02
     -8.935  0.7613E+01  0.1114E+02
     -8.812  0.5759E+01  0.1185E+02
     -8.688  0.5393E+01  0.1252E+02
     -8.565  0.3824E+01  0.1299E+02
     -8.441  0.8644E+01  0.1406E+02
     -8.318  0.7552E+01  0.1499E+02
     -8.194  0.8465E+01  0.1604E+02
     -8.071  0.6230E+01  0.1681E+02
     -7.947  0.5726E+01  0.1751E+02
     -7.823  0.7333E+01  0.1842E+02
     -7.700  0.7618E+01  0.1936E+02
     -7.576  0.6298E+01  0.2014E+02
     -7.453  0.9942E+01  0.2137E+02
     -7.329  0.8267E+01  0.2239E+02
     -7.206  0.7906E+01  0.2337E+02
     -7.082  0.6074E+01  0.2412E+02
     -6.959  0.1138E+02  0.2552E+02
     -6.835  0.9469E+01  0.2669E+02
     -6.712  0.6160E+01  0.2745E+02
     -6.588  0.7570E+01  0.2839E+02
     -6.464  0.9194E+01  0.2952E+02
     -6.341  0.1070E+02  0.3085E+02
     -6.217  0.1038E+02  0.3213E+02
     -6.094  0.1242E+02  0.3366E+02
     -5.970  0.9767E+01  0.3487E+02
     -5.847  0.1019E+02  0.3613E+02
     -5.723  0.9876E+01  0.3735E+02
     -5.600  0.9787E+01  0.3856E+02
     -5.476  0.1385E+02  0.4027E+02
     -5.353  0.1317E+02  0.4190E+02
     -5.229  0.1112E+02  0.4327E+02
     -5.106  0.8179E+01  0.4428E+02
     -4.982  0.1228E+02  0.4580E+02
     -4.858  0.1137E+02  0.4720E+02
     -4.735  0.1092E+02  0.4855E+02
     -4.611  0.8458E+01  0.4960E+02
     -4.488  0.8833E+01  0.5069E+02
     -4.364  0.8276E+01  0.5171E+02
     -4.241  0.8222E+01  0.5273E+02
     -4.117  0.7513E+01  0.5365E+02
     -3.994  0.1218E+02  0.5516E+02
     -3.870  0.5526E+01  0.5584E+02
     -3.747  0.6410E+01  0.5663E+02
     -3.623  0.1011E+02  0.5788E+02
     -3.500  0.9773E+01  0.5909E+02
     -3.376  0.9116E+01  0.6022E+02
     -3.252  0.5851E+01  0.6094E+02
     -3.129  0.6761E+01  0.6177E+02
     -3.005  0.9658E+01  0.6297E+02
     -2.882  0.6060E+01  0.6372E+02
     -2.758  0.6977E+01  0.6458E+02
     -2.635  0.1336E+02  0.6623E+02
     -2.511  0.1204E+02  0.6771E+02
     -2.388  0.9070E+01  0.6884E+02
     -2.264  0.6171E+01  0.6960E+02
     -2.141  0.1192E+02  0.7107E+02
     -2.017  0.1104E+02  0.7243E+02
     -1.893  0.9631E+01  0.7362E+02
     -1.770  0.1024E+02  0.7489E+02
     -1.646  0.1466E+02  0.7670E+02
     -1.523  0.2130E+02  0.7933E+02
     -1.399  0.1799E+02  0.8155E+02
     -1.276  0.2097E+02  0.8415E+02
     -1.152  0.2277E+02  0.8696E+02
     -1.029  0.1231E+02  0.8848E+02
     -0.905  0.9784E+01  0.8969E+02
     -0.782  0.9523E+01  0.9086E+02
     -0.658  0.8469E+01  0.9191E+02
     -0.535  0.1186E+02  0.9338E+02
     -0.411  0.9530E+01  0.9455E+02
     -0.287  0.9419E+01  0.9572E+02
     -0.164  0.1088E+02  0.9706E+02
     -0.040  0.1172E+02  0.9851E+02
      0.083  0.1312E+02  0.1001E+03
      0.207  0.1085E+02  0.1015E+03
      0.330  0.3223E+01  0.1019E+03
      0.454  0.4015E+01  0.1024E+03
      0.577  0.1139E+02  0.1038E+03
      0.701  0.1638E+02  0.1058E+03
      0.824  0.8298E+01  0.1068E+03
      0.948  0.9352E+01  0.1080E+03
      1.072  0.1536E+02  0.1099E+03
      1.195  0.1975E+02  0.1123E+03
      1.319  0.1993E+02  0.1148E+03
      1.442  0.1860E+02  0.1171E+03
      1.566  0.1168E+02  0.1185E+03
      1.689  0.1012E+02  0.1198E+03
      1.813  0.1505E+02  0.1216E+03
      1.936  0.1743E+02  0.1238E+03
      2.060  0.2417E+02  0.1268E+03
      2.183  0.1558E+02  0.1287E+03
      2.307  0.1492E+02  0.1305E+03
      2.430  0.1199E+02  0.1320E+03
      2.554  0.1643E+02  0.1340E+03
      2.678  0.1912E+02  0.1364E+03
      2.801  0.2133E+02  0.1390E+03
      2.925  0.1924E+02  0.1414E+03
      3.048  0.1724E+02  0.1435E+03
      3.172  0.1606E+02  0.1455E+03
      3.295  0.1819E+02  0.1478E+03
      3.419  0.1973E+02  0.1502E+03
      3.542  0.2854E+02  0.1537E+03
      3.666  0.2696E+02  0.1571E+03
      3.789  0.2294E+02  0.1599E+03
      3.913  0.1990E+02  0.1624E+03
      4.036  0.2100E+02  0.1650E+03
      4.160  0.2119E+02  0.1676E+03
      4.284  0.2931E+02  0.1712E+03
      4.407  0.2778E+02  0.1746E+03
      4.531  0.2885E+02  0.1782E+03
      4.654  0.2013E+02  0.1807E+03
      4.778  0.2205E+02  0.1834E+03
      4.901  0.1829E+02  0.1857E+03
      5.025  0.2314E+02  0.1885E+03
      5.148  0.1983E+02  0.1910E+03
      5.272  0.2738E+02  0.1944E+03
      5.395  0.2643E+02  0.1976E+03
      5.519  0.2288E+02  0.2004E+03
      5.643  0.1821E+02  0.2027E+03
      5.766  0.2122E+02  0.2053E+03
      5.890  0.1823E+02  0.2076E+03
      6.013  0.2681E+02  0.2109E+03
      6.137  0.1683E+02  0.2130E+03
      6.260  0.1997E+02  0.2154E+03
      6.384  0.2335E+02  0.2183E+03
      6.507  0.2376E+02  0.2212E+03
      6.631  0.1910E+02  0.2236E+03
      6.754  0.1963E+02  0.2260E+03
      6.878  0.1864E+02  0.2283E+03
      7.001  0.1745E+02  0.2305E+03
      7.125  0.1566E+02  0.2324E+03
      7.249  0.2576E+02  0.2356E+03
      7.372  0.1590E+02  0.2376E+03
      7.496  0.1594E+02  0.2395E+03
      7.619  0.1018E+02  0.2408E+03
      7.743  0.1043E+02  0.2421E+03
      7.866  0.1157E+02  0.2435E+03
      7.990  0.1158E+02  0.2449E+03
      8.113  0.1260E+02  0.2465E+03
      8.237  0.6904E+01  0.2474E+03
      8.360  0.8462E+01  0.2484E+03
      8.484  0.6909E+01  0.2493E+03
      8.608  0.7092E+01  0.2501E+03
      8.731  0.7107E+01  0.2510E+03
      8.855  0.6908E+01  0.2519E+03
      8.978  0.3934E+01  0.2523E+03
      9.102  0.5467E+01  0.2530E+03
      9.225  0.5299E+01  0.2537E+03
      9.349  0.4822E+01  0.2543E+03
      9.472  0.2636E+01  0.2546E+03
      9.596  0.2604E+01  0.2549E+03
      9.719  0.3825E+01  0.2554E+03
      9.843  0.1880E+01  0.2556E+03
      9.966  0.1768E+01  0.2558E+03
     10.090  0.8344E+00  0.2559E+03
     10.214  0.3620E+00  0.2560E+03
     10.337  0.5367E-01  0.2560E+03
     10.461  0.5984E-04  0.2560E+03
     10.584  0.2786E-10  0.2560E+03
     10.708  0.0000E+00  0.2560E+03
     10.831  0.0000E+00  0.2560E+03
     10.955  0.0000E+00  0.2560E+03
     11.078  0.0000E+00  0.2560E+03
     11.202  0.0000E+00  0.2560E+03
     11.325  0.0000E+00  0.2560E+03
     11.449  0.0000E+00  0.2560E+03
     11.572  0.0000E+00  0.2560E+03
     11.696  0.0000E+00  0.2560E+03
     11.820  0.0000E+00  0.2560E+03
     11.943  0.0000E+00  0.2560E+03
     12.067  0.0000E+00  0.2560E+03
     12.190  0.0000E+00  0.2560E+03
     12.314  0.0000E+00  0.2560E+03
     12.437  0.0000E+00  0.2560E+03
     12.561  0.0000E+00  0.2560E+03
     12.684  0.0000E+00  0.2560E+03
     12.808  0.0000E+00  0.2560E+03
     12.931  0.0000E+00  0.2560E+03
     13.055  0.0000E+00  0.2560E+03
     13.179  0.0000E+00  0.2560E+03
     13.302  0.0000E+00  0.2560E+03
     13.426  0.0000E+00  0.2560E+03
     13.549  0.0000E+00  0.2560E+03
     13.673  0.0000E+00  0.2560E+03
     13.796  0.6984E-12  0.2560E+03
     13.920  0.9718E-05  0.2560E+03
     14.043  0.5286E-01  0.2560E+03
     14.167  0.6543E+00  0.2561E+03
     14.290  0.5043E+00  0.2561E+03
     14.414  0.2363E+01  0.2564E+03
     14.537  0.2924E+01  0.2568E+03
     14.661  0.4836E+01  0.2574E+03
     14.785  0.4504E+01  0.2580E+03
     14.908  0.2647E+01  0.2583E+03
     15.032  0.4829E+01  0.2589E+03
     15.155  0.8660E+01  0.2600E+03
     15.279  0.1524E+02  0.2618E+03
     15.402  0.6273E+01  0.2626E+03
     15.526  0.7936E+01  0.2636E+03
     15.649  0.1107E+02  0.2650E+03
     15.773  0.1592E+02  0.2669E+03
     15.896  0.1104E+02  0.2683E+03
     16.020  0.1207E+02  0.2698E+03
     16.144  0.1526E+02  0.2717E+03
     16.267  0.1735E+02  0.2738E+03
     16.391  0.1594E+02  0.2758E+03
     16.514  0.1681E+02  0.2779E+03
     16.638  0.1641E+02  0.2799E+03
     16.761  0.1470E+02  0.2817E+03
     16.885  0.2014E+02  0.2842E+03
     17.008  0.1891E+02  0.2865E+03
     17.132  0.2204E+02  0.2892E+03
     17.255  0.1871E+02  0.2916E+03
     17.379  0.2533E+02  0.2947E+03
     17.502  0.1537E+02  0.2966E+03
     17.626  0.1234E+02  0.2981E+03
     17.750  0.2313E+02  0.3010E+03
     17.873  0.3268E+02  0.3050E+03
     17.997  0.3673E+02  0.3095E+03
     18.120  0.2855E+02  0.3131E+03
     18.244  0.2440E+02  0.3161E+03
     18.367  0.3345E+02  0.3202E+03
     18.491  0.3268E+02  0.3242E+03
     18.614  0.3060E+02  0.3280E+03
     18.738  0.2619E+02  0.3313E+03
     18.861  0.2692E+02  0.3346E+03
     18.985  0.2771E+02  0.3380E+03
     19.108  0.2910E+02  0.3416E+03
     19.232  0.3149E+02  0.3455E+03
     19.356  0.2937E+02  0.3491E+03
     19.479  0.3282E+02  0.3532E+03
     19.603  0.2351E+02  0.3561E+03
     19.726  0.2285E+02  0.3589E+03
     19.850  0.3085E+02  0.3627E+03
     19.973  0.2390E+02  0.3657E+03
     20.097  0.2536E+02  0.3688E+03
     20.220  0.2371E+02  0.3717E+03
     20.344  0.2911E+02  0.3753E+03
     20.467  0.1797E+02  0.3775E+03
     20.591  0.1180E+02  0.3790E+03
     20.715  0.1257E+02  0.3806E+03
     20.838  0.8577E+01  0.3816E+03
     20.962  0.6116E+01  0.3824E+03
     21.085  0.2923E+01  0.3827E+03
     21.209  0.3662E+01  0.3832E+03
     21.332  0.1317E+01  0.3834E+03
     21.456  0.1140E+01  0.3835E+03
     21.579  0.1632E+01  0.3837E+03
     21.703  0.1174E+01  0.3838E+03
     21.826  0.1120E+00  0.3839E+03
     21.950  0.2774E+00  0.3839E+03
     22.073  0.8985E+00  0.3840E+03
     22.197  0.2306E-01  0.3840E+03
     22.321  0.5508E-06  0.3840E+03
     22.444  0.4393E-14  0.3840E+03
     22.568  0.0000E+00  0.3840E+03
     22.691  0.0000E+00  0.3840E+03
     22.815  0.0000E+00  0.3840E+03
     22.938  0.0000E+00  0.3840E+03
     23.062  0.0000E+00  0.3840E+03
     23.185  0.0000E+00  0.3840E+03
     23.309  0.0000E+00  0.3840E+03
     23.432  0.0000E+00  0.3840E+03
     23.556  0.0000E+00  0.3840E+03
     23.680  0.0000E+00  0.3840E+03
