  64   64
1 1
    46.698753346579998    -0.000000000000000    -0.000000000000000
    -0.000000000000000    46.698753346579998    -0.000000000000000
    -0.000000000000000    -0.000000000000000    45.995252501399996
1 2
    -0.169118963740000     0.000000000000000    -0.000000000000000
     0.000000000000000    -0.095955038230000     0.000000000000000
    -0.000000000000000     0.000000000000000    -0.084126004880000
1 3
    -0.095955038230000    -0.000000000000000     0.000000000000000
    -0.000000000000000    -0.169118963740000     0.000000000000000
     0.000000000000000     0.000000000000000    -0.084126004880000
1 4
    -0.134115186330000    -0.000000000000000    -0.000000000000000
    -0.000000000000000    -0.134115186330000     0.000000000000000
    -0.000000000000000     0.000000000000000     0.565224327790000
1 5
    -0.104632745510000    -0.000000000000000    -0.000000000000000
    -0.000000000000000    -0.104632745510000    -0.000000000000000
    -0.000000000000000    -0.000000000000000    -0.178307378740000
1 6
    -0.123761344000000    -0.000000000000000     0.000000000000000
    -0.000000000000000     0.583621456380000    -0.000000000000000
     0.000000000000000    -0.000000000000000    -0.119438464990000
1 7
     0.583621456380000     0.000000000000000     0.000000000000000
     0.000000000000000    -0.123761344000000    -0.000000000000000
     0.000000000000000    -0.000000000000000    -0.119438464990000
1 8
    -0.054801148380000    -0.000000000000000     0.000000000000000
    -0.000000000000000    -0.054801148380000     0.000000000000000
     0.000000000000000     0.000000000000000    -0.052813568100000
1 9
     0.163112622970000     0.090306024710000    -0.027198068730000
     0.090306024710000     0.057502422280000    -0.087593460470000
    -0.027198068730000    -0.087593460470000     0.150494106590000
1 10
    -0.108320122510000     0.137272878230000     0.225820612650000
     0.137272878230000    -0.108320122510000    -0.225820612650000
     0.225820612650000    -0.225820612650000    -0.338654829290000
1 11
    -9.667104516860000     2.502652437070000     2.592834628370000
     2.502652437070000    -9.667104516860000    -2.592834628370000
     2.592834628370000    -2.592834628370000    -9.527609963960000
1 12
     0.057502422280000     0.090306024710000     0.087593460470000
     0.090306024710000     0.163112622970000     0.027198068730000
     0.087593460470000     0.027198068730000     0.150494106590000
1 13
    -0.355099689940000     0.221747802660000     0.226952048850000
     0.221747802660000    -0.083508879700000    -0.103303007700000
     0.226952048850000    -0.103303007700000    -0.076283542540000
1 14
     0.034096466470000     0.028713136270000     0.031827228240000
     0.028713136270000     0.034096466470000    -0.031827228240000
     0.031827228240000    -0.031827228240000     0.033558493780000
1 15
     0.165542328160000    -0.044109917060000     0.107696391280000
    -0.044109917060000     0.165542328160000    -0.107696391280000
     0.107696391280000    -0.107696391280000     0.084939389800000
1 16
    -0.083508879700000     0.221747802660000     0.103303007700000
     0.221747802660000    -0.355099689940000    -0.226952048850000
     0.103303007700000    -0.226952048850000    -0.076283542540000
1 17
     1.436954722160000    -0.763847832590000     0.733432977840000
     0.763847832590000    -1.550721713060000     1.617195391460000
    -0.733432977840000     1.617195391460000    -1.583511863170000
1 18
     0.066099535750000    -0.038736195660000     0.040098002840000
     0.038736195660000    -0.086278255970000    -0.075247473680000
    -0.040098002840000    -0.075247473680000    -0.087297028990000
1 19
     1.436954722160000    -0.763847832590000    -0.733432977840000
     0.763847832590000    -1.550721713060000    -1.617195391460000
     0.733432977840000    -1.617195391460000    -1.583511863170000
1 20
     0.066099535750000    -0.038736195660000    -0.040098002840000
     0.038736195660000    -0.086278255970000     0.075247473680000
     0.040098002840000     0.075247473680000    -0.087297028990000
1 21
     1.436954722160000     0.763847832590000     0.733432977840000
    -0.763847832590000    -1.550721713060000    -1.617195391460000
    -0.733432977840000    -1.617195391460000    -1.583511863170000
1 22
     0.066099535750000     0.038736195660000     0.040098002840000
    -0.038736195660000    -0.086278255970000     0.075247473680000
    -0.040098002840000     0.075247473680000    -0.087297028990000
1 23
     1.436954722160000     0.763847832590000    -0.733432977840000
    -0.763847832590000    -1.550721713060000     1.617195391460000
     0.733432977840000     1.617195391460000    -1.583511863170000
1 24
     0.066099535750000     0.038736195660000    -0.040098002840000
    -0.038736195660000    -0.086278255970000    -0.075247473680000
     0.040098002840000    -0.075247473680000    -0.087297028990000
1 25
    -9.667104516860000    -2.502652437070000    -2.592834628370000
    -2.502652437070000    -9.667104516860000    -2.592834628370000
    -2.592834628370000    -2.592834628370000    -9.527609963960000
1 26
     0.057502422280000    -0.090306024710000    -0.087593460470000
    -0.090306024710000     0.163112622970000     0.027198068730000
    -0.087593460470000     0.027198068730000     0.150494106590000
1 27
     0.163112622970000    -0.090306024710000     0.027198068730000
    -0.090306024710000     0.057502422280000    -0.087593460470000
     0.027198068730000    -0.087593460470000     0.150494106590000
1 28
    -0.108320122510000    -0.137272878230000    -0.225820612650000
    -0.137272878230000    -0.108320122510000    -0.225820612650000
    -0.225820612650000    -0.225820612650000    -0.338654829290000
1 29
     0.165542328160000     0.044109917060000    -0.107696391280000
     0.044109917060000     0.165542328160000    -0.107696391280000
    -0.107696391280000    -0.107696391280000     0.084939389800000
1 30
    -0.083508879700000    -0.221747802660000    -0.103303007700000
    -0.221747802660000    -0.355099689940000    -0.226952048850000
    -0.103303007700000    -0.226952048850000    -0.076283542540000
1 31
    -0.355099689940000    -0.221747802660000    -0.226952048850000
    -0.221747802660000    -0.083508879700000    -0.103303007700000
    -0.226952048850000    -0.103303007700000    -0.076283542540000
1 32
     0.034096466470000    -0.028713136270000    -0.031827228240000
    -0.028713136270000     0.034096466470000    -0.031827228240000
    -0.031827228240000    -0.031827228240000     0.033558493780000
1 33
    -1.550721713060000     0.763847832590000    -1.617195391460000
    -0.763847832590000     1.436954722160000    -0.733432977840000
    -1.617195391460000     0.733432977840000    -1.583511863170000
1 34
    -1.550721713060000     0.763847832590000     1.617195391460000
    -0.763847832590000     1.436954722160000     0.733432977840000
     1.617195391460000    -0.733432977840000    -1.583511863170000
1 35
    -0.086278255970000     0.038736195660000     0.075247473680000
    -0.038736195660000     0.066099535750000    -0.040098002840000
     0.075247473680000     0.040098002840000    -0.087297028990000
1 36
    -0.086278255970000     0.038736195660000    -0.075247473680000
    -0.038736195660000     0.066099535750000     0.040098002840000
    -0.075247473680000    -0.040098002840000    -0.087297028990000
1 37
    -1.550721713060000    -0.763847832590000     1.617195391460000
     0.763847832590000     1.436954722160000    -0.733432977840000
     1.617195391460000     0.733432977840000    -1.583511863170000
1 38
    -1.550721713060000    -0.763847832590000    -1.617195391460000
     0.763847832590000     1.436954722160000     0.733432977840000
    -1.617195391460000    -0.733432977840000    -1.583511863170000
1 39
    -0.086278255970000    -0.038736195660000    -0.075247473680000
     0.038736195660000     0.066099535750000    -0.040098002840000
    -0.075247473680000     0.040098002840000    -0.087297028990000
1 40
    -0.086278255970000    -0.038736195660000     0.075247473680000
     0.038736195660000     0.066099535750000     0.040098002840000
     0.075247473680000    -0.040098002840000    -0.087297028990000
1 41
     0.163112622970000    -0.090306024710000    -0.027198068730000
    -0.090306024710000     0.057502422280000     0.087593460470000
    -0.027198068730000     0.087593460470000     0.150494106590000
1 42
    -0.108320122510000    -0.137272878230000     0.225820612650000
    -0.137272878230000    -0.108320122510000     0.225820612650000
     0.225820612650000     0.225820612650000    -0.338654829290000
1 43
    -9.667104516860000    -2.502652437070000     2.592834628370000
    -2.502652437070000    -9.667104516860000     2.592834628370000
     2.592834628370000     2.592834628370000    -9.527609963960000
1 44
     0.057502422280000    -0.090306024710000     0.087593460470000
    -0.090306024710000     0.163112622970000    -0.027198068730000
     0.087593460470000    -0.027198068730000     0.150494106590000
1 45
    -0.355099689940000    -0.221747802660000     0.226952048850000
    -0.221747802660000    -0.083508879700000     0.103303007700000
     0.226952048850000     0.103303007700000    -0.076283542540000
1 46
     0.034096466470000    -0.028713136270000     0.031827228240000
    -0.028713136270000     0.034096466470000     0.031827228240000
     0.031827228240000     0.031827228240000     0.033558493780000
1 47
     0.165542328160000     0.044109917060000     0.107696391280000
     0.044109917060000     0.165542328160000     0.107696391280000
     0.107696391280000     0.107696391280000     0.084939389800000
1 48
    -0.083508879700000    -0.221747802660000     0.103303007700000
    -0.221747802660000    -0.355099689940000     0.226952048850000
     0.103303007700000     0.226952048850000    -0.076283542540000
1 49
    -1.639061657180000     1.738287530930000    -0.748360608970000
     1.738287530930000    -1.639061657180000     0.748360608970000
     0.748360608970000    -0.748360608970000     1.406313700280000
1 50
    -1.639061657180000    -1.738287530930000    -0.748360608970000
    -1.738287530930000    -1.639061657180000    -0.748360608970000
     0.748360608970000     0.748360608970000     1.406313700280000
1 51
    -1.639061657180000    -1.738287530930000     0.748360608970000
    -1.738287530930000    -1.639061657180000     0.748360608970000
    -0.748360608970000    -0.748360608970000     1.406313700280000
1 52
    -1.639061657180000     1.738287530930000     0.748360608970000
     1.738287530930000    -1.639061657180000    -0.748360608970000
    -0.748360608970000     0.748360608970000     1.406313700280000
1 53
    -0.083210886790000    -0.069597859610000    -0.041510736660000
    -0.069597859610000    -0.083210886790000     0.041510736660000
     0.041510736660000    -0.041510736660000     0.054093220040000
1 54
    -0.083210886790000     0.069597859610000    -0.041510736660000
     0.069597859610000    -0.083210886790000    -0.041510736660000
     0.041510736660000     0.041510736660000     0.054093220040000
1 55
    -0.083210886790000     0.069597859610000     0.041510736660000
     0.069597859610000    -0.083210886790000     0.041510736660000
    -0.041510736660000    -0.041510736660000     0.054093220040000
1 56
    -0.083210886790000    -0.069597859610000     0.041510736660000
    -0.069597859610000    -0.083210886790000    -0.041510736660000
    -0.041510736660000     0.041510736660000     0.054093220040000
1 57
    -9.667104516860000     2.502652437070000    -2.592834628370000
     2.502652437070000    -9.667104516860000     2.592834628370000
    -2.592834628370000     2.592834628370000    -9.527609963960000
1 58
     0.057502422280000     0.090306024710000    -0.087593460470000
     0.090306024710000     0.163112622970000    -0.027198068730000
    -0.087593460470000    -0.027198068730000     0.150494106590000
1 59
     0.163112622970000     0.090306024710000     0.027198068730000
     0.090306024710000     0.057502422280000     0.087593460470000
     0.027198068730000     0.087593460470000     0.150494106590000
1 60
    -0.108320122510000     0.137272878230000    -0.225820612650000
     0.137272878230000    -0.108320122510000     0.225820612650000
    -0.225820612650000     0.225820612650000    -0.338654829290000
1 61
     0.165542328160000    -0.044109917060000    -0.107696391280000
    -0.044109917060000     0.165542328160000     0.107696391280000
    -0.107696391280000     0.107696391280000     0.084939389800000
1 62
    -0.083508879700000     0.221747802660000    -0.103303007700000
     0.221747802660000    -0.355099689940000     0.226952048850000
    -0.103303007700000     0.226952048850000    -0.076283542540000
1 63
    -0.355099689940000     0.221747802660000    -0.226952048850000
     0.221747802660000    -0.083508879700000     0.103303007700000
    -0.226952048850000     0.103303007700000    -0.076283542540000
1 64
     0.034096466470000     0.028713136270000    -0.031827228240000
     0.028713136270000     0.034096466470000     0.031827228240000
    -0.031827228240000     0.031827228240000     0.033558493780000
2 1
    -0.169118963740000     0.000000000000000    -0.000000000000000
     0.000000000000000    -0.095955038230000     0.000000000000000
    -0.000000000000000     0.000000000000000    -0.084126004880000
2 2
    46.698753346579998    -0.000000000000000    -0.000000000000000
    -0.000000000000000    46.698753346579998    -0.000000000000000
    -0.000000000000000    -0.000000000000000    45.995252501399996
2 3
    -0.134115186330000    -0.000000000000000    -0.000000000000000
    -0.000000000000000    -0.134115186330000     0.000000000000000
    -0.000000000000000     0.000000000000000     0.565224327790000
2 4
    -0.095955038230000    -0.000000000000000     0.000000000000000
    -0.000000000000000    -0.169118963740000     0.000000000000000
     0.000000000000000     0.000000000000000    -0.084126004880000
2 5
    -0.123761344000000    -0.000000000000000     0.000000000000000
    -0.000000000000000     0.583621456380000    -0.000000000000000
     0.000000000000000    -0.000000000000000    -0.119438464990000
2 6
    -0.104632745510000    -0.000000000000000    -0.000000000000000
    -0.000000000000000    -0.104632745510000    -0.000000000000000
    -0.000000000000000    -0.000000000000000    -0.178307378740000
2 7
    -0.054801148380000    -0.000000000000000     0.000000000000000
    -0.000000000000000    -0.054801148380000     0.000000000000000
     0.000000000000000     0.000000000000000    -0.052813568100000
2 8
     0.583621456380000     0.000000000000000     0.000000000000000
     0.000000000000000    -0.123761344000000    -0.000000000000000
     0.000000000000000    -0.000000000000000    -0.119438464990000
2 9
    -0.108320122510000     0.137272878230000     0.225820612650000
     0.137272878230000    -0.108320122510000    -0.225820612650000
     0.225820612650000    -0.225820612650000    -0.338654829290000
2 10
     0.163112622970000     0.090306024710000    -0.027198068730000
     0.090306024710000     0.057502422280000    -0.087593460470000
    -0.027198068730000    -0.087593460470000     0.150494106590000
2 11
     0.057502422280000     0.090306024710000     0.087593460470000
     0.090306024710000     0.163112622970000     0.027198068730000
     0.087593460470000     0.027198068730000     0.150494106590000
2 12
    -9.667104516860000     2.502652437070000     2.592834628370000
     2.502652437070000    -9.667104516860000    -2.592834628370000
     2.592834628370000    -2.592834628370000    -9.527609963960000
2 13
     0.034096466470000     0.028713136270000     0.031827228240000
     0.028713136270000     0.034096466470000    -0.031827228240000
     0.031827228240000    -0.031827228240000     0.033558493780000
2 14
    -0.355099689940000     0.221747802660000     0.226952048850000
     0.221747802660000    -0.083508879700000    -0.103303007700000
     0.226952048850000    -0.103303007700000    -0.076283542540000
2 15
    -0.083508879700000     0.221747802660000     0.103303007700000
     0.221747802660000    -0.355099689940000    -0.226952048850000
     0.103303007700000    -0.226952048850000    -0.076283542540000
2 16
     0.165542328160000    -0.044109917060000     0.107696391280000
    -0.044109917060000     0.165542328160000    -0.107696391280000
     0.107696391280000    -0.107696391280000     0.084939389800000
2 17
     0.066099535750000    -0.038736195660000     0.040098002840000
     0.038736195660000    -0.086278255970000    -0.075247473680000
    -0.040098002840000    -0.075247473680000    -0.087297028990000
2 18
     1.436954722160000    -0.763847832590000     0.733432977840000
     0.763847832590000    -1.550721713060000     1.617195391460000
    -0.733432977840000     1.617195391460000    -1.583511863170000
2 19
     0.066099535750000    -0.038736195660000    -0.040098002840000
     0.038736195660000    -0.086278255970000     0.075247473680000
     0.040098002840000     0.075247473680000    -0.087297028990000
2 20
     1.436954722160000    -0.763847832590000    -0.733432977840000
     0.763847832590000    -1.550721713060000    -1.617195391460000
     0.733432977840000    -1.617195391460000    -1.583511863170000
2 21
     0.066099535750000     0.038736195660000     0.040098002840000
    -0.038736195660000    -0.086278255970000     0.075247473680000
    -0.040098002840000     0.075247473680000    -0.087297028990000
2 22
     1.436954722160000     0.763847832590000     0.733432977840000
    -0.763847832590000    -1.550721713060000    -1.617195391460000
    -0.733432977840000    -1.617195391460000    -1.583511863170000
2 23
     0.066099535750000     0.038736195660000    -0.040098002840000
    -0.038736195660000    -0.086278255970000    -0.075247473680000
     0.040098002840000    -0.075247473680000    -0.087297028990000
2 24
     1.436954722160000     0.763847832590000    -0.733432977840000
    -0.763847832590000    -1.550721713060000     1.617195391460000
     0.733432977840000     1.617195391460000    -1.583511863170000
2 25
     0.057502422280000    -0.090306024710000    -0.087593460470000
    -0.090306024710000     0.163112622970000     0.027198068730000
    -0.087593460470000     0.027198068730000     0.150494106590000
2 26
    -9.667104516860000    -2.502652437070000    -2.592834628370000
    -2.502652437070000    -9.667104516860000    -2.592834628370000
    -2.592834628370000    -2.592834628370000    -9.527609963960000
2 27
    -0.108320122510000    -0.137272878230000    -0.225820612650000
    -0.137272878230000    -0.108320122510000    -0.225820612650000
    -0.225820612650000    -0.225820612650000    -0.338654829290000
2 28
     0.163112622970000    -0.090306024710000     0.027198068730000
    -0.090306024710000     0.057502422280000    -0.087593460470000
     0.027198068730000    -0.087593460470000     0.150494106590000
2 29
    -0.083508879700000    -0.221747802660000    -0.103303007700000
    -0.221747802660000    -0.355099689940000    -0.226952048850000
    -0.103303007700000    -0.226952048850000    -0.076283542540000
2 30
     0.165542328160000     0.044109917060000    -0.107696391280000
     0.044109917060000     0.165542328160000    -0.107696391280000
    -0.107696391280000    -0.107696391280000     0.084939389800000
2 31
     0.034096466470000    -0.028713136270000    -0.031827228240000
    -0.028713136270000     0.034096466470000    -0.031827228240000
    -0.031827228240000    -0.031827228240000     0.033558493780000
2 32
    -0.355099689940000    -0.221747802660000    -0.226952048850000
    -0.221747802660000    -0.083508879700000    -0.103303007700000
    -0.226952048850000    -0.103303007700000    -0.076283542540000
2 33
    -1.550721713060000     0.763847832590000     1.617195391460000
    -0.763847832590000     1.436954722160000     0.733432977840000
     1.617195391460000    -0.733432977840000    -1.583511863170000
2 34
    -1.550721713060000     0.763847832590000    -1.617195391460000
    -0.763847832590000     1.436954722160000    -0.733432977840000
    -1.617195391460000     0.733432977840000    -1.583511863170000
2 35
    -0.086278255970000     0.038736195660000    -0.075247473680000
    -0.038736195660000     0.066099535750000     0.040098002840000
    -0.075247473680000    -0.040098002840000    -0.087297028990000
2 36
    -0.086278255970000     0.038736195660000     0.075247473680000
    -0.038736195660000     0.066099535750000    -0.040098002840000
     0.075247473680000     0.040098002840000    -0.087297028990000
2 37
    -1.550721713060000    -0.763847832590000    -1.617195391460000
     0.763847832590000     1.436954722160000     0.733432977840000
    -1.617195391460000    -0.733432977840000    -1.583511863170000
2 38
    -1.550721713060000    -0.763847832590000     1.617195391460000
     0.763847832590000     1.436954722160000    -0.733432977840000
     1.617195391460000     0.733432977840000    -1.583511863170000
2 39
    -0.086278255970000    -0.038736195660000     0.075247473680000
     0.038736195660000     0.066099535750000     0.040098002840000
     0.075247473680000    -0.040098002840000    -0.087297028990000
2 40
    -0.086278255970000    -0.038736195660000    -0.075247473680000
     0.038736195660000     0.066099535750000    -0.040098002840000
    -0.075247473680000     0.040098002840000    -0.087297028990000
2 41
    -0.108320122510000    -0.137272878230000     0.225820612650000
    -0.137272878230000    -0.108320122510000     0.225820612650000
     0.225820612650000     0.225820612650000    -0.338654829290000
2 42
     0.163112622970000    -0.090306024710000    -0.027198068730000
    -0.090306024710000     0.057502422280000     0.087593460470000
    -0.027198068730000     0.087593460470000     0.150494106590000
2 43
     0.057502422280000    -0.090306024710000     0.087593460470000
    -0.090306024710000     0.163112622970000    -0.027198068730000
     0.087593460470000    -0.027198068730000     0.150494106590000
2 44
    -9.667104516860000    -2.502652437070000     2.592834628370000
    -2.502652437070000    -9.667104516860000     2.592834628370000
     2.592834628370000     2.592834628370000    -9.527609963960000
2 45
     0.034096466470000    -0.028713136270000     0.031827228240000
    -0.028713136270000     0.034096466470000     0.031827228240000
     0.031827228240000     0.031827228240000     0.033558493780000
2 46
    -0.355099689940000    -0.221747802660000     0.226952048850000
    -0.221747802660000    -0.083508879700000     0.103303007700000
     0.226952048850000     0.103303007700000    -0.076283542540000
2 47
    -0.083508879700000    -0.221747802660000     0.103303007700000
    -0.221747802660000    -0.355099689940000     0.226952048850000
     0.103303007700000     0.226952048850000    -0.076283542540000
2 48
     0.165542328160000     0.044109917060000     0.107696391280000
     0.044109917060000     0.165542328160000     0.107696391280000
     0.107696391280000     0.107696391280000     0.084939389800000
2 49
    -1.639061657180000    -1.738287530930000    -0.748360608970000
    -1.738287530930000    -1.639061657180000    -0.748360608970000
     0.748360608970000     0.748360608970000     1.406313700280000
2 50
    -1.639061657180000     1.738287530930000    -0.748360608970000
     1.738287530930000    -1.639061657180000     0.748360608970000
     0.748360608970000    -0.748360608970000     1.406313700280000
2 51
    -1.639061657180000     1.738287530930000     0.748360608970000
     1.738287530930000    -1.639061657180000    -0.748360608970000
    -0.748360608970000     0.748360608970000     1.406313700280000
2 52
    -1.639061657180000    -1.738287530930000     0.748360608970000
    -1.738287530930000    -1.639061657180000     0.748360608970000
    -0.748360608970000    -0.748360608970000     1.406313700280000
2 53
    -0.083210886790000     0.069597859610000    -0.041510736660000
     0.069597859610000    -0.083210886790000    -0.041510736660000
     0.041510736660000     0.041510736660000     0.054093220040000
2 54
    -0.083210886790000    -0.069597859610000    -0.041510736660000
    -0.069597859610000    -0.083210886790000     0.041510736660000
     0.041510736660000    -0.041510736660000     0.054093220040000
2 55
    -0.083210886790000    -0.069597859610000     0.041510736660000
    -0.069597859610000    -0.083210886790000    -0.041510736660000
    -0.041510736660000     0.041510736660000     0.054093220040000
2 56
    -0.083210886790000     0.069597859610000     0.041510736660000
     0.069597859610000    -0.083210886790000     0.041510736660000
    -0.041510736660000    -0.041510736660000     0.054093220040000
2 57
     0.057502422280000     0.090306024710000    -0.087593460470000
     0.090306024710000     0.163112622970000    -0.027198068730000
    -0.087593460470000    -0.027198068730000     0.150494106590000
2 58
    -9.667104516860000     2.502652437070000    -2.592834628370000
     2.502652437070000    -9.667104516860000     2.592834628370000
    -2.592834628370000     2.592834628370000    -9.527609963960000
2 59
    -0.108320122510000     0.137272878230000    -0.225820612650000
     0.137272878230000    -0.108320122510000     0.225820612650000
    -0.225820612650000     0.225820612650000    -0.338654829290000
2 60
     0.163112622970000     0.090306024710000     0.027198068730000
     0.090306024710000     0.057502422280000     0.087593460470000
     0.027198068730000     0.087593460470000     0.150494106590000
2 61
    -0.083508879700000     0.221747802660000    -0.103303007700000
     0.221747802660000    -0.355099689940000     0.226952048850000
    -0.103303007700000     0.226952048850000    -0.076283542540000
2 62
     0.165542328160000    -0.044109917060000    -0.107696391280000
    -0.044109917060000     0.165542328160000     0.107696391280000
    -0.107696391280000     0.107696391280000     0.084939389800000
2 63
     0.034096466470000     0.028713136270000    -0.031827228240000
     0.028713136270000     0.034096466470000     0.031827228240000
    -0.031827228240000     0.031827228240000     0.033558493780000
2 64
    -0.355099689940000     0.221747802660000    -0.226952048850000
     0.221747802660000    -0.083508879700000     0.103303007700000
    -0.226952048850000     0.103303007700000    -0.076283542540000
3 1
    -0.095955038230000    -0.000000000000000     0.000000000000000
    -0.000000000000000    -0.169118963740000     0.000000000000000
     0.000000000000000     0.000000000000000    -0.084126004880000
3 2
    -0.134115186330000    -0.000000000000000    -0.000000000000000
    -0.000000000000000    -0.134115186330000     0.000000000000000
    -0.000000000000000     0.000000000000000     0.565224327790000
3 3
    46.698753346579998    -0.000000000000000    -0.000000000000000
    -0.000000000000000    46.698753346579998    -0.000000000000000
    -0.000000000000000    -0.000000000000000    45.995252501399996
3 4
    -0.169118963740000     0.000000000000000    -0.000000000000000
     0.000000000000000    -0.095955038230000     0.000000000000000
    -0.000000000000000     0.000000000000000    -0.084126004880000
3 5
     0.583621456380000     0.000000000000000     0.000000000000000
     0.000000000000000    -0.123761344000000    -0.000000000000000
     0.000000000000000    -0.000000000000000    -0.119438464990000
3 6
    -0.054801148380000    -0.000000000000000     0.000000000000000
    -0.000000000000000    -0.054801148380000     0.000000000000000
     0.000000000000000     0.000000000000000    -0.052813568100000
3 7
    -0.104632745510000    -0.000000000000000    -0.000000000000000
    -0.000000000000000    -0.104632745510000    -0.000000000000000
    -0.000000000000000    -0.000000000000000    -0.178307378740000
3 8
    -0.123761344000000    -0.000000000000000     0.000000000000000
    -0.000000000000000     0.583621456380000    -0.000000000000000
     0.000000000000000    -0.000000000000000    -0.119438464990000
3 9
    -9.667104516860000     2.502652437070000     2.592834628370000
     2.502652437070000    -9.667104516860000    -2.592834628370000
     2.592834628370000    -2.592834628370000    -9.527609963960000
3 10
     0.057502422280000     0.090306024710000     0.087593460470000
     0.090306024710000     0.163112622970000     0.027198068730000
     0.087593460470000     0.027198068730000     0.150494106590000
3 11
     0.163112622970000     0.090306024710000    -0.027198068730000
     0.090306024710000     0.057502422280000    -0.087593460470000
    -0.027198068730000    -0.087593460470000     0.150494106590000
3 12
    -0.108320122510000     0.137272878230000     0.225820612650000
     0.137272878230000    -0.108320122510000    -0.225820612650000
     0.225820612650000    -0.225820612650000    -0.338654829290000
3 13
     0.165542328160000    -0.044109917060000     0.107696391280000
    -0.044109917060000     0.165542328160000    -0.107696391280000
     0.107696391280000    -0.107696391280000     0.084939389800000
3 14
    -0.083508879700000     0.221747802660000     0.103303007700000
     0.221747802660000    -0.355099689940000    -0.226952048850000
     0.103303007700000    -0.226952048850000    -0.076283542540000
3 15
    -0.355099689940000     0.221747802660000     0.226952048850000
     0.221747802660000    -0.083508879700000    -0.103303007700000
     0.226952048850000    -0.103303007700000    -0.076283542540000
3 16
     0.034096466470000     0.028713136270000     0.031827228240000
     0.028713136270000     0.034096466470000    -0.031827228240000
     0.031827228240000    -0.031827228240000     0.033558493780000
3 17
     1.436954722160000    -0.763847832590000    -0.733432977840000
     0.763847832590000    -1.550721713060000    -1.617195391460000
     0.733432977840000    -1.617195391460000    -1.583511863170000
3 18
     0.066099535750000    -0.038736195660000    -0.040098002840000
     0.038736195660000    -0.086278255970000     0.075247473680000