       N       E                     dE             d eps       ncg     rms          rms(c)
DAV:   1     0.509309393173E+03    0.50931E+03   -0.11416E+05 15360   0.106E+03
DAV:   2    -0.562307696305E+03   -0.10716E+04   -0.10227E+04 20288   0.233E+02
DAV:   3    -0.602530558634E+03   -0.40223E+02   -0.39992E+02 20352   0.423E+01
DAV:   4    -0.602945400232E+03   -0.41484E+00   -0.41401E+00 20352   0.475E+00
DAV:   5    -0.602953701784E+03   -0.83016E-02   -0.82984E-02 19040   0.618E-01    0.276E+01
DAV:   6    -0.586754227382E+03    0.16199E+02   -0.10643E+01 17984   0.662E+00    0.151E+01
DAV:   7    -0.581287634425E+03    0.54666E+01   -0.12066E+01 18592   0.726E+00    0.198E+00
DAV:   8    -0.581350697897E+03   -0.63063E-01   -0.26893E-01 19104   0.104E+00    0.219E-01
DAV:   9    -0.581352791676E+03   -0.20938E-02   -0.36037E-03 19840   0.145E-01    0.812E-02
DAV:  10    -0.581353234963E+03   -0.44329E-03   -0.38438E-04 18528   0.525E-02    0.804E-03
DAV:  11    -0.581353240554E+03   -0.55911E-05   -0.10744E-05 19968   0.777E-03    0.203E-03
DAV:  12    -0.581353240459E+03    0.94726E-07   -0.34672E-07 19744   0.148E-03    0.219E-04
DAV:  13    -0.581353240522E+03   -0.63079E-07   -0.51458E-09 14976   0.188E-04    0.447E-05
DAV:  14    -0.581353240544E+03   -0.21473E-07   -0.72698E-10 13120   0.690E-05    0.187E-05
DAV:  15    -0.581353240544E+03   -0.89130E-10   -0.14589E-10 11680   0.284E-05
   1 F= -.58135324E+03 E0= -.58135324E+03  d E =-.226497E-12
 Linear response reoptimize wavefunctions
DAV:   1    -0.581353240543E+03    0.41746E-09   -0.24581E-11 11520   0.126E-05
DAV:   2    -0.581353240543E+03    0.45475E-10   -0.42550E-12 11520   0.641E-06
 Linear response DOF=           2
 Linear response progress:
  Degree of freedom:   1/  2
       N       E                     dE             d eps       ncg     rms          rms(c)
RMM:   1    -0.147581505081E+00   -0.14758E+00    0.33399E-03 86506   0.741E-01
RMM:   2    -0.125123344291E+00    0.22458E-01   -0.71599E-03 52039   0.192E-01    0.187E-01
RMM:   3    -0.124941251494E+00    0.18209E-03   -0.98493E-04 54777   0.528E-02    0.942E-02
RMM:   4    -0.125236094681E+00   -0.29484E-03   -0.27914E-04 54867   0.293E-02    0.279E-02
RMM:   5    -0.125327713872E+00   -0.91619E-04   -0.18068E-05 55711   0.800E-03    0.670E-03
RMM:   6    -0.125311782827E+00    0.15931E-04   -0.14101E-06 56221   0.198E-03    0.141E-03
RMM:   7    -0.125303157297E+00    0.86255E-05   -0.90933E-07 57027   0.611E-04    0.393E-04
RMM:   8    -0.125302597713E+00    0.55958E-06   -0.62567E-07 58330   0.246E-04    0.850E-05
RMM:   9    -0.125302351413E+00    0.24630E-06   -0.58495E-07 59343   0.136E-04    0.372E-05
RMM:  10    -0.125302412406E+00   -0.60993E-07   -0.60636E-07 60839   0.128E-04    0.107E-05
RMM:  11    -0.125302415286E+00   -0.28799E-08   -0.61788E-07 61035   0.124E-04    0.438E-06
RMM:  12    -0.125302426062E+00   -0.10776E-07   -0.60740E-07 61174   0.123E-04    0.160E-06
 Linear response progress:
  Degree of freedom:   2/  2
       N       E                     dE             d eps       ncg     rms          rms(c)
RMM:   1    -0.148252056939E+00   -0.14825E+00    0.41132E-03 56282   0.745E-01
RMM:   2    -0.125073959334E+00    0.23178E-01   -0.73448E-03 33672   0.192E-01    0.190E-01
RMM:   3    -0.124853661078E+00    0.22030E-03   -0.10610E-03 35372   0.542E-02    0.951E-02
RMM:   4    -0.125139331307E+00   -0.28567E-03   -0.28838E-04 35540   0.294E-02    0.288E-02
RMM:   5    -0.125235340409E+00   -0.96009E-04   -0.19732E-05 36113   0.833E-03    0.675E-03
RMM:   6    -0.125218686396E+00    0.16654E-04   -0.98166E-07 36508   0.202E-03    0.139E-03
RMM:   7    -0.125210179817E+00    0.85066E-05   -0.13069E-07 36966   0.597E-04    0.397E-04
RMM:   8    -0.125209604448E+00    0.57537E-06   -0.77700E-09 37750   0.235E-04    0.863E-05
RMM:   9    -0.125209363603E+00    0.24085E-06    0.40655E-08 38437   0.123E-04    0.370E-05
RMM:  10    -0.125209425338E+00   -0.61736E-07    0.55186E-08 39257   0.114E-04    0.112E-05
RMM:  11    -0.125209431484E+00   -0.61463E-08    0.36800E-08 39442   0.110E-04    0.448E-06
 Linear response finished
