 vasp.5.4.4.18Apr17-6-g9f103f2a35 (build Mar 12 2022 03:36:41) complex          
  
 executed on IFC19.0.3.199_CrayMP date 2022.12.02  02:46:35
 running on   32 total cores
 distrk:  each k-point on   32 cores,    1 groups
 distr:  one band on NCORES_PER_BAND=   1 cores,   32 groups


--------------------------------------------------------------------------------------------------------


 INCAR:
 POTCAR:   PAW_PBE C 08Apr2002                    

 ----------------------------------------------------------------------------- 
|                                                                             |
|           W    W    AA    RRRRR   N    N  II  N    N   GGGG   !!!           |
|           W    W   A  A   R    R  NN   N  II  NN   N  G    G  !!!           |
|           W    W  A    A  R    R  N N  N  II  N N  N  G       !!!           |
|           W WW W  AAAAAA  RRRRR   N  N N  II  N  N N  G  GGG   !            |
|           WW  WW  A    A  R   R   N   NN  II  N   NN  G    G                |
|           W    W  A    A  R    R  N    N  II  N    N   GGGG   !!!           |
|                                                                             |
|      For optimal performance we recommend to set                            |
|        NCORE= 4 - approx SQRT( number of cores)                             |
|      NCORE specifies how many cores store one orbital (NPAR=cpu/NCORE).     |
|      This setting can  greatly improve the performance of VASP for DFT.     |
|      The default,   NCORE=1            might be grossly inefficient         |
|      on modern multi-core architectures or massively parallel machines.     |
|      Do your own testing !!!!                                               |
|      Unfortunately you need to use the default for GW and RPA calculations. |
|      (for HF NCORE is supported but not extensively tested yet)             |
|                                                                             |
 ----------------------------------------------------------------------------- 

 POTCAR:   PAW_PBE C 08Apr2002                    
   VRHFIN =C: s2p2                                                              
   LEXCH  = PE                                                                  
   EATOM  =   147.1560 eV,   10.8157 Ry                                         
                                                                                
   TITEL  = PAW_PBE C 08Apr2002                                                 
   LULTRA =        F    use ultrasoft PP ?                                      
   IUNSCR =        0    unscreen: 0-lin 1-nonlin 2-no                           
   RPACOR =     .000    partial core radius                                     
   POMASS =   12.011; ZVAL   =    4.000    mass and valenz                      
   RCORE  =    1.500    outmost cutoff radius                                   
   RWIGS  =    1.630; RWIGS  =     .863    wigner-seitz radius (au A)           
   ENMAX  =  400.000; ENMIN  =  300.000 eV                                      
   ICORE  =        2    local potential                                         
   LCOR   =        T    correct aug charges                                     
   LPAW   =        T    paw PP                                                  
   EAUG   =  644.873                                                            
   DEXC   =     .000                                                            
   RMAX   =    2.266    core radius for proj-oper                               
   RAUG   =    1.300    factor for augmentation sphere                          
   RDEP   =    1.501    radius for radial grids                                 
   RDEPT  =    1.300    core radius for aug-charge                              
   QCUT   =   -5.516; QGAM   =   11.032    optimization parameters              
                                                                                
   Description                                                                  
     l     E      TYP  RCUT    TYP  RCUT                                        
     0   .000     23  1.200                                                     
     0   .000     23  1.200                                                     
     1   .000     23  1.500                                                     
     1  2.500     23  1.500                                                     
     2   .000      7  1.500                                                     
  local pseudopotential read in
  atomic valenz-charges read in
  non local Contribution for L=           0  read in
    real space projection operators read in
  non local Contribution for L=           0  read in
    real space projection operators read in
  non local Contribution for L=           1  read in
    real space projection operators read in
  non local Contribution for L=           1  read in
    real space projection operators read in
    PAW grid and wavefunctions read in
 
   number of l-projection  operators is LMAX  =           4
   number of lm-projection operators is LMMAX =           8
 

 ----------------------------------------------------------------------------- 
|                                                                             |
|  ADVICE TO THIS USER RUNNING 'VASP/VAMP'   (HEAR YOUR MASTER'S VOICE ...):  |
|                                                                             |
|      You have a (more or less) 'large supercell' and for larger cells       |
|      it might be more efficient to use real space projection operators      |
|      So try LREAL= Auto  in the INCAR   file.                               |
|      Mind: If you want to do a very accurate calculations keep the          |
|      reciprocal projection scheme          (i.e. LREAL=.FALSE.)             |
|                                                                             |
 ----------------------------------------------------------------------------- 

 PAW_PBE C 08Apr2002                    :
 energy of atom  1       EATOM= -147.1560
 kinetic energy error for atom=    0.0288 (will be added to EATOM!!)
 
 
 POSCAR: generated by phonopy                    
  positions in direct lattice
  No initial velocities read in
 exchange correlation table for  LEXCH =        8
   RHO(1)=    0.500       N(1)  =     2000
   RHO(2)=  100.500       N(2)  =     4000
 


--------------------------------------------------------------------------------------------------------


 ion  position               nearest neighbor table
   1  0.125  0.375  0.125-  11 1.53  25 1.53  43 1.53  57 1.53
   2  0.625  0.375  0.125-  12 1.53  26 1.53  44 1.53  58 1.53
   3  0.125  0.875  0.125-   9 1.53  27 1.53  41 1.53  59 1.53
   4  0.625  0.875  0.125-  10 1.53  28 1.53  42 1.53  60 1.53
   5  0.125  0.375  0.625-  15 1.53  29 1.53  47 1.53  61 1.53
   6  0.625  0.375  0.625-  16 1.53  30 1.53  48 1.53  62 1.53
   7  0.125  0.875  0.625-  13 1.53  31 1.53  45 1.53  63 1.53
   8  0.625  0.875  0.625-  14 1.53  32 1.53  46 1.53  64 1.53
   9  0.000  0.000  0.250-   3 1.53  17 1.53  36 1.53  50 1.53
  10  0.500  0.000  0.250-   4 1.53  18 1.53  35 1.53  49 1.53
  11  0.000  0.500  0.250-   1 1.53  19 1.53  34 1.53  52 1.53
  12  0.500  0.500  0.250-   2 1.53  20 1.53  33 1.53  51 1.53
  13  0.000  0.000  0.750-   7 1.53  21 1.53  40 1.53  54 1.53
  14  0.500  0.000  0.750-   8 1.53  22 1.53  39 1.53  53 1.53
  15  0.000  0.500  0.750-   5 1.53  23 1.53  38 1.53  56 1.53
  16  0.500  0.500  0.750-   6 1.53  24 1.53  37 1.53  55 1.53
  17  0.125  0.125  0.375-   9 1.53  29 1.53  45 1.53  57 1.53
  18  0.625  0.125  0.375-  10 1.53  30 1.53  46 1.53  58 1.53
  19  0.125  0.625  0.375-  11 1.53  31 1.53  47 1.53  59 1.53
  20  0.625  0.625  0.375-  12 1.53  32 1.53  48 1.53  60 1.53
  21  0.125  0.125  0.875-  13 1.53  25 1.53  41 1.53  61 1.53
  22  0.625  0.125  0.875-  14 1.53  26 1.53  42 1.53  62 1.53
  23  0.125  0.625  0.875-  15 1.53  27 1.53  43 1.53  63 1.53
  24  0.625  0.625  0.875-  16 1.53  28 1.53  44 1.53  64 1.53
  25  0.000  0.250  0.000-   1 1.53  21 1.53  38 1.53  50 1.53
  26  0.500  0.250  0.000-   2 1.53  22 1.53  37 1.53  49 1.53
  27  0.000  0.750  0.000-   3 1.53  23 1.53  40 1.53  52 1.53
  28  0.500  0.750  0.000-   4 1.53  24 1.53  39 1.53  51 1.53
  29  0.000  0.250  0.500-   5 1.53  17 1.53  34 1.53  54 1.53
  30  0.500  0.250  0.500-   6 1.53  18 1.53  33 1.53  53 1.53
  31  0.000  0.750  0.500-   7 1.53  19 1.53  36 1.53  56 1.53
  32  0.500  0.750  0.500-   8 1.53  20 1.53  35 1.53  55 1.53
  33  0.375  0.375  0.375-  12 1.53  30 1.53  47 1.53  57 1.53
  34  0.875  0.375  0.375-  11 1.53  29 1.53  48 1.53  58 1.53
  35  0.375  0.875  0.375-  10 1.53  32 1.53  45 1.53  59 1.53
  36  0.875  0.875  0.375-   9 1.53  31 1.53  46 1.53  60 1.53
  37  0.375  0.375  0.875-  16 1.53  26 1.53  43 1.53  61 1.53
  38  0.875  0.375  0.875-  15 1.53  25 1.53  44 1.53  62 1.53
  39  0.375  0.875  0.875-  14 1.53  28 1.53  41 1.53  63 1.53
  40  0.875  0.875  0.875-  13 1.53  27 1.53  42 1.53  64 1.53
  41  0.250  0.000  0.000-   3 1.53  21 1.53  39 1.53  49 1.53
  42  0.750  0.000  0.000-   4 1.53  22 1.53  40 1.53  50 1.53
  43  0.250  0.500  0.000-   1 1.53  23 1.53  37 1.53  51 1.53
  44  0.750  0.500  0.000-   2 1.53  24 1.53  38 1.53  52 1.53
  45  0.250  0.000  0.500-   7 1.53  17 1.53  35 1.53  53 1.53
  46  0.750  0.000  0.500-   8 1.53  18 1.53  36 1.53  54 1.53
  47  0.250  0.500  0.500-   5 1.53  19 1.53  33 1.53  55 1.53
  48  0.750  0.500  0.500-   6 1.53  20 1.53  34 1.53  56 1.53
  49  0.375  0.125  0.125-  10 1.53  26 1.53  41 1.53  57 1.53
  50  0.875  0.125  0.125-   9 1.53  25 1.53  42 1.53  58 1.53
  51  0.375  0.625  0.125-  12 1.53  28 1.53  43 1.53  59 1.53
  52  0.875  0.625  0.125-  11 1.53  27 1.53  44 1.53  60 1.53
  53  0.375  0.125  0.625-  14 1.53  30 1.53  45 1.53  61 1.53
  54  0.875  0.125  0.625-  13 1.53  29 1.53  46 1.53  62 1.53
  55  0.375  0.625  0.625-  16 1.53  32 1.53  47 1.53  63 1.53
  56  0.875  0.625  0.625-  15 1.53  31 1.53  48 1.53  64 1.53
  57  0.250  0.250  0.250-   1 1.53  17 1.53  33 1.53  49 1.53
  58  0.750  0.250  0.250-   2 1.53  18 1.53  34 1.53  50 1.53
  59  0.250  0.750  0.250-   3 1.53  19 1.53  35 1.53  51 1.53
  60  0.750  0.750  0.250-   4 1.53  20 1.53  36 1.53  52 1.53
  61  0.250  0.250  0.750-   5 1.53  21 1.53  37 1.53  53 1.53
  62  0.750  0.250  0.750-   6 1.53  22 1.53  38 1.53  54 1.53
  63  0.250  0.750  0.750-   7 1.53  23 1.53  39 1.53  55 1.53
  64  0.750  0.750  0.750-   8 1.53  24 1.53  40 1.53  56 1.53
 
  LATTYP: Found a simple tetragonal cell.
 ALAT       =     7.0349324906
 C/A-ratio  =     1.0206208414
  
  Lattice vectors:
  
 A1 = (   7.0349324906,   0.0000000000,   0.0000000000)
 A2 = (   0.0000000000,   7.0349324906,   0.0000000000)
 A3 = (   0.0000000000,   0.0000000000,   7.1799987179)


Analysis of symmetry for initial positions (statically):
=====================================================================
 Subroutine PRICEL returns following result:
 
  LATTYP: Found a body centered tetragonal cell.
 ALAT       =     2.4872242346
 C/A-ratio  =     1.4433758360
  
  Lattice vectors:
  
 A1 = (   0.0000000000,  -1.7587331226,   1.7949996795)
 A2 = (   0.0000000000,   1.7587331226,   1.7949996795)
 A3 = (  -1.7587331226,   0.0000000000,  -1.7949996795)
 
  32 primitive cells build up your supercell.
 

 Routine SETGRP: Setting up the symmetry group for a 
 simple tetragonal supercell.


 Subroutine GETGRP returns: Found 16 space group operations
 (whereof  8 operations were pure point group operations)
 out of a pool of 16 trial point group operations.


The static configuration has the point symmetry D_2d.
 The point group associated with its full space group is D_4h.


Analysis of symmetry for dynamics (positions and initial velocities):
=====================================================================
 Subroutine PRICEL returns following result:
 
  LATTYP: Found a body centered tetragonal cell.
 ALAT       =     2.4872242346
 C/A-ratio  =     1.4433758360
  
  Lattice vectors:
  
 A1 = (   0.0000000000,  -1.7587331226,   1.7949996795)
 A2 = (   0.0000000000,   1.7587331226,   1.7949996795)
 A3 = (  -1.7587331226,   0.0000000000,  -1.7949996795)
 
  32 primitive cells build up your supercell.
 

 Routine SETGRP: Setting up the symmetry group for a 
 simple tetragonal supercell.


 Subroutine GETGRP returns: Found 16 space group operations
 (whereof  8 operations were pure point group operations)
 out of a pool of 16 trial point group operations.


The dynamic configuration has the point symmetry D_2d.
 The point group associated with its full space group is D_4h.


 Subroutine INISYM returns: Found 16 space group operations
 (whereof  8 operations are pure point group operations),
 and found    32 'primitive' translations

 
 
 KPOINTS: kpt_density=3000                        

Automatic generation of k-mesh.
Space group operators:
 irot       det(A)        alpha          n_x          n_y          n_z        tau_x        tau_y        tau_z
    1     1.000000     0.000000     1.000000     0.000000     0.000000     0.000000     0.000000     0.000000
    2    -1.000000    90.000000     0.000000     0.000000    -1.000000     0.000000     0.000000     0.000000
    3     1.000000   180.000000     0.000000     0.000000     1.000000     0.000000     0.000000     0.000000
    4    -1.000000    90.000000     0.000000     0.000000     1.000000     0.000000     0.000000     0.000000
    5     1.000000   180.000000     0.000000     1.000000     0.000000     0.000000     0.000000     0.000000
    6    -1.000000   180.000000     0.707107     0.707107     0.000000     0.000000     0.000000     0.000000
    7     1.000000   180.000000     1.000000     0.000000     0.000000     0.000000     0.000000     0.000000
    8    -1.000000   180.000000     0.707107    -0.707107     0.000000     0.000000     0.000000     0.000000
    9    -1.000000     0.000000     1.000000     0.000000     0.000000    -0.125000    -0.125000     0.125000
   10     1.000000    90.000000     0.000000     0.000000    -1.000000    -0.125000    -0.125000     0.125000
   11    -1.000000   180.000000     0.000000     0.000000     1.000000    -0.125000    -0.125000     0.125000
   12     1.000000    90.000000     0.000000     0.000000     1.000000    -0.125000    -0.125000     0.125000
   13    -1.000000   180.000000     0.000000     1.000000     0.000000    -0.125000    -0.125000     0.125000
   14     1.000000   180.000000     0.707107     0.707107     0.000000    -0.125000    -0.125000     0.125000
   15    -1.000000   180.000000     1.000000     0.000000     0.000000    -0.125000    -0.125000     0.125000
   16     1.000000   180.000000     0.707107    -0.707107     0.000000    -0.125000    -0.125000     0.125000
 
 Subroutine IBZKPT returns following result:
 ===========================================
 
 Found     40 irreducible k-points:
 
 Following reciprocal coordinates:
            Coordinates               Weight
  0.000000  0.000000  0.000000      1.000000
  0.166667  0.000000  0.000000      4.000000
  0.333333  0.000000  0.000000      4.000000
  0.500000  0.000000  0.000000      2.000000
  0.166667  0.166667  0.000000      4.000000
  0.333333  0.166667  0.000000      8.000000
  0.500000  0.166667  0.000000      4.000000
  0.333333  0.333333  0.000000      4.000000
  0.500000  0.333333  0.000000      4.000000
  0.500000  0.500000  0.000000      1.000000
  0.000000  0.000000  0.166667      2.000000
  0.166667  0.000000  0.166667      8.000000
  0.333333  0.000000  0.166667      8.000000
  0.500000  0.000000  0.166667      4.000000
  0.166667  0.166667  0.166667      8.000000
  0.333333  0.166667  0.166667     16.000000
  0.500000  0.166667  0.166667      8.000000
  0.333333  0.333333  0.166667      8.000000
  0.500000  0.333333  0.166667      8.000000
  0.500000  0.500000  0.166667      2.000000
  0.000000  0.000000  0.333333      2.000000
  0.166667  0.000000  0.333333      8.000000
  0.333333  0.000000  0.333333      8.000000
  0.500000  0.000000  0.333333      4.000000
  0.166667  0.166667  0.333333      8.000000
  0.333333  0.166667  0.333333     16.000000
  0.500000  0.166667  0.333333      8.000000
  0.333333  0.333333  0.333333      8.000000
  0.500000  0.333333  0.333333      8.000000
  0.500000  0.500000  0.333333      2.000000
  0.000000  0.000000  0.500000      1.000000
  0.166667  0.000000  0.500000      4.000000
  0.333333  0.000000  0.500000      4.000000
  0.500000  0.000000  0.500000      2.000000
  0.166667  0.166667  0.500000      4.000000
  0.333333  0.166667  0.500000      8.000000
  0.500000  0.166667  0.500000      4.000000
  0.333333  0.333333  0.500000      4.000000
  0.500000  0.333333  0.500000      4.000000
  0.500000  0.500000  0.500000      1.000000
 
 Following cartesian coordinates:
            Coordinates               Weight
  0.000000  0.000000  0.000000      1.000000
  0.023691  0.000000  0.000000      4.000000
  0.047383  0.000000  0.000000      4.000000
  0.071074  0.000000  0.000000      2.000000
  0.023691  0.023691  0.000000      4.000000
  0.047383  0.023691  0.000000      8.000000
  0.071074  0.023691  0.000000      4.000000
  0.047383  0.047383  0.000000      4.000000
  0.071074  0.047383  0.000000      4.000000
  0.071074  0.071074  0.000000      1.000000
  0.000000  0.000000  0.023213      2.000000
  0.023691  0.000000  0.023213      8.000000
  0.047383  0.000000  0.023213      8.000000
  0.071074  0.000000  0.023213      4.000000
  0.023691  0.023691  0.023213      8.000000
  0.047383  0.023691  0.023213     16.000000
  0.071074  0.023691  0.023213      8.000000
  0.047383  0.047383  0.023213      8.000000
  0.071074  0.047383  0.023213      8.000000
  0.071074  0.071074  0.023213      2.000000
  0.000000  0.000000  0.046425      2.000000
  0.023691  0.000000  0.046425      8.000000
  0.047383  0.000000  0.046425      8.000000
  0.071074  0.000000  0.046425      4.000000
  0.023691  0.023691  0.046425      8.000000
  0.047383  0.023691  0.046425     16.000000
  0.071074  0.023691  0.046425      8.000000
  0.047383  0.047383  0.046425      8.000000
  0.071074  0.047383  0.046425      8.000000
  0.071074  0.071074  0.046425      2.000000
  0.000000  0.000000  0.069638      1.000000
  0.023691  0.000000  0.069638      4.000000
  0.047383  0.000000  0.069638      4.000000
  0.071074  0.000000  0.069638      2.000000
  0.023691  0.023691  0.069638      4.000000
  0.047383  0.023691  0.069638      8.000000
  0.071074  0.023691  0.069638      4.000000
  0.047383  0.047383  0.069638      4.000000
  0.071074  0.047383  0.069638      4.000000
  0.071074  0.071074  0.069638      1.000000
 
 
 Subroutine IBZKPT_HF returns following result:
 ==============================================
 
 Found    216 k-points in 1st BZ
 the following    216 k-points will be used (e.g. in the exchange kernel)
 Following reciprocal coordinates:   # in IRBZ
  0.000000  0.000000  0.000000    0.00462963   1 t-inv F
  0.166667  0.000000  0.000000    0.00462963   2 t-inv F
  0.333333  0.000000  0.000000    0.00462963   3 t-inv F
  0.500000  0.000000  0.000000    0.00462963   4 t-inv F
  0.166667  0.166667  0.000000    0.00462963   5 t-inv F
  0.333333  0.166667  0.000000    0.00462963   6 t-inv F
  0.500000  0.166667  0.000000    0.00462963   7 t-inv F
  0.333333  0.333333  0.000000    0.00462963   8 t-inv F
  0.500000  0.333333  0.000000    0.00462963   9 t-inv F
  0.500000  0.500000  0.000000    0.00462963  10 t-inv F
  0.000000  0.000000  0.166667    0.00462963  11 t-inv F
  0.166667  0.000000  0.166667    0.00462963  12 t-inv F
  0.333333  0.000000  0.166667    0.00462963  13 t-inv F
  0.500000  0.000000  0.166667    0.00462963  14 t-inv F
  0.166667  0.166667  0.166667    0.00462963  15 t-inv F
  0.333333  0.166667  0.166667    0.00462963  16 t-inv F
  0.500000  0.166667  0.166667    0.00462963  17 t-inv F
  0.333333  0.333333  0.166667    0.00462963  18 t-inv F
  0.500000  0.333333  0.166667    0.00462963  19 t-inv F
  0.500000  0.500000  0.166667    0.00462963  20 t-inv F
  0.000000  0.000000  0.333333    0.00462963  21 t-inv F
  0.166667  0.000000  0.333333    0.00462963  22 t-inv F
  0.333333  0.000000  0.333333    0.00462963  23 t-inv F
  0.500000  0.000000  0.333333    0.00462963  24 t-inv F
  0.166667  0.166667  0.333333    0.00462963  25 t-inv F
  0.333333  0.166667  0.333333    0.00462963  26 t-inv F
  0.500000  0.166667  0.333333    0.00462963  27 t-inv F
  0.333333  0.333333  0.333333    0.00462963  28 t-inv F
  0.500000  0.333333  0.333333    0.00462963  29 t-inv F
  0.500000  0.500000  0.333333    0.00462963  30 t-inv F
  0.000000  0.000000  0.500000    0.00462963  31 t-inv F
  0.166667  0.000000  0.500000    0.00462963  32 t-inv F
  0.333333  0.000000  0.500000    0.00462963  33 t-inv F
  0.500000  0.000000  0.500000    0.00462963  34 t-inv F
  0.166667  0.166667  0.500000    0.00462963  35 t-inv F
  0.333333  0.166667  0.500000    0.00462963  36 t-inv F
  0.500000  0.166667  0.500000    0.00462963  37 t-inv F
  0.333333  0.333333  0.500000    0.00462963  38 t-inv F
  0.500000  0.333333  0.500000    0.00462963  39 t-inv F
  0.500000  0.500000  0.500000    0.00462963  40 t-inv F
  0.000000 -0.166667  0.000000    0.00462963   2 t-inv F
 -0.166667  0.000000  0.000000    0.00462963   2 t-inv F
  0.000000  0.166667  0.000000    0.00462963   2 t-inv F
  0.000000 -0.333333  0.000000    0.00462963   3 t-inv F
 -0.333333  0.000000  0.000000    0.00462963   3 t-inv F
  0.000000  0.333333  0.000000    0.00462963   3 t-inv F
  0.000000 -0.500000  0.000000    0.00462963   4 t-inv F
  0.166667 -0.166667  0.000000    0.00462963   5 t-inv F
 -0.166667 -0.166667  0.000000    0.00462963   5 t-inv F
 -0.166667  0.166667  0.000000    0.00462963   5 t-inv F
  0.166667 -0.333333  0.000000    0.00462963   6 t-inv F
 -0.333333 -0.166667  0.000000    0.00462963   6 t-inv F
 -0.166667  0.333333  0.000000    0.00462963   6 t-inv F
 -0.333333  0.166667  0.000000    0.00462963   6 t-inv F
 -0.166667 -0.333333  0.000000    0.00462963   6 t-inv F
  0.333333 -0.166667  0.000000    0.00462963   6 t-inv F
  0.166667  0.333333  0.000000    0.00462963   6 t-inv F
  0.166667 -0.500000  0.000000    0.00462963   7 t-inv F
 -0.500000 -0.166667  0.000000    0.00462963   7 t-inv F
 -0.166667  0.500000  0.000000    0.00462963   7 t-inv F
  0.333333 -0.333333  0.000000    0.00462963   8 t-inv F
 -0.333333 -0.333333  0.000000    0.00462963   8 t-inv F
 -0.333333  0.333333  0.000000    0.00462963   8 t-inv F
  0.333333 -0.500000  0.000000    0.00462963   9 t-inv F
 -0.500000 -0.333333  0.000000    0.00462963   9 t-inv F
 -0.333333  0.500000  0.000000    0.00462963   9 t-inv F
  0.000000  0.000000 -0.166667    0.00462963  11 t-inv F
  0.000000 -0.166667 -0.166667    0.00462963  12 t-inv F
 -0.166667  0.000000  0.166667    0.00462963  12 t-inv F
  0.000000  0.166667 -0.166667    0.00462963  12 t-inv F
 -0.166667  0.000000 -0.166667    0.00462963  12 t-inv F
  0.000000 -0.166667  0.166667    0.00462963  12 t-inv F
  0.166667  0.000000 -0.166667    0.00462963  12 t-inv F
  0.000000  0.166667  0.166667    0.00462963  12 t-inv F
  0.000000 -0.333333 -0.166667    0.00462963  13 t-inv F
 -0.333333  0.000000  0.166667    0.00462963  13 t-inv F
  0.000000  0.333333 -0.166667    0.00462963  13 t-inv F
 -0.333333  0.000000 -0.166667    0.00462963  13 t-inv F
  0.000000 -0.333333  0.166667    0.00462963  13 t-inv F
  0.333333  0.000000 -0.166667    0.00462963  13 t-inv F
  0.000000  0.333333  0.166667    0.00462963  13 t-inv F
  0.000000 -0.500000 -0.166667    0.00462963  14 t-inv F
 -0.500000  0.000000 -0.166667    0.00462963  14 t-inv F
  0.000000 -0.500000  0.166667    0.00462963  14 t-inv F
  0.166667 -0.166667 -0.166667    0.00462963  15 t-inv F
 -0.166667 -0.166667  0.166667    0.00462963  15 t-inv F
 -0.166667  0.166667 -0.166667    0.00462963  15 t-inv F
 -0.166667 -0.166667 -0.166667    0.00462963  15 t-inv F
 -0.166667  0.166667  0.166667    0.00462963  15 t-inv F
  0.166667  0.166667 -0.166667    0.00462963  15 t-inv F
  0.166667 -0.166667  0.166667    0.00462963  15 t-inv F
  0.166667 -0.333333 -0.166667    0.00462963  16 t-inv F
 -0.333333 -0.166667  0.166667    0.00462963  16 t-inv F
 -0.166667  0.333333 -0.166667    0.00462963  16 t-inv F
 -0.333333  0.166667 -0.166667    0.00462963  16 t-inv F
 -0.166667 -0.333333  0.166667    0.00462963  16 t-inv F
  0.333333 -0.166667 -0.166667    0.00462963  16 t-inv F
  0.166667  0.333333  0.166667    0.00462963  16 t-inv F
 -0.333333 -0.166667 -0.166667    0.00462963  16 t-inv F
 -0.166667  0.333333  0.166667    0.00462963  16 t-inv F
  0.333333  0.166667 -0.166667    0.00462963  16 t-inv F
  0.166667 -0.333333  0.166667    0.00462963  16 t-inv F
  0.333333 -0.166667  0.166667    0.00462963  16 t-inv F
  0.166667  0.333333 -0.166667    0.00462963  16 t-inv F
 -0.333333  0.166667  0.166667    0.00462963  16 t-inv F
 -0.166667 -0.333333 -0.166667    0.00462963  16 t-inv F
  0.166667 -0.500000 -0.166667    0.00462963  17 t-inv F
 -0.500000 -0.166667  0.166667    0.00462963  17 t-inv F
 -0.166667  0.500000 -0.166667    0.00462963  17 t-inv F
 -0.500000  0.166667 -0.166667    0.00462963  17 t-inv F
 -0.166667 -0.500000  0.166667    0.00462963  17 t-inv F
  0.500000 -0.166667 -0.166667    0.00462963  17 t-inv F
  0.166667  0.500000  0.166667    0.00462963  17 t-inv F
  0.333333 -0.333333 -0.166667    0.00462963  18 t-inv F
 -0.333333 -0.333333  0.166667    0.00462963  18 t-inv F
 -0.333333  0.333333 -0.166667    0.00462963  18 t-inv F
 -0.333333 -0.333333 -0.166667    0.00462963  18 t-inv F
 -0.333333  0.333333  0.166667    0.00462963  18 t-inv F
  0.333333  0.333333 -0.166667    0.00462963  18 t-inv F
  0.333333 -0.333333  0.166667    0.00462963  18 t-inv F
  0.333333 -0.500000 -0.166667    0.00462963  19 t-inv F
 -0.500000 -0.333333  0.166667    0.00462963  19 t-inv F
 -0.333333  0.500000 -0.166667    0.00462963  19 t-inv F
 -0.500000  0.333333 -0.166667    0.00462963  19 t-inv F
 -0.333333 -0.500000  0.166667    0.00462963  19 t-inv F
  0.500000 -0.333333 -0.166667    0.00462963  19 t-inv F
  0.333333  0.500000  0.166667    0.00462963  19 t-inv F
  0.500000 -0.500000 -0.166667    0.00462963  20 t-inv F
  0.000000  0.000000 -0.333333    0.00462963  21 t-inv F
  0.000000 -0.166667 -0.333333    0.00462963  22 t-inv F
 -0.166667  0.000000  0.333333    0.00462963  22 t-inv F
  0.000000  0.166667 -0.333333    0.00462963  22 t-inv F
 -0.166667  0.000000 -0.333333    0.00462963  22 t-inv F
  0.000000 -0.166667  0.333333    0.00462963  22 t-inv F
  0.166667  0.000000 -0.333333    0.00462963  22 t-inv F
  0.000000  0.166667  0.333333    0.00462963  22 t-inv F
  0.000000 -0.333333 -0.333333    0.00462963  23 t-inv F
 -0.333333  0.000000  0.333333    0.00462963  23 t-inv F
  0.000000  0.333333 -0.333333    0.00462963  23 t-inv F
 -0.333333  0.000000 -0.333333    0.00462963  23 t-inv F
  0.000000 -0.333333  0.333333    0.00462963  23 t-inv F
  0.333333  0.000000 -0.333333    0.00462963  23 t-inv F
  0.000000  0.333333  0.333333    0.00462963  23 t-inv F
  0.000000 -0.500000 -0.333333    0.00462963  24 t-inv F
 -0.500000  0.000000 -0.333333    0.00462963  24 t-inv F
  0.000000 -0.500000  0.333333    0.00462963  24 t-inv F
  0.166667 -0.166667 -0.333333    0.00462963  25 t-inv F
 -0.166667 -0.166667  0.333333    0.00462963  25 t-inv F
 -0.166667  0.166667 -0.333333    0.00462963  25 t-inv F
 -0.166667 -0.166667 -0.333333    0.00462963  25 t-inv F
 -0.166667  0.166667  0.333333    0.00462963  25 t-inv F
  0.166667  0.166667 -0.333333    0.00462963  25 t-inv F
  0.166667 -0.166667  0.333333    0.00462963  25 t-inv F
  0.166667 -0.333333 -0.333333    0.00462963  26 t-inv F
 -0.333333 -0.166667  0.333333    0.00462963  26 t-inv F
 -0.166667  0.333333 -0.333333    0.00462963  26 t-inv F
 -0.333333  0.166667 -0.333333    0.00462963  26 t-inv F
 -0.166667 -0.333333  0.333333    0.00462963  26 t-inv F
  0.333333 -0.166667 -0.333333    0.00462963  26 t-inv F
  0.166667  0.333333  0.333333    0.00462963  26 t-inv F
 -0.333333 -0.166667 -0.333333    0.00462963  26 t-inv F
 -0.166667  0.333333  0.333333    0.00462963  26 t-inv F
  0.333333  0.166667 -0.333333    0.00462963  26 t-inv F
  0.166667 -0.333333  0.333333    0.00462963  26 t-inv F
  0.333333 -0.166667  0.333333    0.00462963  26 t-inv F
  0.166667  0.333333 -0.333333    0.00462963  26 t-inv F
 -0.333333  0.166667  0.333333    0.00462963  26 t-inv F
 -0.166667 -0.333333 -0.333333    0.00462963  26 t-inv F
  0.166667 -0.500000 -0.333333    0.00462963  27 t-inv F
 -0.500000 -0.166667  0.333333    0.00462963  27 t-inv F
 -0.166667  0.500000 -0.333333    0.00462963  27 t-inv F
 -0.500000  0.166667 -0.333333    0.00462963  27 t-inv F
 -0.166667 -0.500000  0.333333    0.00462963  27 t-inv F
  0.500000 -0.166667 -0.333333    0.00462963  27 t-inv F
  0.166667  0.500000  0.333333    0.00462963  27 t-inv F
  0.333333 -0.333333 -0.333333    0.00462963  28 t-inv F
 -0.333333 -0.333333  0.333333    0.00462963  28 t-inv F
 -0.333333  0.333333 -0.333333    0.00462963  28 t-inv F
 -0.333333 -0.333333 -0.333333    0.00462963  28 t-inv F
 -0.333333  0.333333  0.333333    0.00462963  28 t-inv F
  0.333333  0.333333 -0.333333    0.00462963  28 t-inv F
  0.333333 -0.333333  0.333333    0.00462963  28 t-inv F
  0.333333 -0.500000 -0.333333    0.00462963  29 t-inv F
 -0.500000 -0.333333  0.333333    0.00462963  29 t-inv F
 -0.333333  0.500000 -0.333333    0.00462963  29 t-inv F
 -0.500000  0.333333 -0.333333    0.00462963  29 t-inv F
 -0.333333 -0.500000  0.333333    0.00462963  29 t-inv F
  0.500000 -0.333333 -0.333333    0.00462963  29 t-inv F
  0.333333  0.500000  0.333333    0.00462963  29 t-inv F
  0.500000 -0.500000 -0.333333    0.00462963  30 t-inv F
  0.000000 -0.166667 -0.500000    0.00462963  32 t-inv F
 -0.166667  0.000000  0.500000    0.00462963  32 t-inv F
  0.000000  0.166667 -0.500000    0.00462963  32 t-inv F
  0.000000 -0.333333 -0.500000    0.00462963  33 t-inv F
 -0.333333  0.000000  0.500000    0.00462963  33 t-inv F
  0.000000  0.333333 -0.500000    0.00462963  33 t-inv F
  0.000000 -0.500000 -0.500000    0.00462963  34 t-inv F
  0.166667 -0.166667 -0.500000    0.00462963  35 t-inv F
 -0.166667 -0.166667  0.500000    0.00462963  35 t-inv F
 -0.166667  0.166667 -0.500000    0.00462963  35 t-inv F
  0.166667 -0.333333 -0.500000    0.00462963  36 t-inv F
 -0.333333 -0.166667  0.500000    0.00462963  36 t-inv F
 -0.166667  0.333333 -0.500000    0.00462963  36 t-inv F
 -0.333333  0.166667 -0.500000    0.00462963  36 t-inv F
 -0.166667 -0.333333  0.500000    0.00462963  36 t-inv F
  0.333333 -0.166667 -0.500000    0.00462963  36 t-inv F
  0.166667  0.333333  0.500000    0.00462963  36 t-inv F
  0.166667 -0.500000 -0.500000    0.00462963  37 t-inv F
 -0.500000 -0.166667  0.500000    0.00462963  37 t-inv F
 -0.166667  0.500000 -0.500000    0.00462963  37 t-inv F
  0.333333 -0.333333 -0.500000    0.00462963  38 t-inv F
 -0.333333 -0.333333  0.500000    0.00462963  38 t-inv F
 -0.333333  0.333333 -0.500000    0.00462963  38 t-inv F
  0.333333 -0.500000 -0.500000    0.00462963  39 t-inv F
 -0.500000 -0.333333  0.500000    0.00462963  39 t-inv F
 -0.333333  0.500000 -0.500000    0.00462963  39 t-inv F


--------------------------------------------------------------------------------------------------------




 Dimension of arrays:
   k-points           NKPTS =     40   k-points in BZ     NKDIM =     40   number of bands    NBANDS=    192
   number of dos      NEDOS =    301   number of ions     NIONS =     64
   non local maximal  LDIM  =      4   non local SUM 2l+1 LMDIM =      8
   total plane-waves  NPLWV = 110592
   max r-space proj   IRMAX =      1   max aug-charges    IRDMAX=  29578
   dimension x,y,z NGX =    48 NGY =   48 NGZ =   48
   dimension x,y,z NGXF=    96 NGYF=   96 NGZF=   96
   support grid    NGXF=   192 NGYF=  192 NGZF=  192
   ions per type =              64
   NGX,Y,Z   is equivalent  to a cutoff of  11.34, 11.34, 11.11 a.u.
   NGXF,Y,Z  is equivalent  to a cutoff of  22.69, 22.69, 22.23 a.u.

 SYSTEM =  unknown system                          
 POSCAR =  generated by phonopy                    

 Startparameter for this run:
   NWRITE =      2    write-flag & timer
   PREC   = accura    normal or accurate (medium, high low for compatibility)
   ISTART =      0    job   : 0-new  1-cont  2-samecut
   ICHARG =      2    charge: 1-file 2-atom 10-const
   ISPIN  =      1    spin polarized calculation?
   LNONCOLLINEAR =      F non collinear calculations
   LSORBIT =      F    spin-orbit coupling
   INIWAV =      1    electr: 0-lowe 1-rand  2-diag
   LASPH  =      F    aspherical Exc in radial PAW
   METAGGA=      F    non-selfconsistent MetaGGA calc.

 Electronic Relaxation 1
   ENCUT  =  400.0 eV  29.40 Ry    5.42 a.u.  11.47 11.47 11.71*2*pi/ulx,y,z
   ENINI  =  400.0     initial cutoff
   ENAUG  =  644.9 eV  augmentation charge cutoff
   NELM   =     60;   NELMIN=  2; NELMDL= -5     # of ELM steps 
   EDIFF  = 0.1E-07   stopping-criterion for ELM
   LREAL  =      F    real-space projection
   NLSPLINE    = F    spline interpolate recip. space projectors
   LCOMPAT=      F    compatible to vasp.4.4
   GGA_COMPAT  = T    GGA compatible to vasp.4.4-vasp.4.6
   LMAXPAW     = -100 max onsite density
   LMAXMIX     =    2 max onsite mixed and CHGCAR
   VOSKOWN=      0    Vosko Wilk Nusair interpolation
   ROPT   =    0.00000
 Ionic relaxation
   EDIFFG = 0.1E-06   stopping-criterion for IOM
   NSW    =      1    number of steps for IOM
   NBLOCK =      1;   KBLOCK =      1    inner block; outer block 
   IBRION =      8    ionic relax: 0-MD 1-quasi-New 2-CG
   NFREE  =      0    steps in history (QN), initial steepest desc. (CG)
   ISIF   =      2    stress and relaxation
   IWAVPR =     11    prediction:  0-non 1-charg 2-wave 3-comb
   ISYM   =      2    0-nonsym 1-usesym 2-fastsym
   LCORR  =      T    Harris-Foulkes like correction to forces

   POTIM  = 0.5000    time-step for ionic-motion
   TEIN   =    0.0    initial temperature
   TEBEG  =    0.0;   TEEND  =   0.0 temperature during run
   SMASS  =  -3.00    Nose mass-parameter (am)
   estimated Nose-frequenzy (Omega)   =  0.10E-29 period in steps =****** mass=  -0.113E-26a.u.
   SCALEE = 1.0000    scale energy and forces
   NPACO  =    256;   APACO  = 16.0  distance and # of slots for P.C.
   PSTRESS=    0.0 pullay stress

  Mass of Ions in am
   POMASS =  12.01
  Ionic Valenz
   ZVAL   =   4.00
  Atomic Wigner-Seitz radii
   RWIGS  =  -1.00
  virtual crystal weights 
   VCA    =   1.00
   NELECT =     256.0000    total number of electrons
   NUPDOWN=      -1.0000    fix difference up-down

 DOS related values:
   EMIN   =  10.00;   EMAX   =-10.00  energy-range for DOS
   EFERMI =   0.00
   ISMEAR =     0;   SIGMA  =   0.06  broadening in eV -4-tet -1-fermi 0-gaus

 Electronic relaxation 2 (details)
   IALGO  =     38    algorithm
   LDIAG  =      T    sub-space diagonalisation (order eigenvalues)
   LSUBROT=      F    optimize rotation matrix (better conditioning)
   TURBO    =      0    0=normal 1=particle mesh
   IRESTART =      0    0=no restart 2=restart with 2 vectors
   NREBOOT  =      0    no. of reboots
   NMIN     =      0    reboot dimension
   EREF     =   0.00    reference energy to select bands
   IMIX   =      4    mixing-type and parameters
     AMIX     =   0.40;   BMIX     =  1.00
     AMIX_MAG =   1.60;   BMIX_MAG =  1.00
     AMIN     =   0.10
     WC   =   100.;   INIMIX=   1;  MIXPRE=   1;  MAXMIX= -45

 Intra band minimization:
   WEIMIN = 0.0010     energy-eigenvalue tresh-hold
   EBREAK =  0.13E-10  absolut break condition
   DEPER  =   0.30     relativ break condition  

   TIME   =   0.40     timestep for ELM

  volume/ion in A,a.u.               =       5.55        37.47
  Fermi-wavevector in a.u.,A,eV,Ry     =   1.467597  2.773356 29.304775  2.153840
  Thomas-Fermi vector in A             =   2.583195
 
 Write flags
   LWAVE        =      F    write WAVECAR
   LDOWNSAMPLE  =      F    k-point downsampling of WAVECAR
   LCHARG       =      F    write CHGCAR
   LVTOT        =      F    write LOCPOT, total local potential
   LVHAR        =      F    write LOCPOT, Hartree potential only
   LELF         =      F    write electronic localiz. function (ELF)
   LORBIT       =      0    0 simple, 1 ext, 2 COOP (PROOUT), +10 PAW based schemes


 Dipole corrections
   LMONO  =      F    monopole corrections only (constant potential shift)
   LDIPOL =      F    correct potential (dipole corrections)
   IDIPOL =      0    1-x, 2-y, 3-z, 4-all directions 
   EPSILON=  1.0000000 bulk dielectric constant

 Exchange correlation treatment:
   GGA     =    --    GGA type
   LEXCH   =     8    internal setting for exchange type
   VOSKOWN=      0    Vosko Wilk Nusair interpolation
   LHFCALC =     F    Hartree Fock is set to
   LHFONE  =     F    Hartree Fock one center treatment
   AEXX    =    0.0000 exact exchange contribution

 Linear response parameters
   LEPSILON=     F    determine dielectric tensor
   LRPA    =     F    only Hartree local field effects (RPA)
   LNABLA  =     F    use nabla operator in PAW spheres
   LVEL    =     F    velocity operator in full k-point grid
   LINTERFAST=   F  fast interpolation
   KINTER  =     0    interpolate to denser k-point grid
   CSHIFT  =0.1000    complex shift for real part using Kramers Kronig
   OMEGAMAX=  -1.0    maximum frequency
   DEG_THRESHOLD= 0.2000000E-02 threshold for treating states as degnerate
   RTIME   =   -0.100 relaxation time in fs
  (WPLASMAI=    0.000 imaginary part of plasma frequency in eV, 0.658/RTIME)
   DFIELD  = 0.0000000 0.0000000 0.0000000 field for delta impulse in time
 
 Orbital magnetization related:
   ORBITALMAG=     F  switch on orbital magnetization
   LCHIMAG   =     F  perturbation theory with respect to B field
   DQ        =  0.001000  dq finite difference perturbation B field
   LLRAUG    =     F  two centre corrections for induced B field



--------------------------------------------------------------------------------------------------------


 linear response using symmetry
 charge density and potential will be updated during run
 non-spin polarized calculation
 Variant of blocked Davidson
 Davidson routine will perform the subspace rotation
 perform sub-space diagonalisation
    after iterative eigenvector-optimisation
 modified Broyden-mixing scheme, WC =      100.0
 initial mixing is a Kerker type mixing with AMIX =  0.4000 and BMIX =      1.0000
 Hartree-type preconditioning will be used
 using additional bands           64
 reciprocal scheme for non local part
 calculate Harris-corrections to forces 
   (improved forces if not selfconsistent)
 use gradient corrections 
 use of overlap-Matrix (Vanderbilt PP)
 Gauss-broadening in eV      SIGMA  =   0.06


--------------------------------------------------------------------------------------------------------


  energy-cutoff  :      400.00
  volume of cell :      355.34
      direct lattice vectors                 reciprocal lattice vectors
     7.034932491  0.000000000  0.000000000     0.142147775  0.000000000  0.000000000
     0.000000000  7.034932491  0.000000000     0.000000000  0.142147775  0.000000000
     0.000000000  0.000000000  7.179998718     0.000000000  0.000000000  0.139275791

  length of vectors
     7.034932491  7.034932491  7.179998718     0.142147775  0.142147775  0.139275791


 
 k-points in units of 2pi/SCALE and weight: kpt_density=3000                        
   0.00000000  0.00000000  0.00000000       0.005
   0.02369130  0.00000000  0.00000000       0.019
   0.04738259  0.00000000  0.00000000       0.019
   0.07107389  0.00000000  0.00000000       0.009
   0.02369130  0.02369130  0.00000000       0.019
   0.04738259  0.02369130  0.00000000       0.037
   0.07107389  0.02369130  0.00000000       0.019
   0.04738259  0.04738259  0.00000000       0.019
   0.07107389  0.04738259  0.00000000       0.019
   0.07107389  0.07107389  0.00000000       0.005
   0.00000000  0.00000000  0.02321263       0.009
   0.02369130  0.00000000  0.02321263       0.037
   0.04738259  0.00000000  0.02321263       0.037
   0.07107389  0.00000000  0.02321263       0.019
   0.02369130  0.02369130  0.02321263       0.037
   0.04738259  0.02369130  0.02321263       0.074
   0.07107389  0.02369130  0.02321263       0.037
   0.04738259  0.04738259  0.02321263       0.037
   0.07107389  0.04738259  0.02321263       0.037
   0.07107389  0.07107389  0.02321263       0.009
   0.00000000  0.00000000  0.04642526       0.009
   0.02369130  0.00000000  0.04642526       0.037
   0.04738259  0.00000000  0.04642526       0.037
   0.07107389  0.00000000  0.04642526       0.019
   0.02369130  0.02369130  0.04642526       0.037
   0.04738259  0.02369130  0.04642526       0.074
   0.07107389  0.02369130  0.04642526       0.037
   0.04738259  0.04738259  0.04642526       0.037
   0.07107389  0.04738259  0.04642526       0.037
   0.07107389  0.07107389  0.04642526       0.009
   0.00000000  0.00000000  0.06963790       0.005
   0.02369130  0.00000000  0.06963790       0.019
   0.04738259  0.00000000  0.06963790       0.019
   0.07107389  0.00000000  0.06963790       0.009
   0.02369130  0.02369130  0.06963790       0.019
   0.04738259  0.02369130  0.06963790       0.037
   0.07107389  0.02369130  0.06963790       0.019
   0.04738259  0.04738259  0.06963790       0.019
   0.07107389  0.04738259  0.06963790       0.019
   0.07107389  0.07107389  0.06963790       0.005
 
 k-points in reciprocal lattice and weights: kpt_density=3000                        
   0.00000000  0.00000000  0.00000000       0.005
   0.16666667  0.00000000  0.00000000       0.019
   0.33333333  0.00000000  0.00000000       0.019
   0.50000000  0.00000000  0.00000000       0.009
   0.16666667  0.16666667  0.00000000       0.019
   0.33333333  0.16666667  0.00000000       0.037
   0.50000000  0.16666667  0.00000000       0.019
   0.33333333  0.33333333  0.00000000       0.019
   0.50000000  0.33333333  0.00000000       0.019
   0.50000000  0.50000000  0.00000000       0.005
   0.00000000  0.00000000  0.16666667       0.009
   0.16666667  0.00000000  0.16666667       0.037
   0.33333333  0.00000000  0.16666667       0.037
   0.50000000  0.00000000  0.16666667       0.019
   0.16666667  0.16666667  0.16666667       0.037
   0.33333333  0.16666667  0.16666667       0.074
   0.50000000  0.16666667  0.16666667       0.037
   0.33333333  0.33333333  0.16666667       0.037
   0.50000000  0.33333333  0.16666667       0.037
   0.50000000  0.50000000  0.16666667       0.009
   0.00000000  0.00000000  0.33333333       0.009
   0.16666667  0.00000000  0.33333333       0.037
   0.33333333  0.00000000  0.33333333       0.037
   0.50000000  0.00000000  0.33333333       0.019
   0.16666667  0.16666667  0.33333333       0.037
   0.33333333  0.16666667  0.33333333       0.074
   0.50000000  0.16666667  0.33333333       0.037
   0.33333333  0.33333333  0.33333333       0.037
   0.50000000  0.33333333  0.33333333       0.037
   0.50000000  0.50000000  0.33333333       0.009
   0.00000000  0.00000000  0.50000000       0.005
   0.16666667  0.00000000  0.50000000       0.019
   0.33333333  0.00000000  0.50000000       0.019
   0.50000000  0.00000000  0.50000000       0.009
   0.16666667  0.16666667  0.50000000       0.019
   0.33333333  0.16666667  0.50000000       0.037
   0.50000000  0.16666667  0.50000000       0.019
   0.33333333  0.33333333  0.50000000       0.019
   0.50000000  0.33333333  0.50000000       0.019
   0.50000000  0.50000000  0.50000000       0.005
 
 position of ions in fractional coordinates (direct lattice) 
   0.12500000  0.37500000  0.12500000
   0.62500000  0.37500000  0.12500000
   0.12500000  0.87500000  0.12500000
   0.62500000  0.87500000  0.12500000
   0.12500000  0.37500000  0.62500000
   0.62500000  0.37500000  0.62500000
   0.12500000  0.87500000  0.62500000
   0.62500000  0.87500000  0.62500000
   0.00000000  0.00000000  0.25000000
   0.50000000  0.00000000  0.25000000
   0.00000000  0.50000000  0.25000000
   0.50000000  0.50000000  0.25000000
   0.00000000  0.00000000  0.75000000
   0.50000000  0.00000000  0.75000000
   0.00000000  0.50000000  0.75000000
   0.50000000  0.50000000  0.75000000
   0.12500000  0.12500000  0.37500000
   0.62500000  0.12500000  0.37500000
   0.12500000  0.62500000  0.37500000
   0.62500000  0.62500000  0.37500000
   0.12500000  0.12500000  0.87500000
   0.62500000  0.12500000  0.87500000
   0.12500000  0.62500000  0.87500000
   0.62500000  0.62500000  0.87500000
   0.00000000  0.25000000  0.00000000
   0.50000000  0.25000000  0.00000000
   0.00000000  0.75000000  0.00000000
   0.50000000  0.75000000  0.00000000
   0.00000000  0.25000000  0.50000000
   0.50000000  0.25000000  0.50000000
   0.00000000  0.75000000  0.50000000
   0.50000000  0.75000000  0.50000000
   0.37500000  0.37500000  0.37500000
   0.87500000  0.37500000  0.37500000
   0.37500000  0.87500000  0.37500000
   0.87500000  0.87500000  0.37500000
   0.37500000  0.37500000  0.87500000
   0.87500000  0.37500000  0.87500000
   0.37500000  0.87500000  0.87500000
   0.87500000  0.87500000  0.87500000
   0.25000000  0.00000000  0.00000000
   0.75000000  0.00000000  0.00000000
   0.25000000  0.50000000  0.00000000
   0.75000000  0.50000000  0.00000000
   0.25000000  0.00000000  0.50000000
   0.75000000  0.00000000  0.50000000
   0.25000000  0.50000000  0.50000000
   0.75000000  0.50000000  0.50000000
   0.37500000  0.12500000  0.12500000
   0.87500000  0.12500000  0.12500000
   0.37500000  0.62500000  0.12500000
   0.87500000  0.62500000  0.12500000
   0.37500000  0.12500000  0.62500000
   0.87500000  0.12500000  0.62500000
   0.37500000  0.62500000  0.62500000
   0.87500000  0.62500000  0.62500000
   0.25000000  0.25000000  0.25000000
   0.75000000  0.25000000  0.25000000
   0.25000000  0.75000000  0.25000000
   0.75000000  0.75000000  0.25000000
   0.25000000  0.25000000  0.75000000
   0.75000000  0.25000000  0.75000000
   0.25000000  0.75000000  0.75000000
   0.75000000  0.75000000  0.75000000
 
 position of ions in cartesian coordinates  (Angst):
   0.87936656  2.63809968  0.89749984
   4.39683281  2.63809968  0.89749984
   0.87936656  6.15556593  0.89749984
   4.39683281  6.15556593  0.89749984
   0.87936656  2.63809968  4.48749920
   4.39683281  2.63809968  4.48749920
   0.87936656  6.15556593  4.48749920
   4.39683281  6.15556593  4.48749920
   0.00000000  0.00000000  1.79499968
   3.51746625  0.00000000  1.79499968
   0.00000000  3.51746625  1.79499968
   3.51746625  3.51746625  1.79499968
   0.00000000  0.00000000  5.38499904
   3.51746625  0.00000000  5.38499904
   0.00000000  3.51746625  5.38499904
   3.51746625  3.51746625  5.38499904
   0.87936656  0.87936656  2.69249952
   4.39683281  0.87936656  2.69249952
   0.87936656  4.39683281  2.69249952
   4.39683281  4.39683281  2.69249952
   0.87936656  0.87936656  6.28249888
   4.39683281  0.87936656  6.28249888
   0.87936656  4.39683281  6.28249888
   4.39683281  4.39683281  6.28249888
   0.00000000  1.75873312  0.00000000
   3.51746625  1.75873312  0.00000000
   0.00000000  5.27619937  0.00000000
   3.51746625  5.27619937  0.00000000
   0.00000000  1.75873312  3.58999936
   3.51746625  1.75873312  3.58999936
   0.00000000  5.27619937  3.58999936
   3.51746625  5.27619937  3.58999936
   2.63809968  2.63809968  2.69249952
   6.15556593  2.63809968  2.69249952
   2.63809968  6.15556593  2.69249952
   6.15556593  6.15556593  2.69249952
   2.63809968  2.63809968  6.28249888
   6.15556593  2.63809968  6.28249888
   2.63809968  6.15556593  6.28249888
   6.15556593  6.15556593  6.28249888
   1.75873312  0.00000000  0.00000000
   5.27619937  0.00000000  0.00000000
   1.75873312  3.51746625  0.00000000
   5.27619937  3.51746625  0.00000000
   1.75873312  0.00000000  3.58999936
   5.27619937  0.00000000  3.58999936
   1.75873312  3.51746625  3.58999936
   5.27619937  3.51746625  3.58999936
   2.63809968  0.87936656  0.89749984
   6.15556593  0.87936656  0.89749984
   2.63809968  4.39683281  0.89749984
   6.15556593  4.39683281  0.89749984
   2.63809968  0.87936656  4.48749920
   6.15556593  0.87936656  4.48749920
   2.63809968  4.39683281  4.48749920
   6.15556593  4.39683281  4.48749920
   1.75873312  1.75873312  1.79499968
   5.27619937  1.75873312  1.79499968
   1.75873312  5.27619937  1.79499968
   5.27619937  5.27619937  1.79499968
   1.75873312  1.75873312  5.38499904
   5.27619937  1.75873312  5.38499904
   1.75873312  5.27619937  5.38499904
   5.27619937  5.27619937  5.38499904
 


--------------------------------------------------------------------------------------------------------


 k-point  1 :   0.0000 0.0000 0.0000  plane waves:    6475
 k-point  2 :   0.1667 0.0000 0.0000  plane waves:    6461
 k-point  3 :   0.3333 0.0000 0.0000  plane waves:    6459
 k-point  4 :   0.5000 0.0000 0.0000  plane waves:    6458
 k-point  5 :   0.1667 0.1667 0.0000  plane waves:    6468
 k-point  6 :   0.3333 0.1667 0.0000  plane waves:    6466
 k-point  7 :   0.5000 0.1667 0.0000  plane waves:    6462
 k-point  8 :   0.3333 0.3333 0.0000  plane waves:    6464
 k-point  9 :   0.5000 0.3333 0.0000  plane waves:    6440
 k-point 10 :   0.5000 0.5000 0.0000  plane waves:    6432
 k-point 11 :   0.0000 0.0000 0.1667  plane waves:    6475
 k-point 12 :   0.1667 0.0000 0.1667  plane waves:    6469
 k-point 13 :   0.3333 0.0000 0.1667  plane waves:    6464
 k-point 14 :   0.5000 0.0000 0.1667  plane waves:    6472
 k-point 15 :   0.1667 0.1667 0.1667  plane waves:    6471
 k-point 16 :   0.3333 0.1667 0.1667  plane waves:    6452
 k-point 17 :   0.5000 0.1667 0.1667  plane waves:    6452
 k-point 18 :   0.3333 0.3333 0.1667  plane waves:    6451
 k-point 19 :   0.5000 0.3333 0.1667  plane waves:    6436
 k-point 20 :   0.5000 0.5000 0.1667  plane waves:    6424
 k-point 21 :   0.0000 0.0000 0.3333  plane waves:    6448
 k-point 22 :   0.1667 0.0000 0.3333  plane waves:    6456
 k-point 23 :   0.3333 0.0000 0.3333  plane waves:    6444
 k-point 24 :   0.5000 0.0000 0.3333  plane waves:    6428
 k-point 25 :   0.1667 0.1667 0.3333  plane waves:    6462
 k-point 26 :   0.3333 0.1667 0.3333  plane waves:    6459
 k-point 27 :   0.5000 0.1667 0.3333  plane waves:    6454
 k-point 28 :   0.3333 0.3333 0.3333  plane waves:    6459
 k-point 29 :   0.5000 0.3333 0.3333  plane waves:    6452
 k-point 30 :   0.5000 0.5000 0.3333  plane waves:    6440
 k-point 31 :   0.0000 0.0000 0.5000  plane waves:    6464
 k-point 32 :   0.1667 0.0000 0.5000  plane waves:    6446
 k-point 33 :   0.3333 0.0000 0.5000  plane waves:    6448
 k-point 34 :   0.5000 0.0000 0.5000  plane waves:    6424
 k-point 35 :   0.1667 0.1667 0.5000  plane waves:    6464
 k-point 36 :   0.3333 0.1667 0.5000  plane waves:    6442
 k-point 37 :   0.5000 0.1667 0.5000  plane waves:    6456
 k-point 38 :   0.3333 0.3333 0.5000  plane waves:    6468
 k-point 39 :   0.5000 0.3333 0.5000  plane waves:    6472
 k-point 40 :   0.5000 0.5000 0.5000  plane waves:    6448

 maximum and minimum number of plane-waves per node :      6475     6424

 maximum number of plane-waves:      6475
 maximum index in each direction: 
   IXMAX=   11   IYMAX=   11   IZMAX=   11
   IXMIN=  -11   IYMIN=  -11   IZMIN=  -12


 serial   3D FFT for wavefunctions
 parallel 3D FFT for charge:
    minimum data exchange during FFTs selected (reduces bandwidth)


 total amount of memory used by VASP MPI-rank0    90730. kBytes
=======================================================================

   base      :      30000. kBytes
   nonl-proj :      23281. kBytes
   fftplans  :       4537. kBytes
   grid      :       5806. kBytes
   one-center:        196. kBytes
   wavefun   :      26910. kBytes
 
     INWAV:  cpu time    0.0004: real time    0.0005
 Broyden mixing: mesh for mixing (old mesh)
   NGX = 23   NGY = 23   NGZ = 23
  (NGX  = 96   NGY  = 96   NGZ  = 96)
  gives a total of  12167 points

 initial charge density was supplied:
 charge density of overlapping atoms calculated
 number of electron     256.0000000 magnetization 
 keeping initial charge density in first step


--------------------------------------------------------------------------------------------------------


 Maximum index for augmentation-charges         1119 (set IRDMAX)


--------------------------------------------------------------------------------------------------------


 First call to EWALD:  gamma=   0.250
 Maximum number of real-space cells 3x 3x 3
 Maximum number of reciprocal cells 3x 3x 3

    FEWALD:  cpu time    0.0083: real time    0.0083


--------------------------------------- Iteration      1(   1)  ---------------------------------------


    POTLOK:  cpu time    0.0629: real time    0.0676
    SETDIJ:  cpu time    0.0469: real time    0.0471
     EDDAV:  cpu time   26.0128: real time   26.0250
       DOS:  cpu time    0.0079: real time    0.0079
    --------------------------------------------
      LOOP:  cpu time   26.1307: real time   26.1477

 eigenvalue-minimisations  : 15360
 total energy-change (2. order) : 0.5093094E+03  (-0.1141580E+05)
 number of electron     256.0000000 magnetization 
 augmentation part      256.0000000 magnetization 

 Free energy of the ion-electron system (eV)
  ---------------------------------------------------
  alpha Z        PSCENC =       939.22059564
  Ewald energy   TEWEN  =    -11215.01059771
  -Hartree energ DENC   =      -548.46796280
  -exchange      EXHF   =         0.00000000
  -V(xc)+E(xc)   XCENC  =       919.43385034
  PAW double counting   =      2421.21235816    -2494.84305711
  entropy T*S    EENTRO =        -0.01179088
  eigenvalues    EBANDS =      1071.63366976
  atomic energy  EATOM  =      9416.14232778
  Solvation  Ediel_sol  =         0.00000000
  ---------------------------------------------------
  free energy    TOTEN  =       509.30939317 eV

  energy without entropy =      509.32118405  energy(sigma->0) =      509.31528861


--------------------------------------------------------------------------------------------------------




--------------------------------------- Iteration      1(   2)  ---------------------------------------


     EDDAV:  cpu time   32.5654: real time   32.5687
       DOS:  cpu time    0.0038: real time    0.0038
    --------------------------------------------
      LOOP:  cpu time   32.5691: real time   32.5725

 eigenvalue-minimisations  : 20288
 total energy-change (2. order) :-0.1071617E+04  (-0.1022706E+04)
 number of electron     256.0000000 magnetization 
 augmentation part      256.0000000 magnetization 

 Free energy of the ion-electron system (eV)
  ---------------------------------------------------
  alpha Z        PSCENC =       939.22059564
  Ewald energy   TEWEN  =    -11215.01059771
  -Hartree energ DENC   =      -548.46796280
  -exchange      EXHF   =         0.00000000
  -V(xc)+E(xc)   XCENC  =       919.43385034
  PAW double counting   =      2421.21235816    -2494.84305711
  entropy T*S    EENTRO =        -0.00000000
  eigenvalues    EBANDS =         0.00478940
  atomic energy  EATOM  =      9416.14232778
  Solvation  Ediel_sol  =         0.00000000
  ---------------------------------------------------
  free energy    TOTEN  =      -562.30769630 eV

  energy without entropy =     -562.30769630  energy(sigma->0) =     -562.30769630


--------------------------------------------------------------------------------------------------------




--------------------------------------- Iteration      1(   3)  ---------------------------------------


     EDDAV:  cpu time   33.6879: real time   33.6913
       DOS:  cpu time    0.0042: real time    0.0042
    --------------------------------------------
      LOOP:  cpu time   33.6921: real time   33.6955

 eigenvalue-minimisations  : 20352
 total energy-change (2. order) :-0.4022286E+02  (-0.3999164E+02)
 number of electron     256.0000000 magnetization 
 augmentation part      256.0000000 magnetization 

 Free energy of the ion-electron system (eV)
  ---------------------------------------------------
  alpha Z        PSCENC =       939.22059564
  Ewald energy   TEWEN  =    -11215.01059771
  -Hartree energ DENC   =      -548.46796280
  -exchange      EXHF   =         0.00000000
  -V(xc)+E(xc)   XCENC  =       919.43385034
  PAW double counting   =      2421.21235816    -2494.84305711
  entropy T*S    EENTRO =        -0.00000000
  eigenvalues    EBANDS =       -40.21807293
  atomic energy  EATOM  =      9416.14232778
  Solvation  Ediel_sol  =         0.00000000
  ---------------------------------------------------
  free energy    TOTEN  =      -602.53055863 eV

  energy without entropy =     -602.53055863  energy(sigma->0) =     -602.53055863


--------------------------------------------------------------------------------------------------------




--------------------------------------- Iteration      1(   4)  ---------------------------------------


     EDDAV:  cpu time   33.3069: real time   33.3103
       DOS:  cpu time    0.0041: real time    0.0041
    --------------------------------------------
      LOOP:  cpu time   33.3109: real time   33.3143

 eigenvalue-minimisations  : 20352
 total energy-change (2. order) :-0.4148416E+00  (-0.4140087E+00)
 number of electron     256.0000000 magnetization 
 augmentation part      256.0000000 magnetization 

 Free energy of the ion-electron system (eV)
  ---------------------------------------------------
  alpha Z        PSCENC =       939.22059564
  Ewald energy   TEWEN  =    -11215.01059771
  -Hartree energ DENC   =      -548.46796280
  -exchange      EXHF   =         0.00000000
  -V(xc)+E(xc)   XCENC  =       919.43385034
  PAW double counting   =      2421.21235816    -2494.84305711
  entropy T*S    EENTRO =        -0.00000000
  eigenvalues    EBANDS =       -40.63291452
  atomic energy  EATOM  =      9416.14232778
  Solvation  Ediel_sol  =         0.00000000
  ---------------------------------------------------
  free energy    TOTEN  =      -602.94540023 eV

  energy without entropy =     -602.94540023  energy(sigma->0) =     -602.94540023


--------------------------------------------------------------------------------------------------------




--------------------------------------- Iteration      1(   5)  ---------------------------------------


     EDDAV:  cpu time   30.6746: real time   30.6778
       DOS:  cpu time    0.0040: real time    0.0040
    CHARGE:  cpu time    0.7475: real time    0.7477
    MIXING:  cpu time    0.0037: real time    0.0037
    --------------------------------------------
      LOOP:  cpu time   31.4298: real time   31.4333

 eigenvalue-minimisations  : 19040
 total energy-change (2. order) :-0.8301552E-02  (-0.8298353E-02)
 number of electron     255.9999998 magnetization 
 augmentation part        6.4519880 magnetization 

 Broyden mixing:
  rms(total) = 0.27575E+01    rms(broyden)= 0.27570E+01
  rms(prec ) = 0.40253E+01
  weight for this iteration     100.00

 Free energy of the ion-electron system (eV)
  ---------------------------------------------------
  alpha Z        PSCENC =       939.22059564
  Ewald energy   TEWEN  =    -11215.01059771
  -Hartree energ DENC   =      -548.46796280
  -exchange      EXHF   =         0.00000000
  -V(xc)+E(xc)   XCENC  =       919.43385034
  PAW double counting   =      2421.21235816    -2494.84305711
  entropy T*S    EENTRO =        -0.00000000
  eigenvalues    EBANDS =       -40.64121608
  atomic energy  EATOM  =      9416.14232778
  Solvation  Ediel_sol  =         0.00000000
  ---------------------------------------------------
  free energy    TOTEN  =      -602.95370178 eV

  energy without entropy =     -602.95370178  energy(sigma->0) =     -602.95370178


--------------------------------------------------------------------------------------------------------




--------------------------------------- Iteration      1(   6)  ---------------------------------------


    POTLOK:  cpu time    0.0646: real time    0.0650
    SETDIJ:  cpu time    0.0417: real time    0.0417
     EDDAV:  cpu time   29.2691: real time   29.2718
       DOS:  cpu time    0.0040: real time    0.0040
    CHARGE:  cpu time    0.7439: real time    0.7439
    MIXING:  cpu time    0.0050: real time    0.0050
    --------------------------------------------
      LOOP:  cpu time   30.1283: real time   30.1314

 eigenvalue-minimisations  : 17984
 total energy-change (2. order) : 0.1619947E+02  (-0.1064255E+01)
 number of electron     255.9999998 magnetization 
 augmentation part        6.2988875 magnetization 

 Broyden mixing:
  rms(total) = 0.15062E+01    rms(broyden)= 0.15062E+01
  rms(prec ) = 0.21806E+01
  weight for this iteration     100.00

 eigenvalues of (default mixing * dielectric matrix)
  average eigenvalue GAMMA=   2.1594
  2.1594

 Free energy of the ion-electron system (eV)
  ---------------------------------------------------
  alpha Z        PSCENC =       939.22059564
  Ewald energy   TEWEN  =    -11215.01059771
  -Hartree energ DENC   =      -672.11966083
  -exchange      EXHF   =         0.00000000
  -V(xc)+E(xc)   XCENC  =       931.04329557
  PAW double counting   =      3185.50060968    -3263.70525043
  entropy T*S    EENTRO =        -0.00000000
  eigenvalues    EBANDS =        92.17445292
  atomic energy  EATOM  =      9416.14232778
  Solvation  Ediel_sol  =         0.00000000
  ---------------------------------------------------
  free energy    TOTEN  =      -586.75422738 eV

  energy without entropy =     -586.75422738  energy(sigma->0) =     -586.75422738


--------------------------------------------------------------------------------------------------------




--------------------------------------- Iteration      1(   7)  ---------------------------------------


    POTLOK:  cpu time    0.0578: real time    0.0627
    SETDIJ:  cpu time    0.0406: real time    0.0406
     EDDAV:  cpu time   30.2703: real time   30.2730
       DOS:  cpu time    0.0054: real time    0.0054
    CHARGE:  cpu time    0.7448: real time    0.7449
    MIXING:  cpu time    0.0045: real time    0.0045
    --------------------------------------------
      LOOP:  cpu time   31.1233: real time   31.1311

 eigenvalue-minimisations  : 18592
 total energy-change (2. order) : 0.5466593E+01  (-0.1206581E+01)
 number of electron     255.9999998 magnetization 
 augmentation part        6.1380827 magnetization 

 Broyden mixing:
  rms(total) = 0.19783E+00    rms(broyden)= 0.19688E+00
  rms(prec ) = 0.24124E+00
  weight for this iteration     100.00

 eigenvalues of (default mixing * dielectric matrix)
  average eigenvalue GAMMA=   2.2748
  2.0131  2.5365

 Free energy of the ion-electron system (eV)
  ---------------------------------------------------
  alpha Z        PSCENC =       939.22059564
  Ewald energy   TEWEN  =    -11215.01059771
  -Hartree energ DENC   =      -830.36836579
  -exchange      EXHF   =         0.00000000
  -V(xc)+E(xc)   XCENC  =       946.05680547
  PAW double counting   =      4231.70190699    -4314.26719019
  entropy T*S    EENTRO =        -0.00000000
  eigenvalues    EBANDS =       245.23688338
  atomic energy  EATOM  =      9416.14232778
  Solvation  Ediel_sol  =         0.00000000
  ---------------------------------------------------
  free energy    TOTEN  =      -581.28763443 eV

  energy without entropy =     -581.28763443  energy(sigma->0) =     -581.28763443


--------------------------------------------------------------------------------------------------------




--------------------------------------- Iteration      1(   8)  ---------------------------------------


    POTLOK:  cpu time    0.0754: real time    0.0758
    SETDIJ:  cpu time    0.0462: real time    0.0462
     EDDAV:  cpu time   32.5627: real time   32.5656
       DOS:  cpu time    0.0043: real time    0.0043
    CHARGE:  cpu time    0.7443: real time    0.7444
    MIXING:  cpu time    0.0046: real time    0.0046
    --------------------------------------------
      LOOP:  cpu time   33.4376: real time   33.4409

 eigenvalue-minimisations  : 19104
 total energy-change (2. order) :-0.6306347E-01  (-0.2689325E-01)
 number of electron     255.9999998 magnetization 
 augmentation part        6.1451935 magnetization 

 Broyden mixing:
  rms(total) = 0.21940E-01    rms(broyden)= 0.21622E-01
  rms(prec ) = 0.26484E-01
  weight for this iteration     100.00

 eigenvalues of (default mixing * dielectric matrix)
  average eigenvalue GAMMA=   2.1055
  1.4654  2.6923  2.1587

 Free energy of the ion-electron system (eV)
  ---------------------------------------------------
  alpha Z        PSCENC =       939.22059564
  Ewald energy   TEWEN  =    -11215.01059771
  -Hartree energ DENC   =      -833.78197806
  -exchange      EXHF   =         0.00000000
  -V(xc)+E(xc)   XCENC  =       946.41299541
  PAW double counting   =      4312.68596098    -4394.18889706
  entropy T*S    EENTRO =        -0.00000000
  eigenvalues    EBANDS =       247.16889512
  atomic energy  EATOM  =      9416.14232778
  Solvation  Ediel_sol  =         0.00000000
  ---------------------------------------------------
  free energy    TOTEN  =      -581.35069790 eV

  energy without entropy =     -581.35069790  energy(sigma->0) =     -581.35069790


--------------------------------------------------------------------------------------------------------




--------------------------------------- Iteration      1(   9)  ---------------------------------------


    POTLOK:  cpu time    0.0642: real time    0.0646
    SETDIJ:  cpu time    0.0413: real time    0.0413
     EDDAV:  cpu time   32.5029: real time   32.5059
       DOS:  cpu time    0.0042: real time    0.0042
    CHARGE:  cpu time    0.7461: real time    0.7461
    MIXING:  cpu time    0.0046: real time    0.0046
    --------------------------------------------
      LOOP:  cpu time   33.3634: real time   33.3668

 eigenvalue-minimisations  : 19840
 total energy-change (2. order) :-0.2093779E-02  (-0.3603693E-03)
 number of electron     255.9999998 magnetization 
 augmentation part        6.1442621 magnetization 

 Broyden mixing:
  rms(total) = 0.81225E-02    rms(broyden)= 0.80979E-02
  rms(prec ) = 0.10251E-01
  weight for this iteration     100.00

 eigenvalues of (default mixing * dielectric matrix)
  average eigenvalue GAMMA=   2.0394
  0.9664  2.7508  2.4507  1.9898

 Free energy of the ion-electron system (eV)
  ---------------------------------------------------
  alpha Z        PSCENC =       939.22059564
  Ewald energy   TEWEN  =    -11215.01059771
  -Hartree energ DENC   =      -833.26894745
  -exchange      EXHF   =         0.00000000
  -V(xc)+E(xc)   XCENC  =       946.36335331
  PAW double counting   =      4308.73451180    -4390.12875926
  entropy T*S    EENTRO =        -0.00000000
  eigenvalues    EBANDS =       246.59472422
  atomic energy  EATOM  =      9416.14232778
  Solvation  Ediel_sol  =         0.00000000
  ---------------------------------------------------
  free energy    TOTEN  =      -581.35279168 eV

  energy without entropy =     -581.35279168  energy(sigma->0) =     -581.35279168


--------------------------------------------------------------------------------------------------------




--------------------------------------- Iteration      1(  10)  ---------------------------------------


    POTLOK:  cpu time    0.0586: real time    0.0591
    SETDIJ:  cpu time    0.0437: real time    0.0438
     EDDAV:  cpu time   31.4275: real time   31.4303
       DOS:  cpu time    0.0046: real time    0.0046
    CHARGE:  cpu time    0.7460: real time    0.7461
    MIXING:  cpu time    0.0046: real time    0.0046
    --------------------------------------------
      LOOP:  cpu time   32.2849: real time   32.2883

 eigenvalue-minimisations  : 18528
 total energy-change (2. order) :-0.4432863E-03  (-0.3843759E-04)
 number of electron     255.9999998 magnetization 
 augmentation part        6.1439697 magnetization 

 Broyden mixing:
  rms(total) = 0.80449E-03    rms(broyden)= 0.78760E-03
  rms(prec ) = 0.11882E-02
  weight for this iteration     100.00

 eigenvalues of (default mixing * dielectric matrix)
  average eigenvalue GAMMA=   1.9540
  2.9261  2.5493  2.0622  0.9901  1.2425

 Free energy of the ion-electron system (eV)
  ---------------------------------------------------
  alpha Z        PSCENC =       939.22059564
  Ewald energy   TEWEN  =    -11215.01059771
  -Hartree energ DENC   =      -833.65852645
  -exchange      EXHF   =         0.00000000
  -V(xc)+E(xc)   XCENC  =       946.39709411
  PAW double counting   =      4304.83395182    -4386.24207856
  entropy T*S    EENTRO =        -0.00000000
  eigenvalues    EBANDS =       246.96399840
  atomic energy  EATOM  =      9416.14232778
  Solvation  Ediel_sol  =         0.00000000
  ---------------------------------------------------
  free energy    TOTEN  =      -581.35323496 eV

  energy without entropy =     -581.35323496  energy(sigma->0) =     -581.35323496


--------------------------------------------------------------------------------------------------------




--------------------------------------- Iteration      1(  11)  ---------------------------------------


    POTLOK:  cpu time    0.0650: real time    0.0655
    SETDIJ:  cpu time    0.0404: real time    0.0404
     EDDAV:  cpu time   32.7919: real time   32.7949
       DOS:  cpu time    0.0039: real time    0.0039
    CHARGE:  cpu time    0.7529: real time    0.7530
    MIXING:  cpu time    0.0049: real time    0.0049
    --------------------------------------------
      LOOP:  cpu time   33.6592: real time   33.6627

 eigenvalue-minimisations  : 19968
 total energy-change (2. order) :-0.5591133E-05  (-0.1074358E-05)
 number of electron     255.9999998 magnetization 
 augmentation part        6.1437876 magnetization 

 Broyden mixing:
  rms(total) = 0.20335E-03    rms(broyden)= 0.19751E-03
  rms(prec ) = 0.26549E-03
  weight for this iteration     100.00

 eigenvalues of (default mixing * dielectric matrix)
  average eigenvalue GAMMA=   1.9981
  2.9705  2.5775  2.4227  2.0286  0.9946  0.9946

 Free energy of the ion-electron system (eV)
  ---------------------------------------------------
  alpha Z        PSCENC =       939.22059564
  Ewald energy   TEWEN  =    -11215.01059771
  -Hartree energ DENC   =      -833.77558521
  -exchange      EXHF   =         0.00000000
  -V(xc)+E(xc)   XCENC  =       946.40794237
  PAW double counting   =      4305.09895020    -4386.51177726
  entropy T*S    EENTRO =        -0.00000000
  eigenvalues    EBANDS =       247.07490363
  atomic energy  EATOM  =      9416.14232778
  Solvation  Ediel_sol  =         0.00000000
  ---------------------------------------------------
  free energy    TOTEN  =      -581.35324055 eV

  energy without entropy =     -581.35324055  energy(sigma->0) =     -581.35324055


--------------------------------------------------------------------------------------------------------




--------------------------------------- Iteration      1(  12)  ---------------------------------------


    POTLOK:  cpu time    0.0576: real time    0.0580
    SETDIJ:  cpu time    0.0415: real time    0.0415
     EDDAV:  cpu time   32.3660: real time   32.3690
       DOS:  cpu time    0.0041: real time    0.0041
    CHARGE:  cpu time    0.7455: real time    0.7456
    MIXING:  cpu time    0.0050: real time    0.0050
    --------------------------------------------
      LOOP:  cpu time   33.2197: real time   33.2231

 eigenvalue-minimisations  : 19744
 total energy-change (2. order) : 0.9472569E-07  (-0.3467157E-07)
 number of electron     255.9999998 magnetization 
 augmentation part        6.1438034 magnetization 

 Broyden mixing:
  rms(total) = 0.21909E-04    rms(broyden)= 0.20496E-04
  rms(prec ) = 0.30006E-04
  weight for this iteration     100.00

 eigenvalues of (default mixing * dielectric matrix)
  average eigenvalue GAMMA=   1.8782
  2.9284  2.6326  2.4984  2.0391  0.9755  1.0366  1.0366

 Free energy of the ion-electron system (eV)
  ---------------------------------------------------
  alpha Z        PSCENC =       939.22059564
  Ewald energy   TEWEN  =    -11215.01059771
  -Hartree energ DENC   =      -833.76053865
  -exchange      EXHF   =         0.00000000
  -V(xc)+E(xc)   XCENC  =       946.40655854
  PAW double counting   =      4305.17949896    -4386.59076094
  entropy T*S    EENTRO =        -0.00000000
  eigenvalues    EBANDS =       247.05967591
  atomic energy  EATOM  =      9416.14232778
  Solvation  Ediel_sol  =         0.00000000
  ---------------------------------------------------
  free energy    TOTEN  =      -581.35324046 eV

  energy without entropy =     -581.35324046  energy(sigma->0) =     -581.35324046


--------------------------------------------------------------------------------------------------------




--------------------------------------- Iteration      1(  13)  ---------------------------------------


    POTLOK:  cpu time    0.0615: real time    0.0619
    SETDIJ:  cpu time    0.0405: real time    0.0405
     EDDAV:  cpu time   27.1127: real time   27.1151
       DOS:  cpu time    0.0038: real time    0.0038
    CHARGE:  cpu time    0.7449: real time    0.7450
    MIXING:  cpu time    0.0050: real time    0.0050
    --------------------------------------------
      LOOP:  cpu time   27.9685: real time   27.9715

 eigenvalue-minimisations  : 14976
 total energy-change (2. order) :-0.6307891E-07  (-0.5145814E-09)
 number of electron     255.9999998 magnetization 
 augmentation part        6.1438022 magnetization 

 Broyden mixing:
  rms(total) = 0.44660E-05    rms(broyden)= 0.42227E-05
  rms(prec ) = 0.52237E-05
  weight for this iteration     100.00

 eigenvalues of (default mixing * dielectric matrix)
  average eigenvalue GAMMA=   1.9868
  2.0392  2.8951  2.8951  2.5843  2.5011  1.0064  1.0064  0.9671

 Free energy of the ion-electron system (eV)
  ---------------------------------------------------
  alpha Z        PSCENC =       939.22059564
  Ewald energy   TEWEN  =    -11215.01059771
  -Hartree energ DENC   =      -833.75821618
  -exchange      EXHF   =         0.00000000
  -V(xc)+E(xc)   XCENC  =       946.40633874
  PAW double counting   =      4305.17338814    -4386.58456253
  entropy T*S    EENTRO =        -0.00000000
  eigenvalues    EBANDS =       247.05748559
  atomic energy  EATOM  =      9416.14232778
  Solvation  Ediel_sol  =         0.00000000
  ---------------------------------------------------
  free energy    TOTEN  =      -581.35324052 eV

  energy without entropy =     -581.35324052  energy(sigma->0) =     -581.35324052


--------------------------------------------------------------------------------------------------------




--------------------------------------- Iteration      1(  14)  ---------------------------------------


    POTLOK:  cpu time    0.0573: real time    0.0577
    SETDIJ:  cpu time    0.0407: real time    0.0407
     EDDAV:  cpu time   24.6659: real time   24.6681
       DOS:  cpu time    0.0053: real time    0.0053
    CHARGE:  cpu time    0.7585: real time    0.7586
    MIXING:  cpu time    0.0051: real time    0.0051
    --------------------------------------------
      LOOP:  cpu time   25.5328: real time   25.5355

 eigenvalue-minimisations  : 13120
 total energy-change (2. order) :-0.2147317E-07  (-0.7269776E-10)
 number of electron     255.9999998 magnetization 
 augmentation part        6.1438026 magnetization 

 Broyden mixing:
  rms(total) = 0.18726E-05    rms(broyden)= 0.18584E-05
  rms(prec ) = 0.24837E-05
  weight for this iteration     100.00

 eigenvalues of (default mixing * dielectric matrix)
  average eigenvalue GAMMA=   1.8684
  2.8809  2.7992  2.5348  2.5300  2.0426  0.9711  0.9711  1.0430  1.0430

 Free energy of the ion-electron system (eV)
  ---------------------------------------------------
  alpha Z        PSCENC =       939.22059564
  Ewald energy   TEWEN  =    -11215.01059771
  -Hartree energ DENC   =      -833.75781283
  -exchange      EXHF   =         0.00000000
  -V(xc)+E(xc)   XCENC  =       946.40630168
  PAW double counting   =      4305.16820928    -4386.57936289
  entropy T*S    EENTRO =        -0.00000000
  eigenvalues    EBANDS =       247.05709850
  atomic energy  EATOM  =      9416.14232778
  Solvation  Ediel_sol  =         0.00000000
  ---------------------------------------------------
  free energy    TOTEN  =      -581.35324054 eV

  energy without entropy =     -581.35324054  energy(sigma->0) =     -581.35324054


--------------------------------------------------------------------------------------------------------




--------------------------------------- Iteration      1(  15)  ---------------------------------------


    POTLOK:  cpu time    0.0575: real time    0.0579
    SETDIJ:  cpu time    0.0409: real time    0.0409
     EDDAV:  cpu time   22.5844: real time   22.5865
       DOS:  cpu time    0.0045: real time    0.0045
    --------------------------------------------
      LOOP:  cpu time   22.6873: real time   22.6897

 eigenvalue-minimisations  : 11680
 total energy-change (2. order) :-0.8913048E-10  (-0.1458875E-10)
 number of electron     255.9999998 magnetization 
 augmentation part        6.1438026 magnetization 

 Free energy of the ion-electron system (eV)
  ---------------------------------------------------
  alpha Z        PSCENC =       939.22059564
  Ewald energy   TEWEN  =    -11215.01059771
  -Hartree energ DENC   =      -833.75795729
  -exchange      EXHF   =         0.00000000
  -V(xc)+E(xc)   XCENC  =       946.40631513
  PAW double counting   =      4305.16910244    -4386.58026920
  entropy T*S    EENTRO =        -0.00000000
  eigenvalues    EBANDS =       247.05724266
  atomic energy  EATOM  =      9416.14232778
  Solvation  Ediel_sol  =         0.00000000
  ---------------------------------------------------
  free energy    TOTEN  =      -581.35324054 eV

  energy without entropy =     -581.35324054  energy(sigma->0) =     -581.35324054


--------------------------------------------------------------------------------------------------------




 average (electrostatic) potential at core
  the test charge radii are     0.6991
  (the norm of the test charge is              1.0000)
       1 -45.0649       2 -45.0649       3 -45.0649       4 -45.0649       5 -45.0649
       6 -45.0649       7 -45.0649       8 -45.0649       9 -45.0649      10 -45.0649
      11 -45.0649      12 -45.0649      13 -45.0649      14 -45.0649      15 -45.0649
      16 -45.0649      17 -45.0649      18 -45.0649      19 -45.0649      20 -45.0649
      21 -45.0649      22 -45.0649      23 -45.0649      24 -45.0649      25 -45.0649
      26 -45.0649      27 -45.0649      28 -45.0649      29 -45.0649      30 -45.0649
      31 -45.0649      32 -45.0649      33 -45.0649      34 -45.0649      35 -45.0649
      36 -45.0649      37 -45.0649      38 -45.0649      39 -45.0649      40 -45.0649
      41 -45.0649      42 -45.0649      43 -45.0649      44 -45.0649      45 -45.0649
      46 -45.0649      47 -45.0649      48 -45.0649      49 -45.0649      50 -45.0649
      51 -45.0649      52 -45.0649      53 -45.0649      54 -45.0649      55 -45.0649
      56 -45.0649      57 -45.0649      58 -45.0649      59 -45.0649      60 -45.0649
      61 -45.0649      62 -45.0649      63 -45.0649      64 -45.0649
 
 
 
 E-fermi :  10.4701     XC(G=0): -13.3309     alpha+bet :-18.0811


 k-point     1 :       0.0000    0.0000    0.0000
  band No.  band energies     occupation 
      1     -11.6981      2.00000
      2      -9.4415      2.00000
      3      -9.4415      2.00000
      4      -9.3478      2.00000
      5      -9.3478      2.00000
      6      -9.3478      2.00000
      7      -9.3478      2.00000
      8      -7.1872      2.00000
[...]
      4.396833  0.879367  6.282499     0.004290   -0.065650   -0.000000  
      0.879367  4.396833  6.282499     0.004290   -0.065650    0.000000  
      4.396833  4.396833  6.282499     0.004290   -0.065650    0.000000  
      0.000000  1.758733  0.000000     0.126722   -0.017391    0.000000  
      3.517466  1.758733  0.000000     0.126722   -0.017391    0.000000  
      0.000000  5.276199  0.000000     0.126722   -0.017391   -0.000000  
      3.517466  5.276199  0.000000     0.126722   -0.017391   -0.000000  
      0.000000  1.758733  3.589999    -0.126722    0.017391    0.000000  
      3.517466  1.758733  3.589999    -0.126722    0.017391    0.000000  
      0.000000  5.276199  3.589999    -0.126722    0.017391   -0.000000  
      3.517466  5.276199  3.589999    -0.126722    0.017391   -0.000000  
      2.638100  2.638100  2.692500    -0.004290    0.065650    0.000000  
      6.155566  2.638100  2.692500    -0.004290    0.065650    0.000000  
      2.638100  6.155566  2.692500    -0.004290    0.065650   -0.000000  
      6.155566  6.155566  2.692500    -0.004290    0.065650   -0.000000  
      2.638100  2.638100  6.282499     0.004290   -0.065650    0.000000  
      6.155566  2.638100  6.282499     0.004290   -0.065650    0.000000  
      2.638100  6.155566  6.282499     0.004290   -0.065650   -0.000000  
      6.155566  6.155566  6.282499     0.004290   -0.065650   -0.000000  
      1.758733  0.000000  0.000000     0.126722   -0.017391   -0.000000  
      5.276199  0.000000  0.000000     0.126722   -0.017391   -0.000000  
      1.758733  3.517466  0.000000     0.126722   -0.017391    0.000000  
      5.276199  3.517466  0.000000     0.126722   -0.017391    0.000000  
      1.758733  0.000000  3.589999    -0.126722    0.017391   -0.000000  
      5.276199  0.000000  3.589999    -0.126722    0.017391   -0.000000  
      1.758733  3.517466  3.589999    -0.126722    0.017391    0.000000  
      5.276199  3.517466  3.589999    -0.126722    0.017391    0.000000  
      2.638100  0.879367  0.897500     0.164077   -0.000778   -0.000000  
      6.155566  0.879367  0.897500     0.164077   -0.000778   -0.000000  
      2.638100  4.396833  0.897500     0.164077   -0.000778    0.000000  
      6.155566  4.396833  0.897500     0.164077   -0.000778    0.000000  
      2.638100  0.879367  4.487499    -0.164077    0.000778   -0.000000  
      6.155566  0.879367  4.487499    -0.164077    0.000778   -0.000000  
      2.638100  4.396833  4.487499    -0.164077    0.000778    0.000000  
      6.155566  4.396833  4.487499    -0.164077    0.000778    0.000000  
      1.758733  1.758733  1.795000     0.121118    0.014816   -0.000000  
      5.276199  1.758733  1.795000     0.121118    0.014816    0.000000  
      1.758733  5.276199  1.795000     0.121118    0.014816   -0.000000  
      5.276199  5.276199  1.795000     0.121118    0.014816    0.000000  
      1.758733  1.758733  5.384999    -0.121118   -0.014816   -0.000000  
      5.276199  1.758733  5.384999    -0.121118   -0.014816    0.000000  
      1.758733  5.276199  5.384999    -0.121118   -0.014816   -0.000000  
      5.276199  5.276199  5.384999    -0.121118   -0.014816    0.000000  
 
 190 f/i=    0.000002 THz     0.000015 2PiTHz    0.000082 cm-1     0.000010 meV
             X         Y         Z           dx          dy          dz
      0.879367  2.638100  0.897500     0.092153    0.084456    0.000197  
      4.396833  2.638100  0.897500     0.092153    0.084456    0.000197  
      0.879367  6.155566  0.897500     0.092153    0.084456    0.000197  
      4.396833  6.155566  0.897500     0.092153    0.084456    0.000197  
      0.879367  2.638100  4.487499     0.092153    0.084456    0.000197  
      4.396833  2.638100  4.487499     0.092153    0.084456    0.000197  
      0.879367  6.155566  4.487499     0.092153    0.084456    0.000197  
      4.396833  6.155566  4.487499     0.092153    0.084456    0.000197  
      0.000000  0.000000  1.795000     0.092153    0.084456    0.000197  
      3.517466  0.000000  1.795000     0.092153    0.084456    0.000197  
      0.000000  3.517466  1.795000     0.092153    0.084456    0.000197  
      3.517466  3.517466  1.795000     0.092153    0.084456    0.000197  
      0.000000  0.000000  5.384999     0.092153    0.084456    0.000197  
      3.517466  0.000000  5.384999     0.092153    0.084456    0.000197  
      0.000000  3.517466  5.384999     0.092153    0.084456    0.000197  
      3.517466  3.517466  5.384999     0.092153    0.084456    0.000197  
      0.879367  0.879367  2.692500     0.092153    0.084456    0.000197  
      4.396833  0.879367  2.692500     0.092153    0.084456    0.000197  
      0.879367  4.396833  2.692500     0.092153    0.084456    0.000197  
      4.396833  4.396833  2.692500     0.092153    0.084456    0.000197  
      0.879367  0.879367  6.282499     0.092153    0.084456    0.000197  
      4.396833  0.879367  6.282499     0.092153    0.084456    0.000197  
      0.879367  4.396833  6.282499     0.092153    0.084456    0.000197  
      4.396833  4.396833  6.282499     0.092153    0.084456    0.000197  
      0.000000  1.758733  0.000000     0.092153    0.084456    0.000197  
      3.517466  1.758733  0.000000     0.092153    0.084456    0.000197  
      0.000000  5.276199  0.000000     0.092153    0.084456    0.000197  
      3.517466  5.276199  0.000000     0.092153    0.084456    0.000197  
      0.000000  1.758733  3.589999     0.092153    0.084456    0.000197  
      3.517466  1.758733  3.589999     0.092153    0.084456    0.000197  
      0.000000  5.276199  3.589999     0.092153    0.084456    0.000197  
      3.517466  5.276199  3.589999     0.092153    0.084456    0.000197  
      2.638100  2.638100  2.692500     0.092153    0.084456    0.000197  
      6.155566  2.638100  2.692500     0.092153    0.084456    0.000197  
      2.638100  6.155566  2.692500     0.092153    0.084456    0.000197  
      6.155566  6.155566  2.692500     0.092153    0.084456    0.000197  
      2.638100  2.638100  6.282499     0.092153    0.084456    0.000197  
      6.155566  2.638100  6.282499     0.092153    0.084456    0.000197  
      2.638100  6.155566  6.282499     0.092153    0.084456    0.000197  
      6.155566  6.155566  6.282499     0.092153    0.084456    0.000197  
      1.758733  0.000000  0.000000     0.092153    0.084456    0.000197  
      5.276199  0.000000  0.000000     0.092153    0.084456    0.000197  
      1.758733  3.517466  0.000000     0.092153    0.084456    0.000197  
      5.276199  3.517466  0.000000     0.092153    0.084456    0.000197  
      1.758733  0.000000  3.589999     0.092153    0.084456    0.000197  
      5.276199  0.000000  3.589999     0.092153    0.084456    0.000197  
      1.758733  3.517466  3.589999     0.092153    0.084456    0.000197  
      5.276199  3.517466  3.589999     0.092153    0.084456    0.000197  
      2.638100  0.879367  0.897500     0.092153    0.084456    0.000197  
      6.155566  0.879367  0.897500     0.092153    0.084456    0.000197  
      2.638100  4.396833  0.897500     0.092153    0.084456    0.000197  
      6.155566  4.396833  0.897500     0.092153    0.084456    0.000197  
      2.638100  0.879367  4.487499     0.092153    0.084456    0.000197  
      6.155566  0.879367  4.487499     0.092153    0.084456    0.000197  
      2.638100  4.396833  4.487499     0.092153    0.084456    0.000197  
      6.155566  4.396833  4.487499     0.092153    0.084456    0.000197  
      1.758733  1.758733  1.795000     0.092153    0.084456    0.000197  
      5.276199  1.758733  1.795000     0.092153    0.084456    0.000197  
      1.758733  5.276199  1.795000     0.092153    0.084456    0.000197  
      5.276199  5.276199  1.795000     0.092153    0.084456    0.000197  
      1.758733  1.758733  5.384999     0.092153    0.084456    0.000197  
      5.276199  1.758733  5.384999     0.092153    0.084456    0.000197  
      1.758733  5.276199  5.384999     0.092153    0.084456    0.000197  
      5.276199  5.276199  5.384999     0.092153    0.084456    0.000197  
 
 191 f/i=    0.000003 THz     0.000018 2PiTHz    0.000094 cm-1     0.000012 meV
             X         Y         Z           dx          dy          dz
      0.879367  2.638100  0.897500    -0.084456    0.092153    0.000031  
      4.396833  2.638100  0.897500    -0.084456    0.092153    0.000031  
      0.879367  6.155566  0.897500    -0.084456    0.092153    0.000031  
      4.396833  6.155566  0.897500    -0.084456    0.092153    0.000031  
      0.879367  2.638100  4.487499    -0.084456    0.092153    0.000031  
      4.396833  2.638100  4.487499    -0.084456    0.092153    0.000031  
      0.879367  6.155566  4.487499    -0.084456    0.092153    0.000031  
      4.396833  6.155566  4.487499    -0.084456    0.092153    0.000031  
      0.000000  0.000000  1.795000    -0.084456    0.092153    0.000031  
      3.517466  0.000000  1.795000    -0.084456    0.092153    0.000031  
      0.000000  3.517466  1.795000    -0.084456    0.092153    0.000031  
      3.517466  3.517466  1.795000    -0.084456    0.092153    0.000031  
      0.000000  0.000000  5.384999    -0.084456    0.092153    0.000031  
      3.517466  0.000000  5.384999    -0.084456    0.092153    0.000031  
      0.000000  3.517466  5.384999    -0.084456    0.092153    0.000031  
      3.517466  3.517466  5.384999    -0.084456    0.092153    0.000031  
      0.879367  0.879367  2.692500    -0.084456    0.092153    0.000031  
      4.396833  0.879367  2.692500    -0.084456    0.092153    0.000031  
      0.879367  4.396833  2.692500    -0.084456    0.092153    0.000031  
      4.396833  4.396833  2.692500    -0.084456    0.092153    0.000031  
      0.879367  0.879367  6.282499    -0.084456    0.092153    0.000031  
      4.396833  0.879367  6.282499    -0.084456    0.092153    0.000031  
      0.879367  4.396833  6.282499    -0.084456    0.092153    0.000031  
      4.396833  4.396833  6.282499    -0.084456    0.092153    0.000031  
      0.000000  1.758733  0.000000    -0.084456    0.092153    0.000031  
      3.517466  1.758733  0.000000    -0.084456    0.092153    0.000031  
      0.000000  5.276199  0.000000    -0.084456    0.092153    0.000031  
      3.517466  5.276199  0.000000    -0.084456    0.092153    0.000031  
      0.000000  1.758733  3.589999    -0.084456    0.092153    0.000031  
      3.517466  1.758733  3.589999    -0.084456    0.092153    0.000031  
      0.000000  5.276199  3.589999    -0.084456    0.092153    0.000031  
      3.517466  5.276199  3.589999    -0.084456    0.092153    0.000031  
      2.638100  2.638100  2.692500    -0.084456    0.092153    0.000031  
      6.155566  2.638100  2.692500    -0.084456    0.092153    0.000031  
      2.638100  6.155566  2.692500    -0.084456    0.092153    0.000031  
      6.155566  6.155566  2.692500    -0.084456    0.092153    0.000031  
      2.638100  2.638100  6.282499    -0.084456    0.092153    0.000031  
      6.155566  2.638100  6.282499    -0.084456    0.092153    0.000031  
      2.638100  6.155566  6.282499    -0.084456    0.092153    0.000031  
      6.155566  6.155566  6.282499    -0.084456    0.092153    0.000031  
      1.758733  0.000000  0.000000    -0.084456    0.092153    0.000031  
      5.276199  0.000000  0.000000    -0.084456    0.092153    0.000031  
      1.758733  3.517466  0.000000    -0.084456    0.092153    0.000031  
      5.276199  3.517466  0.000000    -0.084456    0.092153    0.000031  
      1.758733  0.000000  3.589999    -0.084456    0.092153    0.000031  
      5.276199  0.000000  3.589999    -0.084456    0.092153    0.000031  
      1.758733  3.517466  3.589999    -0.084456    0.092153    0.000031  
      5.276199  3.517466  3.589999    -0.084456    0.092153    0.000031  
      2.638100  0.879367  0.897500    -0.084456    0.092153    0.000031  
      6.155566  0.879367  0.897500    -0.084456    0.092153    0.000031  
      2.638100  4.396833  0.897500    -0.084456    0.092153    0.000031  
      6.155566  4.396833  0.897500    -0.084456    0.092153    0.000031  
      2.638100  0.879367  4.487499    -0.084456    0.092153    0.000031  
      6.155566  0.879367  4.487499    -0.084456    0.092153    0.000031  
      2.638100  4.396833  4.487499    -0.084456    0.092153    0.000031  
      6.155566  4.396833  4.487499    -0.084456    0.092153    0.000031  
      1.758733  1.758733  1.795000    -0.084456    0.092153    0.000031  
      5.276199  1.758733  1.795000    -0.084456    0.092153    0.000031  
      1.758733  5.276199  1.795000    -0.084456    0.092153    0.000031  
      5.276199  5.276199  1.795000    -0.084456    0.092153    0.000031  
      1.758733  1.758733  5.384999    -0.084456    0.092153    0.000031  
      5.276199  1.758733  5.384999    -0.084456    0.092153    0.000031  
      1.758733  5.276199  5.384999    -0.084456    0.092153    0.000031  
      5.276199  5.276199  5.384999    -0.084456    0.092153    0.000031  
 
 192 f/i=    0.000003 THz     0.000019 2PiTHz    0.000101 cm-1     0.000013 meV
             X         Y         Z           dx          dy          dz
      0.879367  2.638100  0.897500    -0.000125   -0.000156    0.125000  
      4.396833  2.638100  0.897500    -0.000125   -0.000156    0.125000  
      0.879367  6.155566  0.897500    -0.000125   -0.000156    0.125000  
      4.396833  6.155566  0.897500    -0.000125   -0.000156    0.125000  
      0.879367  2.638100  4.487499    -0.000125   -0.000156    0.125000  
      4.396833  2.638100  4.487499    -0.000125   -0.000156    0.125000  
      0.879367  6.155566  4.487499    -0.000125   -0.000156    0.125000  
      4.396833  6.155566  4.487499    -0.000125   -0.000156    0.125000  
      0.000000  0.000000  1.795000    -0.000125   -0.000156    0.125000  
      3.517466  0.000000  1.795000    -0.000125   -0.000156    0.125000  
      0.000000  3.517466  1.795000    -0.000125   -0.000156    0.125000  
      3.517466  3.517466  1.795000    -0.000125   -0.000156    0.125000  
      0.000000  0.000000  5.384999    -0.000125   -0.000156    0.125000  
      3.517466  0.000000  5.384999    -0.000125   -0.000156    0.125000  
      0.000000  3.517466  5.384999    -0.000125   -0.000156    0.125000  
      3.517466  3.517466  5.384999    -0.000125   -0.000156    0.125000  
      0.879367  0.879367  2.692500    -0.000125   -0.000156    0.125000  
      4.396833  0.879367  2.692500    -0.000125   -0.000156    0.125000  
      0.879367  4.396833  2.692500    -0.000125   -0.000156    0.125000  
      4.396833  4.396833  2.692500    -0.000125   -0.000156    0.125000  
      0.879367  0.879367  6.282499    -0.000125   -0.000156    0.125000  
      4.396833  0.879367  6.282499    -0.000125   -0.000156    0.125000  
      0.879367  4.396833  6.282499    -0.000125   -0.000156    0.125000  
      4.396833  4.396833  6.282499    -0.000125   -0.000156    0.125000  
      0.000000  1.758733  0.000000    -0.000125   -0.000156    0.125000  
      3.517466  1.758733  0.000000    -0.000125   -0.000156    0.125000  
      0.000000  5.276199  0.000000    -0.000125   -0.000156    0.125000  
      3.517466  5.276199  0.000000    -0.000125   -0.000156    0.125000  
      0.000000  1.758733  3.589999    -0.000125   -0.000156    0.125000  
      3.517466  1.758733  3.589999    -0.000125   -0.000156    0.125000  
      0.000000  5.276199  3.589999    -0.000125   -0.000156    0.125000  
      3.517466  5.276199  3.589999    -0.000125   -0.000156    0.125000  
      2.638100  2.638100  2.692500    -0.000125   -0.000156    0.125000  
      6.155566  2.638100  2.692500    -0.000125   -0.000156    0.125000  
      2.638100  6.155566  2.692500    -0.000125   -0.000156    0.125000  
      6.155566  6.155566  2.692500    -0.000125   -0.000156    0.125000  
      2.638100  2.638100  6.282499    -0.000125   -0.000156    0.125000  
      6.155566  2.638100  6.282499    -0.000125   -0.000156    0.125000  
      2.638100  6.155566  6.282499    -0.000125   -0.000156    0.125000  
      6.155566  6.155566  6.282499    -0.000125   -0.000156    0.125000  
      1.758733  0.000000  0.000000    -0.000125   -0.000156    0.125000  
      5.276199  0.000000  0.000000    -0.000125   -0.000156    0.125000  
      1.758733  3.517466  0.000000    -0.000125   -0.000156    0.125000  
      5.276199  3.517466  0.000000    -0.000125   -0.000156    0.125000  
      1.758733  0.000000  3.589999    -0.000125   -0.000156    0.125000  
      5.276199  0.000000  3.589999    -0.000125   -0.000156    0.125000  
      1.758733  3.517466  3.589999    -0.000125   -0.000156    0.125000  
      5.276199  3.517466  3.589999    -0.000125   -0.000156    0.125000  
      2.638100  0.879367  0.897500    -0.000125   -0.000156    0.125000  
      6.155566  0.879367  0.897500    -0.000125   -0.000156    0.125000  
      2.638100  4.396833  0.897500    -0.000125   -0.000156    0.125000  
      6.155566  4.396833  0.897500    -0.000125   -0.000156    0.125000  
      2.638100  0.879367  4.487499    -0.000125   -0.000156    0.125000  
      6.155566  0.879367  4.487499    -0.000125   -0.000156    0.125000  
      2.638100  4.396833  4.487499    -0.000125   -0.000156    0.125000  
      6.155566  4.396833  4.487499    -0.000125   -0.000156    0.125000  
      1.758733  1.758733  1.795000    -0.000125   -0.000156    0.125000  
      5.276199  1.758733  1.795000    -0.000125   -0.000156    0.125000  
      1.758733  5.276199  1.795000    -0.000125   -0.000156    0.125000  
      5.276199  5.276199  1.795000    -0.000125   -0.000156    0.125000  
      1.758733  1.758733  5.384999    -0.000125   -0.000156    0.125000  
      5.276199  1.758733  5.384999    -0.000125   -0.000156    0.125000  
      1.758733  5.276199  5.384999    -0.000125   -0.000156    0.125000  
      5.276199  5.276199  5.384999    -0.000125   -0.000156    0.125000  
 


--------------------------------------------------------------------------------------------------------



 ELASTIC MODULI CONTR FROM IONIC RELAXATION (kBar)
 Direction    XX          YY          ZZ          XY          YZ          ZX
 --------------------------------------------------------------------------------
 XX          -0.0000     -0.0000     -0.0000     -0.0000     -0.0000     -0.0000
 YY          -0.0000     -0.0000     -0.0000     -0.0000     -0.0000      0.0000
 ZZ          -0.0000     -0.0000     -0.0000     -0.0000     -0.0000     -0.0000
 XY          -0.0000     -0.0000     -0.0000    -76.5110     -0.0000     -0.0000
 YZ          -0.0000     -0.0000     -0.0000     -0.0000    -87.8567     -0.0000
 ZX          -0.0000      0.0000     -0.0000     -0.0000     -0.0000    -87.8563
 --------------------------------------------------------------------------------



--------------------------------------------------------------------------------------------------------


     LOOP+:  cpu time 1969.3011: real time 1969.8333
    4ORBIT:  cpu time    0.0000: real time    0.0000

 total amount of memory used by VASP MPI-rank0    90730. kBytes
=======================================================================

   base      :      30000. kBytes
   nonl-proj :      23281. kBytes
   fftplans  :       4537. kBytes
   grid      :       5806. kBytes
   one-center:        196. kBytes
   wavefun   :      26910. kBytes
 
  
  
 General timing and accounting informations for this job:
 ========================================================
  
                  Total CPU time used (sec):     1983.339
                            User time (sec):     1973.400
                          System time (sec):        9.939
                         Elapsed time (sec):     1983.974
  
                   Maximum memory used (kb):      475436.
                   Average memory used (kb):           0.
  
                          Minor page faults:        39335
                          Major page faults:           35
                 Voluntary context switches:          870
