# Thermal properties / unit cell (natom)

unit:
  temperature:   K
  free_energy:   kJ/mol
  entropy:       J/K/mol
  heat_capacity: J/K/mol

natom: 8    
cutoff_frequency:    0.000
num_modes: 2654208
num_integrated_modes: 2654208

zero_point_energy:     141.8805603
high_T_entropy:        428.7947097

thermal_properties:
- temperature:         0.0000000
  free_energy:       141.8805603
  entropy:             0.0000000
  heat_capacity:       0.0000000
  energy:            141.8805603

- temperature:         2.0000000
  free_energy:       141.8805603
  entropy:             0.0000000
  heat_capacity:       0.0000000
  energy:            141.8805603

- temperature:         4.0000000
  free_energy:       141.8805603
  entropy:             0.0000075
  heat_capacity:       0.0000479
  energy:            141.8805604

- temperature:         6.0000000
  free_energy:       141.8805603
  entropy:             0.0000636
  heat_capacity:       0.0002782
  energy:            141.8805607

- temperature:         8.0000000
  free_energy:       141.8805600
  entropy:             0.0001987
  heat_capacity:       0.0007206
  energy:            141.8805616

- temperature:        10.0000000
  free_energy:       141.8805594
  entropy:             0.0004301
  heat_capacity:       0.0014301
  energy:            141.8805637

- temperature:        12.0000000
  free_energy:       141.8805582
  entropy:             0.0007780
  heat_capacity:       0.0024807
  energy:            141.8805676

- temperature:        14.0000000
  free_energy:       141.8805562
  entropy:             0.0012646
  heat_capacity:       0.0039461
  energy:            141.8805739

- temperature:        16.0000000
  free_energy:       141.8805531
  entropy:             0.0019132
  heat_capacity:       0.0058989
  energy:            141.8805837

- temperature:        18.0000000
  free_energy:       141.8805484
  entropy:             0.0027472
  heat_capacity:       0.0084118
  energy:            141.8805979

- temperature:        20.0000000
  free_energy:       141.8805419
  entropy:             0.0037905
  heat_capacity:       0.0115583
  energy:            141.8806177

- temperature:        22.0000000
  free_energy:       141.8805331
  entropy:             0.0050670
  heat_capacity:       0.0154128
  energy:            141.8806446

- temperature:        24.0000000
  free_energy:       141.8805215
  entropy:             0.0066010
  heat_capacity:       0.0200513
  energy:            141.8806799

- temperature:        26.0000000
  free_energy:       141.8805065
  entropy:             0.0084171
  heat_capacity:       0.0255512
  energy:            141.8807254

- temperature:        28.0000000
  free_energy:       141.8804876
  entropy:             0.0105403
  heat_capacity:       0.0319917
  energy:            141.8807828

- temperature:        30.0000000
  free_energy:       141.8804641
  entropy:             0.0129958
  heat_capacity:       0.0394539
  energy:            141.8808540

- temperature:        32.0000000
  free_energy:       141.8804354
  entropy:             0.0158095
  heat_capacity:       0.0480215
  energy:            141.8809413

- temperature:        34.0000000
  free_energy:       141.8804007
  entropy:             0.0190073
  heat_capacity:       0.0577806
  energy:            141.8810469

- temperature:        36.0000000
  free_energy:       141.8803591
  entropy:             0.0226162
  heat_capacity:       0.0688204
  energy:            141.8811733

- temperature:        38.0000000
  free_energy:       141.8803099
  entropy:             0.0266632
  heat_capacity:       0.0812336
  energy:            141.8813231

- temperature:        40.0000000
  free_energy:       141.8802521
  entropy:             0.0311765
  heat_capacity:       0.0951170
  energy:            141.8814992

- temperature:        42.0000000
  free_energy:       141.8801849
  entropy:             0.0361846
  heat_capacity:       0.1105718
  energy:            141.8817046

- temperature:        44.0000000
  free_energy:       141.8801070
  entropy:             0.0417171
  heat_capacity:       0.1277048
  energy:            141.8819426

- temperature:        46.0000000
  free_energy:       141.8800176
  entropy:             0.0478045
  heat_capacity:       0.1466290
  energy:            141.8822166

- temperature:        48.0000000
  free_energy:       141.8799154
  entropy:             0.0544782
  heat_capacity:       0.1674641
  energy:            141.8825304

- temperature:        50.0000000
  free_energy:       141.8797993
  entropy:             0.0617709
  heat_capacity:       0.1903378
  energy:            141.8828878

- temperature:        52.0000000
  free_energy:       141.8796679
  entropy:             0.0697168
  heat_capacity:       0.2153860
  energy:            141.8832932

- temperature:        54.0000000
  free_energy:       141.8795200
  entropy:             0.0783512
  heat_capacity:       0.2427539
  energy:            141.8837509

- temperature:        56.0000000
  free_energy:       141.8793540
  entropy:             0.0877112
  heat_capacity:       0.2725959
  energy:            141.8842659

- temperature:        58.0000000
  free_energy:       141.8791686
  entropy:             0.0978355
  heat_capacity:       0.3050765
  energy:            141.8848431

- temperature:        60.0000000
  free_energy:       141.8789622
  entropy:             0.1087648
  heat_capacity:       0.3403698
  energy:            141.8854880

- temperature:        62.0000000
  free_energy:       141.8787330
  entropy:             0.1205413
  heat_capacity:       0.3786594
  energy:            141.8862066

- temperature:        64.0000000
  free_energy:       141.8784794
  entropy:             0.1332095
  heat_capacity:       0.4201386
  energy:            141.8870048

- temperature:        66.0000000
  free_energy:       141.8781995
  entropy:             0.1468157
  heat_capacity:       0.4650086
  energy:            141.8878894

- temperature:        68.0000000
  free_energy:       141.8778915
  entropy:             0.1614083
  heat_capacity:       0.5134790
  energy:            141.8888672

- temperature:        70.0000000
  free_energy:       141.8775532
  entropy:             0.1770375
  heat_capacity:       0.5657655
  energy:            141.8899458

- temperature:        72.0000000
  free_energy:       141.8771826
  entropy:             0.1937555
  heat_capacity:       0.6220895
  energy:            141.8911330

- temperature:        74.0000000
  free_energy:       141.8767774
  entropy:             0.2116163
  heat_capacity:       0.6826767
  energy:            141.8924370

- temperature:        76.0000000
  free_energy:       141.8763353
  entropy:             0.2306758
  heat_capacity:       0.7477554
  energy:            141.8938667

- temperature:        78.0000000
  free_energy:       141.8758539
  entropy:             0.2509912
  heat_capacity:       0.8175554
  energy:            141.8954312

- temperature:        80.0000000
  free_energy:       141.8753305
  entropy:             0.2726215
  heat_capacity:       0.8923062
  energy:            141.8971402

- temperature:        82.0000000
  free_energy:       141.8747625
  entropy:             0.2956268
  heat_capacity:       0.9722359
  energy:            141.8990039

- temperature:        84.0000000
  free_energy:       141.8741470
  entropy:             0.3200682
  heat_capacity:       1.0575696
  energy:            141.9010328

- temperature:        86.0000000
  free_energy:       141.8734812
  entropy:             0.3460081
  heat_capacity:       1.1485283
  energy:            141.9032379

- temperature:        88.0000000
  free_energy:       141.8727620
  entropy:             0.3735092
  heat_capacity:       1.2453275
  energy:            141.9056308

- temperature:        90.0000000
  free_energy:       141.8719861
  entropy:             0.4026351
  heat_capacity:       1.3481761
  energy:            141.9082232

- temperature:        92.0000000
  free_energy:       141.8711503
  entropy:             0.4334495
  heat_capacity:       1.4572754
  energy:            141.9110276

- temperature:        94.0000000
  free_energy:       141.8702511
  entropy:             0.4660162
  heat_capacity:       1.5728184
  energy:            141.9140566

- temperature:        96.0000000
  free_energy:       141.8692850
  entropy:             0.5003992
  heat_capacity:       1.6949889
  energy:            141.9173233

- temperature:        98.0000000
  free_energy:       141.8682483
  entropy:             0.5366619
  heat_capacity:       1.8239608
  energy:            141.9208411

- temperature:       100.0000000
  free_energy:       141.8671371
  entropy:             0.5748675
  heat_capacity:       1.9598979
  energy:            141.9246238

- temperature:       102.0000000
  free_energy:       141.8659475
  entropy:             0.6150785
  heat_capacity:       2.1029533
  energy:            141.9286855

- temperature:       104.0000000
  free_energy:       141.8646754
  entropy:             0.6573567
  heat_capacity:       2.2532692
  energy:            141.9330405

- temperature:       106.0000000
  free_energy:       141.8633166
  entropy:             0.7017628
  heat_capacity:       2.4109770
  energy:            141.9377035

- temperature:       108.0000000
  free_energy:       141.8618669
  entropy:             0.7483567
  heat_capacity:       2.5761968
  energy:            141.9426894

- temperature:       110.0000000
  free_energy:       141.8603217
  entropy:             0.7971968
  heat_capacity:       2.7490377
  energy:            141.9480133

- temperature:       112.0000000
  free_energy:       141.8586765
  entropy:             0.8483405
  heat_capacity:       2.9295982
  energy:            141.9536907

- temperature:       114.0000000
  free_energy:       141.8569268
  entropy:             0.9018437
  heat_capacity:       3.1179659
  energy:            141.9597369

- temperature:       116.0000000
  free_energy:       141.8550676
  entropy:             0.9577607
  heat_capacity:       3.3142181
  energy:            141.9661678

- temperature:       118.0000000
  free_energy:       141.8530941
  entropy:             1.0161444
  heat_capacity:       3.5184217
  energy:            141.9729991

- temperature:       120.0000000
  free_energy:       141.8510013
  entropy:             1.0770461
  heat_capacity:       3.7306342
  energy:            141.9802468

- temperature:       122.0000000
  free_energy:       141.8487842
  entropy:             1.1405152
  heat_capacity:       3.9509033
  energy:            141.9879270

- temperature:       124.0000000
  free_energy:       141.8464375
  entropy:             1.2065995
  heat_capacity:       4.1792679
  energy:            141.9960558

- temperature:       126.0000000
  free_energy:       141.8439560
  entropy:             1.2753453
  heat_capacity:       4.4157583
  energy:            142.0046495

- temperature:       128.0000000
  free_energy:       141.8413343
  entropy:             1.3467968
  heat_capacity:       4.6603962
  energy:            142.0137243

- temperature:       130.0000000
  free_energy:       141.8385670
  entropy:             1.4209966
  heat_capacity:       4.9131958
  energy:            142.0232965

- temperature:       132.0000000
  free_energy:       141.8356485
  entropy:             1.4979854
  heat_capacity:       5.1741638
  energy:            142.0333825

- temperature:       134.0000000
  free_energy:       141.8325732
  entropy:             1.5778021
  heat_capacity:       5.4432998
  energy:            142.0439986

- temperature:       136.0000000
  free_energy:       141.8293353
  entropy:             1.6604840
  heat_capacity:       5.7205967
  energy:            142.0551612

- temperature:       138.0000000
  free_energy:       141.8259293
  entropy:             1.7460665
  heat_capacity:       6.0060414
  energy:            142.0668865

- temperature:       140.0000000
  free_energy:       141.8223491
  entropy:             1.8345831
  heat_capacity:       6.2996145
  energy:            142.0791908

- temperature:       142.0000000
  free_energy:       141.8185890
  entropy:             1.9260658
  heat_capacity:       6.6012914
  energy:            142.0920903

- temperature:       144.0000000
  free_energy:       141.8146429
  entropy:             2.0205447
  heat_capacity:       6.9110418
  energy:            142.1056013

- temperature:       146.0000000
  free_energy:       141.8105048
  entropy:             2.1180484
  heat_capacity:       7.2288308
  energy:            142.1197398

- temperature:       148.0000000
  free_energy:       141.8061686
  entropy:             2.2186035
  heat_capacity:       7.5546187
  energy:            142.1345220

- temperature:       150.0000000
  free_energy:       141.8016283
  entropy:             2.3222354
  heat_capacity:       7.8883614
  energy:            142.1499636

- temperature:       152.0000000
  free_energy:       141.7968776
  entropy:             2.4289674
  heat_capacity:       8.2300106
  energy:            142.1660807

- temperature:       154.0000000
  free_energy:       141.7919104
  entropy:             2.5388217
  heat_capacity:       8.5795140
  energy:            142.1828889

- temperature:       156.0000000
  free_energy:       141.7867202
  entropy:             2.6518185
  heat_capacity:       8.9368157
  energy:            142.2004039

- temperature:       158.0000000
  free_energy:       141.7813010
  entropy:             2.7679768
  heat_capacity:       9.3018561
  energy:            142.2186413

- temperature:       160.0000000
  free_energy:       141.7756462
  entropy:             2.8873141
  heat_capacity:       9.6745723
  energy:            142.2376165

- temperature:       162.0000000
  free_energy:       141.7697496
  entropy:             3.0098462
  heat_capacity:      10.0548982
  energy:            142.2573447

- temperature:       164.0000000
  free_energy:       141.7636047
  entropy:             3.1355878
  heat_capacity:      10.4427647
  energy:            142.2778411

- temperature:       166.0000000
  free_energy:       141.7572051
  entropy:             3.2645520
  heat_capacity:      10.8380995
  energy:            142.2991207

- temperature:       168.0000000
  free_energy:       141.7505443
  entropy:             3.3967505
  heat_capacity:      11.2408279
  energy:            142.3211984

- temperature:       170.0000000
  free_energy:       141.7436159
  entropy:             3.5321940
  heat_capacity:      11.6508723
  energy:            142.3440889

- temperature:       172.0000000
  free_energy:       141.7364134
  entropy:             3.6708916
  heat_capacity:      12.0681525
  energy:            142.3678067

- temperature:       174.0000000
  free_energy:       141.7289302
  entropy:             3.8128512
  heat_capacity:      12.4925859
  energy:            142.3923663

- temperature:       176.0000000
  free_energy:       141.7211598
  entropy:             3.9580795
  heat_capacity:      12.9240876
  energy:            142.4177818

- temperature:       178.0000000
  free_energy:       141.7130957
  entropy:             4.1065821
  heat_capacity:      13.3625702
  energy:            142.4440673

- temperature:       180.0000000
  free_energy:       141.7047313
  entropy:             4.2583632
  heat_capacity:      13.8079443
  energy:            142.4712367

- temperature:       182.0000000
  free_energy:       141.6960600
  entropy:             4.4134261
  heat_capacity:      14.2601184
  energy:            142.4993036

- temperature:       184.0000000
  free_energy:       141.6870754
  entropy:             4.5717729
  heat_capacity:      14.7189987
  energy:            142.5282816

- temperature:       186.0000000
  free_energy:       141.6777708
  entropy:             4.7334045
  heat_capacity:      15.1844897
  energy:            142.5581840

- temperature:       188.0000000
  free_energy:       141.6681396
  entropy:             4.8983209
  heat_capacity:      15.6564941
  energy:            142.5890239

- temperature:       190.0000000
  free_energy:       141.6581753
  entropy:             5.0665209
  heat_capacity:      16.1349124
  energy:            142.6208143

- temperature:       192.0000000
  free_energy:       141.6478713
  entropy:             5.2380024
  heat_capacity:      16.6196436
  energy:            142.6535678

- temperature:       194.0000000
  free_energy:       141.6372211
  entropy:             5.4127623
  heat_capacity:      17.1105852
  energy:            142.6872970

- temperature:       196.0000000
  free_energy:       141.6262181
  entropy:             5.5907964
  heat_capacity:      17.6076329
  energy:            142.7220142

- temperature:       198.0000000
  free_energy:       141.6148557
  entropy:             5.7720999
  heat_capacity:      18.1106807
  energy:            142.7577315

- temperature:       200.0000000
  free_energy:       141.6031275
  entropy:             5.9566666
  heat_capacity:      18.6196216
  energy:            142.7944608

- temperature:       202.0000000
  free_energy:       141.5910269
  entropy:             6.1444899
  heat_capacity:      19.1343469
  energy:            142.8322138

- temperature:       204.0000000
  free_energy:       141.5785474
  entropy:             6.3355619
  heat_capacity:      19.6547466
  energy:            142.8710020

- temperature:       206.0000000
  free_energy:       141.5656825
  entropy:             6.5298741
  heat_capacity:      20.1807097
  energy:            142.9108365

- temperature:       208.0000000
  free_energy:       141.5524257
  entropy:             6.7274170
  heat_capacity:      20.7121239
  energy:            142.9517285

- temperature:       210.0000000
  free_energy:       141.5387707
  entropy:             6.9281806
  heat_capacity:      21.2488758
  energy:            142.9936886

- temperature:       212.0000000
  free_energy:       141.5247109
  entropy:             7.1321537
  heat_capacity:      21.7908512
  energy:            143.0367275

- temperature:       214.0000000
  free_energy:       141.5102399
  entropy:             7.3393247
  heat_capacity:      22.3379346
  energy:            143.0808554

- temperature:       216.0000000
  free_energy:       141.4953514
  entropy:             7.5496809
  heat_capacity:      22.8900101
  energy:            143.1260825

- temperature:       218.0000000
  free_energy:       141.4800391
  entropy:             7.7632092
  heat_capacity:      23.4469608
  energy:            143.1724187

- temperature:       220.0000000
  free_energy:       141.4642965
  entropy:             7.9798956
  heat_capacity:      24.0086691
  energy:            143.2198735

- temperature:       222.0000000
  free_energy:       141.4481174
  entropy:             8.1997255
  heat_capacity:      24.5750170
  energy:            143.2684565

- temperature:       224.0000000
  free_energy:       141.4314955
  entropy:             8.4226835
  heat_capacity:      25.1458857
  energy:            143.3181766

- temperature:       226.0000000
  free_energy:       141.4144246
  entropy:             8.6487537
  heat_capacity:      25.7211562
  energy:            143.3690429

- temperature:       228.0000000
  free_energy:       141.3968984
  entropy:             8.8779196
  heat_capacity:      26.3007090
  energy:            143.4210641

- temperature:       230.0000000
  free_energy:       141.3789109
  entropy:             9.1101639
  heat_capacity:      26.8844245
  energy:            143.4742486

- temperature:       232.0000000
  free_energy:       141.3604557
  entropy:             9.3454688
  heat_capacity:      27.4721826
  energy:            143.5286045

- temperature:       234.0000000
  free_energy:       141.3415270
  entropy:             9.5838160
  heat_capacity:      28.0638633
  energy:            143.5841399

- temperature:       236.0000000
  free_energy:       141.3221185
  entropy:             9.8251865
  heat_capacity:      28.6593465
  energy:            143.6408625

- temperature:       238.0000000
  free_energy:       141.3022242
  entropy:            10.0695610
  heat_capacity:      29.2585121
  energy:            143.6987797

- temperature:       240.0000000
  free_energy:       141.2818382
  entropy:            10.3169195
  heat_capacity:      29.8612401
  energy:            143.7578989

- temperature:       242.0000000
  free_energy:       141.2609546
  entropy:            10.5672415
  heat_capacity:      30.4674108
  energy:            143.8182270

- temperature:       244.0000000
  free_energy:       141.2395673
  entropy:            10.8205060
  heat_capacity:      31.0769046
  energy:            143.8797708

- temperature:       246.0000000
  free_energy:       141.2176706
  entropy:            11.0766917
  heat_capacity:      31.6896022
  energy:            143.9425368

- temperature:       248.0000000
  free_energy:       141.1952586
  entropy:            11.3357767
  heat_capacity:      32.3053849
  energy:            144.0065312

- temperature:       250.0000000
  free_energy:       141.1723256
  entropy:            11.5977388
  heat_capacity:      32.9241342
  energy:            144.0717603

- temperature:       252.0000000
  free_energy:       141.1488657
  entropy:            11.8625553
  heat_capacity:      33.5457323
  energy:            144.1382297

- temperature:       254.0000000
  free_energy:       141.1248735
  entropy:            12.1302030
  heat_capacity:      34.1700619
  energy:            144.2059450

- temperature:       256.0000000
  free_energy:       141.1003431
  entropy:            12.4006586
  heat_capacity:      34.7970064
  energy:            144.2749117

- temperature:       258.0000000
  free_energy:       141.0752690
  entropy:            12.6738982
  heat_capacity:      35.4264500
  energy:            144.3451347

- temperature:       260.0000000
  free_energy:       141.0496456
  entropy:            12.9498978
  heat_capacity:      36.0582774
  energy:            144.4166191

- temperature:       262.0000000
  free_energy:       141.0234676
  entropy:            13.2286328
  heat_capacity:      36.6923744
  energy:            144.4893693

- temperature:       264.0000000
  free_energy:       140.9967293
  entropy:            13.5100784
  heat_capacity:      37.3286276
  energy:            144.5633900

- temperature:       266.0000000
  free_energy:       140.9694254
  entropy:            13.7942096
  heat_capacity:      37.9669245
  energy:            144.6386852

- temperature:       268.0000000
  free_energy:       140.9415507
  entropy:            14.0810011
  heat_capacity:      38.6071536
  energy:            144.7152590

- temperature:       270.0000000
  free_energy:       140.9130997
  entropy:            14.3704272
  heat_capacity:      39.2492044
  energy:            144.7931150

- temperature:       272.0000000
  free_energy:       140.8840672
  entropy:            14.6624621
  heat_capacity:      39.8929676
  energy:            144.8722569

- temperature:       274.0000000
  free_energy:       140.8544481
  entropy:            14.9570798
  heat_capacity:      40.5383349
  energy:            144.9526880

- temperature:       276.0000000
  free_energy:       140.8242372
  entropy:            15.2542538
  heat_capacity:      41.1851993
  energy:            145.0344113

- temperature:       278.0000000
  free_energy:       140.7934294
  entropy:            15.5539579
  heat_capacity:      41.8334548
  energy:            145.1174297

- temperature:       280.0000000
  free_energy:       140.7620197
  entropy:            15.8561651
  heat_capacity:      42.4829967
  energy:            145.2017459

- temperature:       282.0000000
  free_energy:       140.7300031
  entropy:            16.1608488
  heat_capacity:      43.1337218
  energy:            145.2873625

- temperature:       284.0000000
  free_energy:       140.6973747
  entropy:            16.4679820
  heat_capacity:      43.7855279
  energy:            145.3742816

- temperature:       286.0000000
  free_energy:       140.6641296
  entropy:            16.7775373
  heat_capacity:      44.4383144
  energy:            145.4625052

- temperature:       288.0000000
  free_energy:       140.6302629
  entropy:            17.0894877
  heat_capacity:      45.0919819
  energy:            145.5520354

- temperature:       290.0000000
  free_energy:       140.5957700
  entropy:            17.4038057
  heat_capacity:      45.7464323
  energy:            145.6428737

- temperature:       292.0000000
  free_energy:       140.5606462
  entropy:            17.7204638
  heat_capacity:      46.4015693
  energy:            145.7350216

- temperature:       294.0000000
  free_energy:       140.5248866
  entropy:            18.0394344
  heat_capacity:      47.0572976
  energy:            145.8284804

- temperature:       296.0000000
  free_energy:       140.4884869
  entropy:            18.3606899
  heat_capacity:      47.7135236
  energy:            145.9232511

- temperature:       298.0000000
  free_energy:       140.4514424
  entropy:            18.6842025
  heat_capacity:      48.3701552
  energy:            146.0193347

- temperature:       300.0000000
  free_energy:       140.4137486
  entropy:            19.0099445
  heat_capacity:      49.0271017
  energy:            146.1167319

- temperature:       302.0000000
  free_energy:       140.3754011
  entropy:            19.3378879
  heat_capacity:      49.6842739
  energy:            146.2154433

- temperature:       304.0000000
  free_energy:       140.3363956
  entropy:            19.6680050
  heat_capacity:      50.3415842
  energy:            146.3154691

- temperature:       306.0000000
  free_energy:       140.2967277
  entropy:            20.0002679
  heat_capacity:      50.9989465
  energy:            146.4168097

- temperature:       308.0000000
  free_energy:       140.2563931
  entropy:            20.3346486
  heat_capacity:      51.6562762
  energy:            146.5194649

- temperature:       310.0000000
  free_energy:       140.2153877
  entropy:            20.6711193
  heat_capacity:      52.3134903
  energy:            146.6234347

- temperature:       312.0000000
  free_energy:       140.1737073
  entropy:            21.0096521
  heat_capacity:      52.9705073
  energy:            146.7287187

- temperature:       314.0000000
  free_energy:       140.1313477
  entropy:            21.3502191
  heat_capacity:      53.6272474
  energy:            146.8353165

- temperature:       316.0000000
  free_energy:       140.0883050
  entropy:            21.6927925
  heat_capacity:      54.2836322
  energy:            146.9432275

- temperature:       318.0000000
  free_energy:       140.0445752
  entropy:            22.0373445
  heat_capacity:      54.9395849
  energy:            147.0524508

- temperature:       320.0000000
  free_energy:       140.0001544
  entropy:            22.3838472
  heat_capacity:      55.5950304
  energy:            147.1629855

- temperature:       322.0000000
  free_energy:       139.9550386
  entropy:            22.7322731
  heat_capacity:      56.2498949
  energy:            147.2748305

- temperature:       324.0000000
  free_energy:       139.9092240
  entropy:            23.0825945
  heat_capacity:      56.9041065
  energy:            147.3879846

- temperature:       326.0000000
  free_energy:       139.8627069
  entropy:            23.4347838
  heat_capacity:      57.5575946
  energy:            147.5024464

- temperature:       328.0000000
  free_energy:       139.8154836
  entropy:            23.7888135
  heat_capacity:      58.2102902
  energy:            147.6182145

- temperature:       330.0000000
  free_energy:       139.7675505
  entropy:            24.1446562
  heat_capacity:      58.8621259
  energy:            147.7352870

- temperature:       332.0000000
  free_energy:       139.7189038
  entropy:            24.5022847
  heat_capacity:      59.5130359
  energy:            147.8536624

- temperature:       334.0000000
  free_energy:       139.6695402
  entropy:            24.8616717
  heat_capacity:      60.1629558
  energy:            147.9733385

- temperature:       336.0000000
  free_energy:       139.6194560
  entropy:            25.2227901
  heat_capacity:      60.8118228
  energy:            148.0943135

- temperature:       338.0000000
  free_energy:       139.5686479
  entropy:            25.5856130
  heat_capacity:      61.4595755
  energy:            148.2165851

- temperature:       340.0000000
  free_energy:       139.5171124
  entropy:            25.9501135
  heat_capacity:      62.1061542
  energy:            148.3401510

- temperature:       342.0000000
  free_energy:       139.4648463
  entropy:            26.3162648
  heat_capacity:      62.7515006
  energy:            148.4650089

- temperature:       344.0000000
  free_energy:       139.4118463
  entropy:            26.6840403
  heat_capacity:      63.3955579
  energy:            148.5911561

- temperature:       346.0000000
  free_energy:       139.3581091
  entropy:            27.0534136
  heat_capacity:      64.0382706
  energy:            148.7185902

- temperature:       348.0000000
  free_energy:       139.3036316
  entropy:            27.4243584
  heat_capacity:      64.6795849
  energy:            148.8473083

- temperature:       350.0000000
  free_energy:       139.2484106
  entropy:            27.7968484
  heat_capacity:      65.3194484
  energy:            148.9773076

- temperature:       352.0000000
  free_energy:       139.1924432
  entropy:            28.1708577
  heat_capacity:      65.9578099
  energy:            149.1085851

- temperature:       354.0000000
  free_energy:       139.1357262
  entropy:            28.5463604
  heat_capacity:      66.5946199
  energy:            149.2411378

- temperature:       356.0000000
  free_energy:       139.0782567
  entropy:            28.9233307