<?xml version="1.0" encoding="ISO-8859-1"?>
<modeling>
 <generator>
  <i name="program" type="string">vasp </i>
  <i name="version" type="string">5.4.4.18Apr17-6-g9f103f2a35  </i>
  <i name="subversion" type="string">(build Mar 12 2022 03:36:41) complex            parallel </i>
  <i name="platform" type="string">IFC19.0.3.199_CrayMPICH7.7.19 </i>
  <i name="date" type="string">2022 12 02 </i>
  <i name="time" type="string">02:46:35 </i>
 </generator>
 <incar>
  <i type="string" name="PREC">accurate</i>
  <i type="int" name="IALGO">    38</i>
  <i type="logical" name="ADDGRID"> T  </i>
  <i type="int" name="IBRION">     8</i>
  <i name="EDIFF">      0.00000001</i>
  <i type="logical" name="LREAL"> F  </i>
  <i type="int" name="ISMEAR">     0</i>
  <i name="SIGMA">      0.06000000</i>
  <i type="logical" name="LWAVE"> F  </i>
  <i type="logical" name="LCHARG"> F  </i>
  <v type="int" name="KPOINT_BSE">    -1     0     0     0</v>
 </incar>
 <structure name="primitive_cell" >
  <crystal>
   <varray name="basis" >
    <v>       0.00000000      -1.75873312       1.79499968 </v>
    <v>       0.00000000       1.75873312       1.79499968 </v>
    <v>      -1.75873312       0.00000000      -1.79499968 </v>
   </varray>
   <i name="volume">     11.10437850 </i>
   <varray name="rec_basis" >
    <v>      -0.28429555      -0.28429555       0.27855158 </v>
    <v>      -0.28429555       0.28429555       0.27855158 </v>
    <v>      -0.56859110       0.00000000       0.00000000 </v>
   </varray>
  </crystal>
  <varray name="positions" >
   <v>       0.25000000      -0.25000000      -0.50000000 </v>
   <v>      -0.50000000      -0.50000000       0.00000000 </v>
  </varray>
 </structure>
 <varray name="primitive_index" >
  <v type="int" >        1 </v>
  <v type="int" >       11 </v>
 </varray>
 <kpoints>
  <generation param="Gamma">
   <v type="int" name="divisions">       6        6        6 </v>
   <v name="usershift">      0.00000000       0.00000000       0.00000000 </v>
   <v name="genvec1">      0.16666667       0.00000000       0.00000000 </v>
   <v name="genvec2">      0.00000000       0.16666667       0.00000000 </v>
   <v name="genvec3">      0.00000000       0.00000000       0.16666667 </v>
   <v name="shift">      0.00000000       0.00000000       0.00000000 </v>
  </generation>
  <varray name="kpointlist" >
   <v>       0.00000000       0.00000000       0.00000000 </v>
   <v>       0.16666667       0.00000000       0.00000000 </v>
   <v>       0.33333333       0.00000000       0.00000000 </v>
   <v>       0.50000000       0.00000000       0.00000000 </v>
   <v>       0.16666667       0.16666667       0.00000000 </v>
   <v>       0.33333333       0.16666667       0.00000000 </v>
   <v>       0.50000000       0.16666667       0.00000000 </v>
   <v>       0.33333333       0.33333333       0.00000000 </v>
   <v>       0.50000000       0.33333333       0.00000000 </v>
   <v>       0.50000000       0.50000000       0.00000000 </v>
   <v>       0.00000000       0.00000000       0.16666667 </v>
   <v>       0.16666667       0.00000000       0.16666667 </v>
   <v>       0.33333333       0.00000000       0.16666667 </v>
   <v>       0.50000000       0.00000000       0.16666667 </v>
   <v>       0.16666667       0.16666667       0.16666667 </v>
   <v>       0.33333333       0.16666667       0.16666667 </v>
   <v>       0.50000000       0.16666667       0.16666667 </v>
   <v>       0.33333333       0.33333333       0.16666667 </v>
   <v>       0.50000000       0.33333333       0.16666667 </v>
   <v>       0.50000000       0.50000000       0.16666667 </v>
   <v>       0.00000000       0.00000000       0.33333333 </v>
   <v>       0.16666667       0.00000000       0.33333333 </v>
   <v>       0.33333333       0.00000000       0.33333333 </v>
   <v>       0.50000000       0.00000000       0.33333333 </v>
   <v>       0.16666667       0.16666667       0.33333333 </v>
   <v>       0.33333333       0.16666667       0.33333333 </v>
   <v>       0.50000000       0.16666667       0.33333333 </v>
   <v>       0.33333333       0.33333333       0.33333333 </v>
   <v>       0.50000000       0.33333333       0.33333333 </v>
   <v>       0.50000000       0.50000000       0.33333333 </v>
   <v>       0.00000000       0.00000000       0.50000000 </v>
   <v>       0.16666667       0.00000000       0.50000000 </v>
   <v>       0.33333333       0.00000000       0.50000000 </v>
   <v>       0.50000000       0.00000000       0.50000000 </v>
   <v>       0.16666667       0.16666667       0.50000000 </v>
   <v>       0.33333333       0.16666667       0.50000000 </v>
   <v>       0.50000000       0.16666667       0.50000000 </v>
   <v>       0.33333333       0.33333333       0.50000000 </v>
   <v>       0.50000000       0.33333333       0.50000000 </v>
   <v>       0.50000000       0.50000000       0.50000000 </v>
  </varray>
  <varray name="weights" >
   <v>       0.00462963 </v>
   <v>       0.01851852 </v>
   <v>       0.01851852 </v>
   <v>       0.00925926 </v>
   <v>       0.01851852 </v>
   <v>       0.03703704 </v>
   <v>       0.01851852 </v>
   <v>       0.01851852 </v>
   <v>       0.01851852 </v>
   <v>       0.00462963 </v>
   <v>       0.00925926 </v>
   <v>       0.03703704 </v>
   <v>       0.03703704 </v>
   <v>       0.01851852 </v>
   <v>       0.03703704 </v>
   <v>       0.07407407 </v>
   <v>       0.03703704 </v>
   <v>       0.03703704 </v>
   <v>       0.03703704 </v>
   <v>       0.00925926 </v>
   <v>       0.00925926 </v>
   <v>       0.03703704 </v>
   <v>       0.03703704 </v>
   <v>       0.01851852 </v>
   <v>       0.03703704 </v>
   <v>       0.07407407 </v>
   <v>       0.03703704 </v>
   <v>       0.03703704 </v>
   <v>       0.03703704 </v>
   <v>       0.00925926 </v>
   <v>       0.00462963 </v>
   <v>       0.01851852 </v>
   <v>       0.01851852 </v>
   <v>       0.00925926 </v>
   <v>       0.01851852 </v>
   <v>       0.03703704 </v>
   <v>       0.01851852 </v>
   <v>       0.01851852 </v>
   <v>       0.01851852 </v>
   <v>       0.00462963 </v>
  </varray>
 </kpoints>
 <parameters>
  <separator name="general" >
   <i type="string" name="SYSTEM">unknown system</i>
   <i type="logical" name="LCOMPAT"> F  </i>
  </separator>
  <separator name="electronic" >
   <i type="string" name="PREC">accura</i>
   <i name="ENMAX">    400.00000000</i>
   <i name="ENAUG">    644.87300000</i>
   <i name="EDIFF">      0.00000001</i>
   <i type="int" name="IALGO">    38</i>
   <i type="int" name="IWAVPR">    11</i>
   <i type="int" name="NBANDS">   192</i>
   <i name="NELECT">    256.00000000</i>
   <i type="int" name="TURBO">     0</i>
   <i type="int" name="IRESTART">     0</i>
   <i type="int" name="NREBOOT">     0</i>
   <i type="int" name="NMIN">     0</i>
   <i name="EREF">      0.00000000</i>
   <separator name="electronic smearing" >
    <i type="int" name="ISMEAR">     0</i>
    <i name="SIGMA">      0.06000000</i>
    <i name="KSPACING">      0.50000000</i>
    <i type="logical" name="KGAMMA"> T  </i>
   </separator>
   <separator name="electronic projectors" >
    <i type="logical" name="LREAL"> F  </i>
    <v name="ROPT">      0.00000000</v>
    <i type="int" name="LMAXPAW">  -100</i>
    <i type="int" name="LMAXMIX">     2</i>
    <i type="logical" name="NLSPLINE"> F  </i>
   </separator>
   <separator name="electronic startup" >
    <i type="int" name="ISTART">     0</i>
    <i type="int" name="ICHARG">     2</i>
    <i type="int" name="INIWAV">     1</i>
   </separator>
   <separator name="electronic spin" >
    <i type="int" name="ISPIN">     1</i>
    <i type="logical" name="LNONCOLLINEAR"> F  </i>
    <v name="MAGMOM">      1.00000000      1.00000000      1.00000000      1.00000000      1.00000000      1.00000000      1.00000000      1.00000000      1.00000000      1.00000000      1.00000000      1.00000000      1.00000000      1.00000000      1.00000000      1.00000000      1.00000000      1.00000000      1.00000000      1.00000000
      1.00000000      1.00000000      1.00000000      1.00000000      1.00000000      1.00000000      1.00000000      1.00000000      1.00000000      1.00000000      1.00000000      1.00000000      1.00000000      1.00000000      1.00000000      1.00000000      1.00000000      1.00000000      1.00000000      1.00000000
      1.00000000      1.00000000      1.00000000      1.00000000      1.00000000      1.00000000      1.00000000      1.00000000      1.00000000      1.00000000      1.00000000      1.00000000      1.00000000      1.00000000      1.00000000      1.00000000      1.00000000      1.00000000      1.00000000      1.00000000
      1.00000000      1.00000000      1.00000000      1.00000000</v>
    <i name="NUPDOWN">     -1.00000000</i>
    <i type="logical" name="LSORBIT"> F  </i>
    <v name="SAXIS">      0.00000000      0.00000000      1.00000000</v>
    <i type="logical" name="LSPIRAL"> F  </i>
    <v name="QSPIRAL">      0.00000000      0.00000000      0.00000000</v>
    <i type="logical" name="LZEROZ"> F  </i>
   </separator>
   <separator name="electronic exchange-correlation" >
    <i type="logical" name="LASPH"> F  </i>
    <i type="logical" name="LMETAGGA"> F  </i>
   </separator>
   <separator name="electronic convergence" >
    <i type="int" name="NELM">    60</i>
    <i type="int" name="NELMDL">    -5</i>
    <i type="int" name="NELMIN">     2</i>
    <i name="ENINI">    400.00000000</i>
    <separator name="electronic convergence detail" >
     <i type="logical" name="LDIAG"> T  </i>
     <i type="logical" name="LSUBROT"> F  </i>
     <i name="WEIMIN">      0.00100000</i>
     <i name="EBREAK">      0.00000000</i>
     <i name="DEPER">      0.30000000</i>
     <i type="int" name="NRMM">     4</i>
     <i name="TIME">      0.40000000</i>
    </separator>
   </separator>
   <separator name="electronic mixer" >
    <i name="AMIX">      0.40000000</i>
    <i name="BMIX">      1.00000000</i>
    <i name="AMIN">      0.10000000</i>
    <i name="AMIX_MAG">      1.60000000</i>
    <i name="BMIX_MAG">      1.00000000</i>
    <separator name="electronic mixer details" >
     <i type="int" name="IMIX">     4</i>
     <i type="logical" name="MIXFIRST"> F  </i>
     <i type="int" name="MAXMIX">   -45</i>
     <i name="WC">    100.00000000</i>
     <i type="int" name="INIMIX">     1</i>
     <i type="int" name="MIXPRE">     1</i>
     <i type="int" name="MREMOVE">     5</i>
    </separator>
   </separator>
   <separator name="electronic dipolcorrection" >
    <i type="logical" name="LDIPOL"> F  </i>
    <i type="logical" name="LMONO"> F  </i>
    <i type="int" name="IDIPOL">     0</i>
    <i name="EPSILON">      1.00000000</i>
    <v name="DIPOL">   -100.00000000   -100.00000000   -100.00000000</v>
    <i name="EFIELD">      0.00000000</i>
   </separator>
  </separator>
  <separator name="grids" >
   <i type="int" name="NGX">    48</i>
   <i type="int" name="NGY">    48</i>
   <i type="int" name="NGZ">    48</i>
   <i type="int" name="NGXF">    96</i>
   <i type="int" name="NGYF">    96</i>
   <i type="int" name="NGZF">    96</i>
   <i type="logical" name="ADDGRID"> T  </i>
  </separator>
  <separator name="ionic" >
   <i type="int" name="NSW">     1</i>
   <i type="int" name="IBRION">     8</i>
   <i type="int" name="MDALGO">     0</i>
   <i type="int" name="ISIF">     2</i>
   <i name="PSTRESS">      0.00000000</i>
   <i name="EDIFFG">      0.00000010</i>
   <i type="int" name="NFREE">     0</i>
   <i name="POTIM">      0.50000000</i>
   <i name="SMASS">     -3.00000000</i>
   <i name="SCALEE">      1.00000000</i>
  </separator>
  <separator name="ionic md" >
   <i name="TEBEG">      0.00010000</i>
   <i name="TEEND">      0.00010000</i>
   <i type="int" name="NBLOCK">     1</i>
   <i type="int" name="KBLOCK">     1</i>
   <i type="int" name="NPACO">   256</i>
   <i name="APACO">     16.00000000</i>
  </separator>
  <separator name="symmetry" >
   <i type="int" name="ISYM">     2</i>
   <i name="SYMPREC">      0.00001000</i>
  </separator>
  <separator name="dos" >
   <i type="int" name="LORBIT">     0</i>
   <v name="RWIGS">     -1.00000000</v>
   <i type="int" name="NEDOS">   301</i>
   <i name="EMIN">     10.00000000</i>
   <i name="EMAX">    -10.00000000</i>
   <i name="EFERMI">      0.00000000</i>
  </separator>
  <separator name="writing" >
   <i type="int" name="NWRITE">     2</i>
   <i type="logical" name="LWAVE"> F  </i>
   <i type="logical" name="LDOWNSAMPLE"> F  </i>
   <i type="logical" name="LCHARG"> F  </i>
   <i type="logical" name="LPARD"> F  </i>
   <i type="logical" name="LVTOT"> F  </i>
   <i type="logical" name="LVHAR"> F  </i>
   <i type="logical" name="LELF"> F  </i>
   <i type="logical" name="LOPTICS"> F  </i>
   <v name="STM">      0.00000000      0.00000000      0.00000000      0.00000000      0.00000000      0.00000000      0.00000000</v>
  </separator>
  <separator name="performance" >
   <i type="int" name="NPAR">    32</i>
   <i type="int" name="NSIM">     4</i>
   <i type="int" name="NBLK">    -1</i>
   <i type="logical" name="LPLANE"> T  </i>
   <i type="logical" name="LSCALAPACK"> T  </i>
   <i type="logical" name="LSCAAWARE"> F  </i>
   <i type="logical" name="LSCALU"> F  </i>
   <i type="logical" name="LASYNC"> F  </i>
   <i type="logical" name="LORBITALREAL"> F  </i>
  </separator>
  <separator name="miscellaneous" >
   <i type="int" name="IDIOT">     3</i>
   <i type="int" name="ISPECIAL">     0</i>
   <i type="logical" name="LMUSIC"> F  </i>
   <v name="POMASS">     12.01100000</v>
   <v name="DARWINR">      0.00000000</v>
   <v name="DARWINV">      1.00000000</v>
   <i type="logical" name="LCORR"> T  </i>
  </separator>
  <i type="logical" name="GGA_COMPAT"> T  </i>
  <i type="logical" name="LBERRY"> F  </i>
  <i type="int" name="ICORELEVEL">     0</i>
  <i type="logical" name="LDAU"> F  </i>
  <i type="int" name="I_CONSTRAINED_M">     0</i>
  <separator name="electronic exchange-correlation" >
   <i type="string" name="GGA">--</i>
   <i type="int" name="VOSKOWN">     0</i>
   <i type="logical" name="LHFCALC"> F  </i>
   <i type="string" name="PRECFOCK"></i>
   <i type="logical" name="LSYMGRAD"> F  </i>
   <i type="logical" name="LHFONE"> F  </i>
   <i type="logical" name="LRHFCALC"> F  </i>
   <i type="logical" name="LTHOMAS"> F  </i>
   <i type="logical" name="LMODELHF"> F  </i>
   <i name="ENCUT4O">     -1.00000000</i>
   <i type="int" name="EXXOEP">     0</i>
   <i type="int" name="FOURORBIT">     0</i>
   <i name="AEXX">      0.00000000</i>
   <i name="HFALPHA">      0.00000000</i>
   <i name="MCALPHA">      0.00000000</i>
   <i name="ALDAX">      1.00000000</i>
   <i name="AGGAX">      1.00000000</i>
   <i name="ALDAC">      1.00000000</i>
   <i name="AGGAC">      1.00000000</i>
   <i type="int" name="NKREDX">     1</i>
   <i type="int" name="NKREDY">     1</i>
   <i type="int" name="NKREDZ">     1</i>
   <i type="logical" name="SHIFTRED"> F  </i>
   <i type="logical" name="ODDONLY"> F  </i>
   <i type="logical" name="EVENONLY"> F  </i>
   <i type="int" name="LMAXFOCK">     0</i>
   <i type="int" name="NMAXFOCKAE">     0</i>
   <i type="logical" name="LFOCKAEDFT"> F  </i>
   <i name="HFSCREEN">      0.00000000</i>
   <i name="HFSCREENC">      0.00000000</i>
   <i type="int" name="NBANDSGWLOW">     0</i>
  </separator>
  <separator name="vdW DFT" >
   <i type="logical" name="LUSE_VDW"> F  </i>
   <i name="Zab_VDW">     -0.84910000</i>
   <i name="PARAM1">      0.12340000</i>
   <i name="PARAM2">      1.00000000</i>
   <i name="PARAM3">      0.00000000</i>
  </separator>
  <separator name="model GW" >
   <i type="int" name="MODEL_GW">     0</i>
   <i name="MODEL_EPS0">      3.33131355</i>
   <i name="MODEL_ALPHA">      1.00000000</i>
  </separator>
  <separator name="linear response parameters" >
   <i type="logical" name="LEPSILON"> F  </i>
   <i type="logical" name="LRPA"> F  </i>
   <i type="logical" name="LNABLA"> F  </i>
   <i type="logical" name="LVEL"> F  </i>
   <i type="int" name="KINTER">     0</i>
   <i name="CSHIFT">      0.10000000</i>
   <i name="OMEGAMAX">     -1.00000000</i>
   <i name="DEG_THRESHOLD">      0.00200000</i>
   <i name="RTIME">     -0.10000000</i>
   <i name="WPLASMAI">      0.00000000</i>
   <v name="DFIELD">      0.00000000      0.00000000      0.00000000</v>
   <v name="WPLASMA">      0.00000000      0.00000000      0.00000000      0.00000000      0.00000000      0.00000000      0.00000000      0.00000000      0.00000000</v>
  </separator>
  <separator name="orbital magnetization" >
   <i type="logical" name="NUCIND"> F  </i>
   <v name="MAGPOS">      0.00000000      0.00000000      0.00000000</v>
   <i type="logical" name="LNICSALL"> T  </i>
   <i type="logical" name="ORBITALMAG"> F  </i>
   <i type="logical" name="LMAGBLOCH"> F  </i>
   <i type="logical" name="LCHIMAG"> F  </i>
   <i type="logical" name="LGAUGE"> T  </i>
   <i type="int" name="MAGATOM">     0</i>
   <v name="MAGDIPOL">      0.00000000      0.00000000      0.00000000</v>
   <v name="AVECCONST">      0.00000000      0.00000000      0.00000000</v>
  </separator>
  <separator name="response functions" >
   <i type="logical" name="LADDER"> F  </i>
   <i type="logical" name="LRPAFORCE"> F  </i>
   <i type="logical" name="LFXC"> F  </i>
   <i type="logical" name="LHARTREE"> T  </i>
   <i type="int" name="IBSE">     0</i>
   <v type="int" name="KPOINT">    -1     0     0     0</v>
   <i type="logical" name="LTCTE"> F  </i>
   <i type="logical" name="LTETE"> F  </i>
   <i type="logical" name="LTRIPLET"> F  </i>
   <i type="logical" name="LFXCEPS"> F  </i>
   <i type="logical" name="LFXHEG"> F  </i>
   <i type="int" name="NATURALO">     2</i>
   <i type="logical" name="L2ORDER"> F  </i>
   <i type="logical" name="LMP2LT"> F  </i>
   <i type="logical" name="LUSEW"> F  </i>
   <i name="ENCUTGW">     -2.00000000</i>
   <i name="ENCUTGWSOFT">     -2.00000000</i>
   <i name="ENCUTLF">     -1.00000000</i>
   <i type="int" name="LMAXMP2">    -1</i>
   <i name="SCISSOR">      0.00000000</i>
   <i type="int" name="NOMEGA">     0</i>
   <i type="int" name="NOMEGAR">     0</i>
   <i type="int" name="NBANDSGW">    -1</i>
   <i type="int" name="NBANDSO">    -1</i>
   <i type="int" name="NBANDSV">    -1</i>
   <i type="int" name="NELM">     1</i>
   <i type="int" name="NELMHF">     1</i>
   <i type="int" name="DIM">     3</i>
   <i type="int" name="ANTIRES">     0</i>
   <i name="OMEGAMAX">    -30.00000000</i>
   <i name="OMEGAMIN">    -30.00000000</i>
   <i name="OMEGATL">   -200.00000000</i>
   <i type="int" name="OMEGAGRID">   140</i>
   <i name="CSHIFT">     -0.10000000</i>
   <i type="logical" name="SELFENERGY"> F  </i>
   <i type="logical" name="LSPECTRAL"> F  </i>
   <i type="logical" name="LSPECTRALGW"> F  </i>
   <i type="logical" name="LSINGLES"> F  </i>
   <i type="logical" name="LFERMIGW"> F  </i>
   <i type="logical" name="ODDONLYGW"> F  </i>
   <i type="logical" name="EVENONLYGW"> F  </i>
   <i type="int" name="NKREDLFX">     1</i>
   <i type="int" name="NKREDLFY">     1</i>
   <i type="int" name="NKREDLFZ">     1</i>
   <i type="int" name="MAXMEM">  2800</i>
   <i type="int" name="TELESCOPE">     0</i>
   <i type="int" name="TAUPAR">     1</i>
   <i type="int" name="OMEGAPAR">    -1</i>
   <i name="LAMBDA">      1.00000000</i>
  </separator>
  <separator name="External order field" >
   <i name="OFIELD_KAPPA">      0.00000000</i>
   <v name="OFIELD_K">      0.00000000      0.00000000      0.00000000</v>
   <i name="OFIELD_Q6_NEAR">      0.00000000</i>
   <i name="OFIELD_Q6_FAR">      0.00000000</i>
   <i name="OFIELD_A">      0.00000000</i>
  </separator>
 </parameters>
 <atominfo>
  <atoms>      64 </atoms>
  <types>       1 </types>
  <array name="atoms" >
   <dimension dim="1">ion</dimension>
   <field type="string">element</field>
   <field type="int">atomtype</field>
   <set>
    <rc><c>C </c><c>   1</c></rc>
    <rc><c>C </c><c>   1</c></rc>
    <rc><c>C </c><c>   1</c></rc>
    <rc><c>C </c><c>   1</c></rc>
    <rc><c>C </c><c>   1</c></rc>
    <rc><c>C </c><c>   1</c></rc>
    <rc><c>C </c><c>   1</c></rc>
    <rc><c>C </c><c>   1</c></rc>
    <rc><c>C </c><c>   1</c></rc>
    <rc><c>C </c><c>   1</c></rc>
    <rc><c>C </c><c>   1</c></rc>
    <rc><c>C </c><c>   1</c></rc>
    <rc><c>C </c><c>   1</c></rc>
    <rc><c>C </c><c>   1</c></rc>
    <rc><c>C </c><c>   1</c></rc>
    <rc><c>C </c><c>   1</c></rc>
    <rc><c>C </c><c>   1</c></rc>
    <rc><c>C </c><c>   1</c></rc>
    <rc><c>C </c><c>   1</c></rc>
    <rc><c>C </c><c>   1</c></rc>
    <rc><c>C </c><c>   1</c></rc>
    <rc><c>C </c><c>   1</c></rc>
    <rc><c>C </c><c>   1</c></rc>
    <rc><c>C </c><c>   1</c></rc>
    <rc><c>C </c><c>   1</c></rc>
    <rc><c>C </c><c>   1</c></rc>
    <rc><c>C </c><c>   1</c></rc>
    <rc><c>C </c><c>   1</c></rc>
    <rc><c>C </c><c>   1</c></rc>
    <rc><c>C </c><c>   1</c></rc>
    <rc><c>C </c><c>   1</c></rc>
    <rc><c>C </c><c>   1</c></rc>
    <rc><c>C </c><c>   1</c></rc>
    <rc><c>C </c><c>   1</c></rc>
    <rc><c>C </c><c>   1</c></rc>
    <rc><c>C </c><c>   1</c></rc>
    <rc><c>C </c><c>   1</c></rc>
    <rc><c>C </c><c>   1</c></rc>
    <rc><c>C </c><c>   1</c></rc>
    <rc><c>C </c><c>   1</c></rc>
    <rc><c>C </c><c>   1</c></rc>
    <rc><c>C </c><c>   1</c></rc>
    <rc><c>C </c><c>   1</c></rc>
    <rc><c>C </c><c>   1</c></rc>
    <rc><c>C </c><c>   1</c></rc>
    <rc><c>C </c><c>   1</c></rc>
    <rc><c>C </c><c>   1</c></rc>
    <rc><c>C </c><c>   1</c></rc>
    <rc><c>C </c><c>   1</c></rc>
    <rc><c>C </c><c>   1</c></rc>
    <rc><c>C </c><c>   1</c></rc>
    <rc><c>C </c><c>   1</c></rc>
    <rc><c>C </c><c>   1</c></rc>
    <rc><c>C </c><c>   1</c></rc>
    <rc><c>C </c><c>   1</c></rc>
    <rc><c>C </c><c>   1</c></rc>
    <rc><c>C </c><c>   1</c></rc>
    <rc><c>C </c><c>   1</c></rc>
    <rc><c>C </c><c>   1</c></rc>
    <rc><c>C </c><c>   1</c></rc>
    <rc><c>C </c><c>   1</c></rc>
    <rc><c>C </c><c>   1</c></rc>
    <rc><c>C </c><c>   1</c></rc>
    <rc><c>C </c><c>   1</c></rc>
   </set>
  </array>
  <array name="atomtypes" >
   <dimension dim="1">type</dimension>
   <field type="int">atomspertype</field>
   <field type="string">element</field>
   <field>mass</field>
   <field>valence</field>
   <field type="string">pseudopotential</field>
   <set>
    <rc><c>  64</c><c>C </c><c>     12.01100000</c><c>      4.00000000</c><c> PAW_PBE C 08Apr2002                    </c></rc>
   </set>
  </array>
 </atominfo>
 <structure name="initialpos" >
  <crystal>
   <varray name="basis" >
    <v>       7.03493249       0.00000000       0.00000000 </v>
    <v>       0.00000000       7.03493249       0.00000000 </v>
    <v>       0.00000000       0.00000000       7.17999872 </v>
   </varray>
   <i name="volume">    355.34011210 </i>
   <varray name="rec_basis" >
    <v>       0.14214777       0.00000000       0.00000000 </v>
    <v>       0.00000000       0.14214777       0.00000000 </v>
    <v>       0.00000000       0.00000000       0.13927579 </v>
   </varray>
  </crystal>
  <varray name="positions" >
   <v>       0.12500000       0.37500000       0.12500000 </v>
   <v>       0.62500000       0.37500000       0.12500000 </v>
   <v>       0.12500000       0.87500000       0.12500000 </v>
   <v>       0.62500000       0.87500000       0.12500000 </v>
   <v>       0.12500000       0.37500000       0.62500000 </v>
   <v>       0.62500000       0.37500000       0.62500000 </v>
   <v>       0.12500000       0.87500000       0.62500000 </v>
   <v>       0.62500000       0.87500000       0.62500000 </v>
   <v>       0.00000000       0.00000000       0.25000000 </v>
   <v>       0.50000000       0.00000000       0.25000000 </v>
   <v>       0.00000000       0.50000000       0.25000000 </v>
   <v>       0.50000000       0.50000000       0.25000000 </v>
   <v>       0.00000000       0.00000000       0.75000000 </v>
   <v>       0.50000000       0.00000000       0.75000000 </v>
   <v>       0.00000000       0.50000000       0.75000000 </v>
   <v>       0.50000000       0.50000000       0.75000000 </v>
   <v>       0.12500000       0.12500000       0.37500000 </v>
   <v>       0.62500000       0.12500000       0.37500000 </v>
   <v>       0.12500000       0.62500000       0.37500000 </v>
   <v>       0.62500000       0.62500000       0.37500000 </v>
   <v>       0.12500000       0.12500000       0.87500000 </v>
   <v>       0.62500000       0.12500000       0.87500000 </v>
   <v>       0.12500000       0.62500000       0.87500000 </v>
   <v>       0.62500000       0.62500000       0.87500000 </v>
   <v>       0.00000000       0.25000000       0.00000000 </v>
   <v>       0.50000000       0.25000000       0.00000000 </v>
   <v>       0.00000000       0.75000000       0.00000000 </v>
   <v>       0.50000000       0.75000000       0.00000000 </v>
   <v>       0.00000000       0.25000000       0.50000000 </v>
   <v>       0.50000000       0.25000000       0.50000000 </v>
   <v>       0.00000000       0.75000000       0.50000000 </v>
   <v>       0.50000000       0.75000000       0.50000000 </v>
   <v>       0.37500000       0.37500000       0.37500000 </v>
   <v>       0.87500000       0.37500000       0.37500000 </v>
   <v>       0.37500000       0.87500000       0.37500000 </v>
   <v>       0.87500000       0.87500000       0.37500000 </v>
   <v>       0.37500000       0.37500000       0.87500000 </v>
   <v>       0.87500000       0.37500000       0.87500000 </v>
   <v>       0.37500000       0.87500000       0.87500000 </v>
   <v>       0.87500000       0.87500000       0.87500000 </v>
   <v>       0.25000000       0.00000000       0.00000000 </v>
   <v>       0.75000000       0.00000000       0.00000000 </v>
   <v>       0.25000000       0.50000000       0.00000000 </v>
   <v>       0.75000000       0.50000000       0.00000000 </v>
   <v>       0.25000000       0.00000000       0.50000000 </v>
   <v>       0.75000000       0.00000000       0.50000000 </v>
   <v>       0.25000000       0.50000000       0.50000000 </v>
   <v>       0.75000000       0.50000000       0.50000000 </v>
   <v>       0.37500000       0.12500000       0.12500000 </v>
   <v>       0.87500000       0.12500000       0.12500000 </v>
   <v>       0.37500000       0.62500000       0.12500000 </v>
   <v>       0.87500000       0.62500000       0.12500000 </v>
   <v>       0.37500000       0.12500000       0.62500000 </v>
   <v>       0.87500000       0.12500000       0.62500000 </v>
   <v>       0.37500000       0.62500000       0.62500000 </v>
   <v>       0.87500000       0.62500000       0.62500000 </v>
   <v>       0.25000000       0.25000000       0.25000000 </v>
   <v>       0.75000000       0.25000000       0.25000000 </v>
   <v>       0.25000000       0.75000000       0.25000000 </v>
   <v>       0.75000000       0.75000000       0.25000000 </v>
   <v>       0.25000000       0.25000000       0.75000000 </v>
   <v>       0.75000000       0.25000000       0.75000000 </v>
   <v>       0.25000000       0.75000000       0.75000000 </v>
   <v>       0.75000000       0.75000000       0.75000000 </v>
  </varray>
 </structure>
 <calculation>
  <scstep>
   <time name="dav">   26.01   26.03</time>
   <time name="total">   26.13   26.15</time>
   <energy>
    <i name="alphaZ">    939.22059564 </i>
    <i name="ewald"> -11215.01059771 </i>
    <i name="hartreedc">   -548.46796280 </i>
    <i name="XCdc">    919.43385034 </i>
    <i name="pawpsdc">   2421.21235816 </i>
    <i name="pawaedc">  -2494.84305711 </i>
    <i name="eentropy">     -0.01179088 </i>
    <i name="bandstr">   1071.63366976 </i>
    <i name="atom">   9416.14232778 </i>
    <i name="e_fr_energy">    509.30939317 </i>
    <i name="e_wo_entrp">    509.32118405 </i>
    <i name="e_0_energy">    509.31528861 </i>
   </energy>
  </scstep>
  <scstep>
   <time name="dav">   32.57   32.57</time>
   <time name="total">   32.57   32.57</time>
   <energy>
    <i name="e_fr_energy">   -562.30769630 </i>
    <i name="e_wo_entrp">   -562.30769630 </i>
    <i name="e_0_energy">   -562.30769630 </i>
   </energy>
  </scstep>
  <scstep>
   <time name="dav">   33.69   33.69</time>
   <time name="total">   33.69   33.70</time>
   <energy>
    <i name="e_fr_energy">   -602.53055863 </i>
    <i name="e_wo_entrp">   -602.53055863 </i>
    <i name="e_0_energy">   -602.53055863 </i>
   </energy>
  </scstep>
  <scstep>
   <time name="dav">   33.31   33.31</time>
   <time name="total">   33.31   33.31</time>
   <energy>
    <i name="e_fr_energy">   -602.94540023 </i>
    <i name="e_wo_entrp">   -602.94540023 </i>
    <i name="e_0_energy">   -602.94540023 </i>
   </energy>
  </scstep>
  <scstep>
   <time name="dav">   30.67   30.68</time>
   <time name="total">   31.43   31.43</time>
   <energy>
    <i name="e_fr_energy">   -602.95370178 </i>
    <i name="e_wo_entrp">   -602.95370178 </i>
    <i name="e_0_energy">   -602.95370178 </i>
   </energy>
  </scstep>
  <scstep>
   <time name="dav">   29.27   29.27</time>
   <time name="total">   30.13   30.13</time>
   <energy>
    <i name="e_fr_energy">   -586.75422738 </i>
    <i name="e_wo_entrp">   -586.75422738 </i>
    <i name="e_0_energy">   -586.75422738 </i>
   </energy>
  </scstep>
  <scstep>
   <time name="dav">   30.27   30.27</time>
   <time name="total">   31.12   31.13</time>
   <energy>
    <i name="e_fr_energy">   -581.28763443 </i>
    <i name="e_wo_entrp">   -581.28763443 </i>
    <i name="e_0_energy">   -581.28763443 </i>
   </energy>
  </scstep>
  <scstep>
   <time name="dav">   32.56   32.57</time>
   <time name="total">   33.44   33.44</time>
   <energy>
    <i name="e_fr_energy">   -581.35069790 </i>
    <i name="e_wo_entrp">   -581.35069790 </i>
    <i name="e_0_energy">   -581.35069790 </i>
   </energy>
  </scstep>
  <scstep>
   <time name="dav">   32.50   32.51</time>
   <time name="total">   33.36   33.37</time>
   <energy>
    <i name="e_fr_energy">   -581.35279168 </i>
    <i name="e_wo_entrp">   -581.35279168 </i>
    <i name="e_0_energy">   -581.35279168 </i>
   </energy>
  </scstep>
  <scstep>
   <time name="dav">   31.43   31.43</time>
   <time name="total">   32.28   32.29</time>
   <energy>
    <i name="e_fr_energy">   -581.35323496 </i>
    <i name="e_wo_entrp">   -581.35323496 </i>
    <i name="e_0_energy">   -581.35323496 </i>
   </energy>
  </scstep>
  <scstep>
   <time name="dav">   32.79   32.79</time>
   <time name="total">   33.66   33.66</time>
   <energy>
    <i name="e_fr_energy">   -581.35324055 </i>
    <i name="e_wo_entrp">   -581.35324055 </i>
    <i name="e_0_energy">   -581.35324055 </i>
   </energy>
  </scstep>
  <scstep>
   <time name="dav">   32.37   32.37</time>
   <time name="total">   33.22   33.22</time>
   <energy>
    <i name="e_fr_energy">   -581.35324046 </i>
    <i name="e_wo_entrp">   -581.35324046 </i>
    <i name="e_0_energy">   -581.35324046 </i>
   </energy>
  </scstep>
  <scstep>
   <time name="dav">   27.11   27.12</time>
   <time name="total">   27.97   27.97</time>
   <energy>
    <i name="e_fr_energy">   -581.35324052 </i>
    <i name="e_wo_entrp">   -581.35324052 </i>
    <i name="e_0_energy">   -581.35324052 </i>
   </energy>
  </scstep>
  <scstep>
   <time name="dav">   24.67   24.67</time>
   <time name="total">   25.53   25.54</time>
   <energy>
    <i name="e_fr_energy">   -581.35324054 </i>
    <i name="e_wo_entrp">   -581.35324054 </i>
    <i name="e_0_energy">   -581.35324054 </i>
   </energy>
  </scstep>
  <scstep>
   <time name="dav">   22.58   22.59</time>
   <time name="total">   22.69   22.69</time>
   <energy>
    <i name="alphaZ">    939.22059564 </i>
    <i name="ewald"> -11215.01059771 </i>
    <i name="hartreedc">   -833.75795729 </i>
    <i name="XCdc">    946.40631513 </i>
    <i name="pawpsdc">   4305.16910244 </i>
    <i name="pawaedc">  -4386.58026920 </i>
    <i name="eentropy">     -0.00000000 </i>
    <i name="bandstr">    247.05724266 </i>
    <i name="atom">   9416.14232778 </i>
    <i name="e_fr_energy">   -581.35324054 </i>
    <i name="e_wo_entrp">   -581.35324054 </i>
    <i name="e_0_energy">   -581.35324054 </i>
   </energy>
  </scstep>
  <structure>
   <crystal>
    <varray name="basis" >
     <v>       7.03493249       0.00000000       0.00000000 </v>
     <v>       0.00000000       7.03493249       0.00000000 </v>
     <v>       0.00000000       0.00000000       7.17999872 </v>
    </varray>
    <i name="volume">    355.34011210 </i>
    <varray name="rec_basis" >
     <v>       0.14214777       0.00000000       0.00000000 </v>
     <v>       0.00000000       0.14214777       0.00000000 </v>
     <v>       0.00000000       0.00000000       0.13927579 </v>
    </varray>
   </crystal>
   <varray name="positions" >
    <v>       0.12500000       0.37500000       0.12500000 </v>
    <v>       0.62500000       0.37500000       0.12500000 </v>
    <v>       0.12500000       0.87500000       0.12500000 </v>
    <v>       0.62500000       0.87500000       0.12500000 </v>
    <v>       0.12500000       0.37500000       0.62500000 </v>
    <v>       0.62500000       0.37500000       0.62500000 </v>
    <v>       0.12500000       0.87500000       0.62500000 </v>
    <v>       0.62500000       0.87500000       0.62500000 </v>
    <v>       0.00000000       0.00000000       0.25000000 </v>
    <v>       0.50000000       0.00000000       0.25000000 </v>
    <v>       0.00000000       0.50000000       0.25000000 </v>
    <v>       0.50000000       0.50000000       0.25000000 </v>
    <v>       0.00000000       0.00000000       0.75000000 </v>
    <v>       0.50000000       0.00000000       0.75000000 </v>
    <v>       0.00000000       0.50000000       0.75000000 </v>
    <v>       0.50000000       0.50000000       0.75000000 </v>
    <v>       0.12500000       0.12500000       0.37500000 </v>
    <v>       0.62500000       0.12500000       0.37500000 </v>
    <v>       0.12500000       0.62500000       0.37500000 </v>
    <v>       0.62500000       0.62500000       0.37500000 </v>
    <v>       0.12500000       0.12500000       0.87500000 </v>
    <v>       0.62500000       0.12500000       0.87500000 </v>
    <v>       0.12500000       0.62500000       0.87500000 </v>
    <v>       0.62500000       0.62500000       0.87500000 </v>
    <v>       0.00000000       0.25000000       0.00000000 </v>
    <v>       0.50000000       0.25000000       0.00000000 </v>
    <v>       0.00000000       0.75000000       0.00000000 </v>
    <v>       0.50000000       0.75000000       0.00000000 </v>
    <v>       0.00000000       0.25000000       0.50000000 </v>
    <v>       0.50000000       0.25000000       0.50000000 </v>
    <v>       0.00000000       0.75000000       0.50000000 </v>
    <v>       0.50000000       0.75000000       0.50000000 </v>
    <v>       0.37500000       0.37500000       0.37500000 </v>
    <v>       0.87500000       0.37500000       0.37500000 </v>
    <v>       0.37500000       0.87500000       0.37500000 </v>
    <v>       0.87500000       0.87500000       0.37500000 </v>
    <v>       0.37500000       0.37500000       0.87500000 </v>
    <v>       0.87500000       0.37500000       0.87500000 </v>
    <v>       0.37500000       0.87500000       0.87500000 </v>
    <v>       0.87500000       0.87500000       0.87500000 </v>
    <v>       0.25000000       0.00000000       0.00000000 </v>
    <v>       0.75000000       0.00000000       0.00000000 </v>
    <v>       0.25000000       0.50000000       0.00000000 </v>
    <v>       0.75000000       0.50000000       0.00000000 </v>
    <v>       0.25000000       0.00000000       0.50000000 </v>
    <v>       0.75000000       0.00000000       0.50000000 </v>
    <v>       0.25000000       0.50000000       0.50000000 </v>
    <v>       0.75000000       0.50000000       0.50000000 </v>
    <v>       0.37500000       0.12500000       0.12500000 </v>
    <v>       0.87500000       0.12500000       0.12500000 </v>
    <v>       0.37500000       0.62500000       0.12500000 </v>
    <v>       0.87500000       0.62500000       0.12500000 </v>
    <v>       0.37500000       0.12500000       0.62500000 </v>
    <v>       0.87500000       0.12500000       0.62500000 </v>
    <v>       0.37500000       0.62500000       0.62500000 </v>
    <v>       0.87500000       0.62500000       0.62500000 </v>
    <v>       0.25000000       0.25000000       0.25000000 </v>
    <v>       0.75000000       0.25000000       0.25000000 </v>
    <v>       0.25000000       0.75000000       0.25000000 </v>
    <v>       0.75000000       0.75000000       0.25000000 </v>
    <v>       0.25000000       0.25000000       0.75000000 </v>
    <v>       0.75000000       0.25000000       0.75000000 </v>
    <v>       0.25000000       0.75000000       0.75000000 </v>
    <v>       0.75000000       0.75000000       0.75000000 </v>
   </varray>
  </structure>
  <varray name="forces" >
   <v>      -0.00000000       0.00000000       0.00000000 </v>
   <v>      -0.00000000       0.00000000      -0.00000000 </v>
   <v>       0.00000000       0.00000000      -0.00000000 </v>
   <v>       0.00000000       0.00000000       0.00000000 </v>
   <v>       0.00000000       0.00000000      -0.00000000 </v>
   <v>      -0.00000000       0.00000000      -0.00000000 </v>
   <v>      -0.00000000       0.00000000      -0.00000000 </v>
   <v>      -0.00000000       0.00000000       0.00000000 </v>
   <v>       0.00000000      -0.00000000       0.00000000 </v>
   <v>      -0.00000000      -0.00000000      -0.00000000 </v>
   <v>      -0.00000000      -0.00000000      -0.00000000 </v>
   <v>       0.00000000      -0.00000000       0.00000000 </v>
   <v>      -0.00000000      -0.00000000      -0.00000000 </v>
   <v>      -0.00000000      -0.00000000       0.00000000 </v>
   <v>       0.00000000      -0.00000000       0.00000000 </v>
   <v>      -0.00000000      -0.00000000      -0.00000000 </v>
   <v>      -0.00000000       0.00000000       0.00000000 </v>
   <v>      -0.00000000       0.00000000       0.00000000 </v>
   <v>       0.00000000       0.00000000      -0.00000000 </v>
   <v>      -0.00000000       0.00000000       0.00000000 </v>
   <v>      -0.00000000       0.00000000      -0.00000000 </v>
   <v>       0.00000000       0.00000000      -0.00000000 </v>
   <v>       0.00000000       0.00000000      -0.00000000 </v>
   <v>       0.00000000       0.00000000       0.00000000 </v>
   <v>       0.00000000      -0.00000000       0.00000000 </v>
   <v>       0.00000000      -0.00000000       0.00000000 </v>
   <v>      -0.00000000      -0.00000000       0.00000000 </v>
   <v>       0.00000000       0.00000000      -0.00000000 </v>
   <v>       0.00000000      -0.00000000       0.00000000 </v>
   <v>      -0.00000000       0.00000000       0.00000000 </v>
   <v>       0.00000000      -0.00000000       0.00000000 </v>
   <v>      -0.00000000      -0.00000000       0.00000000 </v>
   <v>       0.00000000       0.00000000      -0.00000000 </v>
   <v>      -0.00000000       0.00000000       0.00000000 </v>
   <v>       0.00000000       0.00000000      -0.00000000 </v>
   <v>       0.00000000       0.00000000       0.00000000 </v>
   <v>      -0.00000000       0.00000000      -0.00000000 </v>
   <v>       0.00000000       0.00000000       0.00000000 </v>
   <v>       0.00000000       0.00000000      -0.00000000 </v>
   <v>      -0.00000000       0.00000000       0.00000000 </v>
   <v>       0.00000000      -0.00000000       0.00000000 </v>
   <v>       0.00000000      -0.00000000      -0.00000000 </v>
   <v>       0.00000000      -0.00000000       0.00000000 </v>
   <v>      -0.00000000      -0.00000000       0.00000000 </v>
   <v>       0.00000000      -0.00000000      -0.00000000 </v>
   <v>       0.00000000      -0.00000000       0.00000000 </v>
   <v>       0.00000000      -0.00000000       0.00000000 </v>
   <v>      -0.00000000      -0.00000000      -0.00000000 </v>
   <v>      -0.00000000       0.00000000      -0.00000000 </v>
   <v>      -0.00000000       0.00000000      -0.00000000 </v>
   <v>       0.00000000       0.00000000      -0.00000000 </v>
   <v>       0.00000000       0.00000000       0.00000000 </v>
   <v>       0.00000000       0.00000000       0.00000000 </v>
   <v>       0.00000000       0.00000000      -0.00000000 </v>
   <v>       0.00000000       0.00000000       0.00000000 </v>
   <v>       0.00000000       0.00000000      -0.00000000 </v>
   <v>      -0.00000000      -0.00000000       0.00000000 </v>
   <v>      -0.00000000      -0.00000000       0.00000000 </v>
   <v>       0.00000000      -0.00000000       0.00000000 </v>
   <v>      -0.00000000      -0.00000000      -0.00000000 </v>
   <v>       0.00000000      -0.00000000      -0.00000000 </v>
   <v>      -0.00000000      -0.00000000      -0.00000000 </v>
   <v>       0.00000000      -0.00000000      -0.00000000 </v>
   <v>       0.00000000      -0.00000000      -0.00000000 </v>
  </varray>
  <varray name="stress" >
   <v>     146.85793242       0.00000000       0.00000000 </v>
   <v>       0.00000000     146.85793242      -0.00000000 </v>
   <v>       0.00000000       0.00000000     -51.43979013 </v>
  </varray>
  <energy>
   <i name="e_fr_energy">   -581.35324054 </i>
   <i name="e_wo_entrp">   -581.35324054 </i>
   <i name="e_0_energy">     -0.00000000 </i>
  </energy>
  <kpoints>
   <generation param="Gamma">
    <v type="int" name="divisions">       6        6        6 </v>
    <v name="usershift">      0.00000000       0.00000000       0.00000000 </v>
    <v name="genvec1">      0.16666667       0.00000000       0.00000000 </v>
    <v name="genvec2">      0.00000000       0.16666667       0.00000000 </v>
    <v name="genvec3">      0.00000000       0.00000000       0.16666667 </v>
    <v name="shift">      0.00000000       0.00000000       0.00000000 </v>
   </generation>
   <varray name="kpointlist" >
    <v>       0.00000000       0.00000000       0.00000000 </v>
    <v>       0.16666667       0.00000000       0.00000000 </v>
    <v>       0.33333333       0.00000000       0.00000000 </v>
    <v>       0.50000000       0.00000000       0.00000000 </v>
    <v>       0.00000000       0.16666667       0.00000000 </v>
    <v>       0.16666667       0.16666667       0.00000000 </v>
    <v>       0.33333333       0.16666667       0.00000000 </v>
    <v>       0.50000000       0.16666667       0.00000000 </v>
    <v>       0.00000000       0.33333333       0.00000000 </v>
    <v>       0.16666667       0.33333333       0.00000000 </v>
    <v>       0.33333333       0.33333333       0.00000000 </v>
    <v>       0.50000000       0.33333333       0.00000000 </v>
    <v>       0.00000000       0.50000000       0.00000000 </v>
    <v>       0.16666667       0.50000000       0.00000000 </v>
    <v>       0.33333333       0.50000000       0.00000000 </v>
    <v>       0.50000000       0.50000000       0.00000000 </v>
    <v>       0.00000000       0.00000000       0.16666667 </v>
    <v>       0.16666667       0.00000000       0.16666667 </v>
    <v>       0.33333333       0.00000000       0.16666667 </v>
    <v>       0.50000000       0.00000000       0.16666667 </v>
    <v>       0.00000000       0.16666667       0.16666667 </v>
    <v>       0.16666667       0.16666667       0.16666667 </v>
    <v>       0.33333333       0.16666667       0.16666667 </v>
    <v>       0.50000000       0.16666667       0.16666667 </v>
    <v>       0.00000000       0.33333333       0.16666667 </v>
    <v>       0.16666667       0.33333333       0.16666667 </v>
    <v>       0.33333333       0.33333333       0.16666667 </v>
    <v>       0.50000000       0.33333333       0.16666667 </v>
    <v>       0.00000000       0.50000000       0.16666667 </v>
    <v>       0.16666667       0.50000000       0.16666667 </v>
    <v>       0.33333333       0.50000000       0.16666667 </v>
    <v>       0.50000000       0.50000000       0.16666667 </v>
    <v>       0.00000000      -0.33333333       0.16666667 </v>
    <v>       0.16666667      -0.33333333       0.16666667 </v>
    <v>       0.33333333      -0.33333333       0.16666667 </v>
    <v>       0.50000000      -0.33333333       0.16666667 </v>
    <v>       0.00000000      -0.16666667       0.16666667 </v>
    <v>       0.16666667      -0.16666667       0.16666667 </v>
    <v>       0.33333333      -0.16666667       0.16666667 </v>
    <v>       0.50000000      -0.16666667       0.16666667 </v>
    <v>       0.00000000       0.00000000       0.33333333 </v>
    <v>       0.16666667       0.00000000       0.33333333 </v>
    <v>       0.33333333       0.00000000       0.33333333 </v>
    <v>       0.50000000       0.00000000       0.33333333 </v>
    <v>       0.00000000       0.16666667       0.33333333 </v>
    <v>       0.16666667       0.16666667       0.33333333 </v>
    <v>       0.33333333       0.16666667       0.33333333 </v>
    <v>       0.50000000       0.16666667       0.33333333 </v>
    <v>       0.00000000       0.33333333       0.33333333 </v>
    <v>       0.16666667       0.33333333       0.33333333 </v>
    <v>       0.33333333       0.33333333       0.33333333 </v>
    <v>       0.50000000       0.33333333       0.33333333 </v>
    <v>       0.00000000       0.50000000       0.33333333 </v>
    <v>       0.16666667       0.50000000       0.33333333 </v>
    <v>       0.33333333       0.50000000       0.33333333 </v>
    <v>       0.50000000       0.50000000       0.33333333 </v>
    <v>       0.00000000      -0.33333333       0.33333333 </v>
    <v>       0.16666667      -0.33333333       0.33333333 </v>
    <v>       0.33333333      -0.33333333       0.33333333 </v>
    <v>       0.50000000      -0.33333333       0.33333333 </v>
    <v>       0.00000000      -0.16666667       0.33333333 </v>
    <v>       0.16666667      -0.16666667       0.33333333 </v>
    <v>       0.33333333      -0.16666667       0.33333333 </v>
    <v>       0.50000000      -0.16666667       0.33333333 </v>
    <v>       0.00000000       0.00000000       0.50000000 </v>
    <v>       0.16666667       0.00000000       0.50000000 </v>
    <v>       0.33333333       0.00000000       0.50000000 </v>
    <v>       0.50000000       0.00000000       0.50000000 </v>
    <v>       0.00000000       0.16666667       0.50000000 </v>
    <v>       0.16666667       0.16666667       0.50000000 </v>
    <v>       0.33333333       0.16666667       0.50000000 </v>
    <v>       0.50000000       0.16666667       0.50000000 </v>
    <v>       0.00000000       0.33333333       0.50000000 </v>
    <v>       0.16666667       0.33333333       0.50000000 </v>
    <v>       0.33333333       0.33333333       0.50000000 </v>
    <v>       0.50000000       0.33333333       0.50000000 </v>
    <v>       0.00000000       0.50000000       0.50000000 </v>
    <v>       0.16666667       0.50000000       0.50000000 </v>
    <v>       0.33333333       0.50000000       0.50000000 </v>
    <v>       0.50000000       0.50000000       0.50000000 </v>
   </varray>
   <varray name="weights" >
    <v>       0.00462963 </v>
    <v>       0.00925926 </v>
    <v>       0.00925926 </v>
    <v>       0.00462963 </v>
    <v>       0.00925926 </v>
    <v>       0.01851852 </v>
    <v>       0.01851852 </v>
    <v>       0.00925926 </v>
    <v>       0.00925926 </v>
    <v>       0.01851852 </v>
    <v>       0.01851852 </v>
    <v>       0.00925926 </v>
    <v>       0.00462963 </v>
    <v>       0.00925926 </v>
    <v>       0.00925926 </v>
    <v>       0.00462963 </v>
    <v>       0.00925926 </v>
    <v>       0.01851852 </v>
    <v>       0.01851852 </v>
    <v>       0.00925926 </v>
    <v>       0.00925926 </v>
    <v>       0.01851852 </v>
    <v>       0.01851852 </v>
    <v>       0.00925926 </v>
    <v>       0.00925926 </v>
    <v>       0.01851852 </v>
    <v>       0.01851852 </v>
    <v>       0.00925926 </v>
    <v>       0.00925926 </v>
    <v>       0.01851852 </v>
    <v>       0.01851852 </v>
    <v>       0.00925926 </v>
    <v>       0.00925926 </v>
    <v>       0.01851852 </v>
    <v>       0.01851852 </v>
    <v>       0.00925926 </v>
    <v>       0.00925926 </v>
    <v>       0.01851852 </v>
    <v>       0.01851852 </v>
    <v>       0.00925926 </v>
    <v>       0.00925926 </v>
    <v>       0.01851852 </v>
    <v>       0.01851852 </v>
    <v>       0.00925926 </v>
    <v>       0.00925926 </v>
    <v>       0.01851852 </v>
    <v>       0.01851852 </v>
    <v>       0.00925926 </v>
    <v>       0.00925926 </v>
    <v>       0.01851852 </v>
    <v>       0.01851852 </v>
    <v>       0.00925926 </v>
    <v>       0.00925926 </v>
    <v>       0.01851852 </v>
    <v>       0.01851852 </v>
    <v>       0.00925926 </v>
    <v>       0.00925926 </v>
    <v>       0.01851852 </v>
    <v>       0.01851852 </v>
    <v>       0.00925926 </v>
    <v>       0.00925926 </v>
    <v>       0.01851852 </v>
    <v>       0.01851852 </v>
    <v>       0.00925926 </v>
    <v>       0.00462963 </v>
    <v>       0.00925926 </v>
    <v>       0.00925926 </v>
    <v>       0.00462963 </v>
    <v>       0.00925926 </v>
    <v>       0.01851852 </v>
    <v>       0.01851852 </v>
    <v>       0.00925926 </v>
    <v>       0.00925926 </v>
    <v>       0.01851852 </v>
    <v>       0.01851852 </v>
    <v>       0.00925926 </v>
    <v>       0.00462963 </v>
    <v>       0.00925926 </v>
    <v>       0.00925926 </v>
    <v>       0.00462963 </v>
   </varray>
  </kpoints>
  <scstep>
   <time name="total">   63.44   63.45</time>
   <energy>
    <i name="e_fr_energy">   -368.95376270 </i>
    <i name="e_wo_entrp">   -368.95376270 </i>
    <i name="e_0_energy">   -368.95376270 </i>
   </energy>
  </scstep>
  <scstep>
   <time name="total">   47.37   47.37</time>
   <energy>
    <i name="e_fr_energy">   -312.80836073 </i>
    <i name="e_wo_entrp">   -312.80836073 </i>
    <i name="e_0_energy">   -312.80836073 </i>
   </energy>
  </scstep>
  <scstep>
   <time name="total">   47.84   47.85</time>
   <energy>
    <i name="e_fr_energy">   -312.35312873 </i>
    <i name="e_wo_entrp">   -312.35312873 </i>
    <i name="e_0_energy">   -312.35312873 </i>
   </energy>
  </scstep>
  <scstep>
   <time name="total">   48.24   48.24</time>
   <energy>
    <i name="e_fr_energy">   -313.09023670 </i>
    <i name="e_wo_entrp">   -313.09023670 </i>
    <i name="e_0_energy">   -313.09023670 </i>
   </energy>
  </scstep>
  <scstep>
   <time name="total">   49.18   49.18</time>
   <energy>
    <i name="e_fr_energy">   -313.31928468 </i>
    <i name="e_wo_entrp">   -313.31928468 </i>
    <i name="e_0_energy">   -313.31928468 </i>
   </energy>
  </scstep>
  <scstep>
   <time name="total">   48.90   48.90</time>
   <energy>
    <i name="e_fr_energy">   -313.27945707 </i>
    <i name="e_wo_entrp">   -313.27945707 </i>
    <i name="e_0_energy">   -313.27945707 </i>
   </energy>
  </scstep>
  <scstep>
   <time name="total">   48.92   48.93</time>
   <energy>
    <i name="e_fr_energy">   -313.25789324 </i>
    <i name="e_wo_entrp">   -313.25789324 </i>
    <i name="e_0_energy">   -313.25789324 </i>
   </energy>
  </scstep>
  <scstep>
   <time name="total">   51.32   51.33</time>
   <energy>
    <i name="e_fr_energy">   -313.25649428 </i>
    <i name="e_wo_entrp">   -313.25649428 </i>
    <i name="e_0_energy">   -313.25649428 </i>
   </energy>
  </scstep>
  <scstep>
   <time name="total">   50.50   50.51</time>
   <energy>
    <i name="e_fr_energy">   -313.25587853 </i>
    <i name="e_wo_entrp">   -313.25587853 </i>
    <i name="e_0_energy">   -313.25587853 </i>
   </energy>
  </scstep>
  <scstep>
   <time name="total">   54.48   54.49</time>
   <energy>
    <i name="e_fr_energy">   -313.25603102 </i>
    <i name="e_wo_entrp">   -313.25603102 </i>
    <i name="e_0_energy">   -313.25603102 </i>
   </energy>
  </scstep>
  <scstep>
   <time name="total">   51.77   51.77</time>
   <energy>
    <i name="e_fr_energy">   -313.25603822 </i>
    <i name="e_wo_entrp">   -313.25603822 </i>
    <i name="e_0_energy">   -313.25603822 </i>
   </energy>
  </scstep>
  <scstep>
   <time name="total">   51.99   51.99</time>
   <energy>
    <i name="e_fr_energy">   -313.25606515 </i>
    <i name="e_wo_entrp">   -313.25606515 </i>
    <i name="e_0_energy">   -313.25606515 </i>
   </energy>
  </scstep>
  <kpoints>
   <generation param="Gamma">
    <v type="int" name="divisions">       6        6        6 </v>
    <v name="usershift">      0.00000000       0.00000000       0.00000000 </v>
    <v name="genvec1">      0.16666667       0.00000000       0.00000000 </v>
    <v name="genvec2">      0.00000000       0.16666667       0.00000000 </v>
    <v name="genvec3">      0.00000000       0.00000000       0.16666667 </v>
    <v name="shift">      0.00000000       0.00000000       0.00000000 </v>
   </generation>
   <varray name="kpointlist" >
    <v>       0.00000000       0.00000000       0.00000000 </v>
    <v>       0.16666667       0.00000000       0.00000000 </v>
    <v>       0.33333333       0.00000000       0.00000000 </v>
    <v>       0.50000000       0.00000000       0.00000000 </v>
    <v>       0.16666667       0.16666667       0.00000000 </v>
    <v>       0.33333333       0.16666667       0.00000000 </v>
    <v>       0.50000000       0.16666667       0.00000000 </v>
    <v>      -0.33333333       0.16666667       0.00000000 </v>
    <v>      -0.16666667       0.16666667       0.00000000 </v>
    <v>       0.33333333       0.33333333       0.00000000 </v>
    <v>       0.50000000       0.33333333       0.00000000 </v>
    <v>      -0.33333333       0.33333333       0.00000000 </v>
    <v>       0.50000000       0.50000000       0.00000000 </v>
    <v>       0.00000000       0.00000000       0.16666667 </v>
    <v>       0.16666667       0.00000000       0.16666667 </v>
    <v>       0.33333333       0.00000000       0.16666667 </v>
    <v>       0.50000000       0.00000000       0.16666667 </v>
    <v>       0.16666667       0.16666667       0.16666667 </v>
    <v>       0.33333333       0.16666667       0.16666667 </v>
    <v>       0.50000000       0.16666667       0.16666667 </v>
    <v>      -0.33333333       0.16666667       0.16666667 </v>
    <v>      -0.16666667       0.16666667       0.16666667 </v>
    <v>       0.33333333       0.33333333       0.16666667 </v>
    <v>       0.50000000       0.33333333       0.16666667 </v>
    <v>      -0.33333333       0.33333333       0.16666667 </v>
    <v>       0.50000000       0.50000000       0.16666667 </v>
    <v>       0.00000000       0.00000000       0.33333333 </v>
    <v>       0.16666667       0.00000000       0.33333333 </v>
    <v>       0.33333333       0.00000000       0.33333333 </v>
    <v>       0.50000000       0.00000000       0.33333333 </v>
    <v>       0.16666667       0.16666667       0.33333333 </v>
    <v>       0.33333333       0.16666667       0.33333333 </v>
    <v>       0.50000000       0.16666667       0.33333333 </v>
    <v>      -0.33333333       0.16666667       0.33333333 </v>
    <v>      -0.16666667       0.16666667       0.33333333 </v>
    <v>       0.33333333       0.33333333       0.33333333 </v>
    <v>       0.50000000       0.33333333       0.33333333 </v>
    <v>      -0.33333333       0.33333333       0.33333333 </v>
    <v>       0.50000000       0.50000000       0.33333333 </v>
    <v>       0.00000000       0.00000000       0.50000000 </v>
    <v>       0.16666667       0.00000000       0.50000000 </v>
    <v>       0.33333333       0.00000000       0.50000000 </v>
    <v>       0.50000000       0.00000000       0.50000000 </v>
    <v>       0.16666667       0.16666667       0.50000000 </v>
    <v>       0.33333333       0.16666667       0.50000000 </v>
    <v>       0.50000000       0.16666667       0.50000000 </v>
    <v>      -0.33333333       0.16666667       0.50000000 </v>
    <v>      -0.16666667       0.16666667       0.50000000 </v>
    <v>       0.33333333       0.33333333       0.50000000 </v>
    <v>       0.50000000       0.33333333       0.50000000 </v>
    <v>      -0.33333333       0.33333333       0.50000000 </v>
    <v>       0.50000000       0.50000000       0.50000000 </v>
   </varray>
   <varray name="weights" >
    <v>       0.00462963 </v>
    <v>       0.01851852 </v>
    <v>       0.01851852 </v>
    <v>       0.00925926 </v>
    <v>       0.00925926 </v>
    <v>       0.01851852 </v>
    <v>       0.01851852 </v>
    <v>       0.01851852 </v>
    <v>       0.00925926 </v>
    <v>       0.00925926 </v>
    <v>       0.01851852 </v>
    <v>       0.00925926 </v>
    <v>       0.00462963 </v>
    <v>       0.00925926 </v>
    <v>       0.03703704 </v>
    <v>       0.03703704 </v>
    <v>       0.01851852 </v>
    <v>       0.01851852 </v>
    <v>       0.03703704 </v>
    <v>       0.03703704 </v>
    <v>       0.03703704 </v>
    <v>       0.01851852 </v>
    <v>       0.01851852 </v>
    <v>       0.03703704 </v>
    <v>       0.01851852 </v>
    <v>       0.00925926 </v>
    <v>       0.00925926 </v>
    <v>       0.03703704 </v>
    <v>       0.03703704 </v>
    <v>       0.01851852 </v>
    <v>       0.01851852 </v>
    <v>       0.03703704 </v>
    <v>       0.03703704 </v>
    <v>       0.03703704 </v>
    <v>       0.01851852 </v>
    <v>       0.01851852 </v>
    <v>       0.03703704 </v>
    <v>       0.01851852 </v>
    <v>       0.00925926 </v>
    <v>       0.00462963 </v>
    <v>       0.01851852 </v>
    <v>       0.01851852 </v>
    <v>       0.00925926 </v>
    <v>       0.00925926 </v>
    <v>       0.01851852 </v>
    <v>       0.01851852 </v>
    <v>       0.01851852 </v>
    <v>       0.00925926 </v>
    <v>       0.00925926 </v>
    <v>       0.01851852 </v>
    <v>       0.00925926 </v>
    <v>       0.00462963 </v>
   </varray>
  </kpoints>
  <scstep>
   <time name="total">   42.99   42.99</time>
   <energy>
    <i name="e_fr_energy">   -370.63014235 </i>
    <i name="e_wo_entrp">   -370.63014235 </i>
    <i name="e_0_energy">   -370.63014235 </i>
   </energy>
  </scstep>
  <scstep>
   <time name="total">   30.95   30.95</time>
   <energy>
    <i name="e_fr_energy">   -312.68489834 </i>
    <i name="e_wo_entrp">   -312.68489834 </i>
    <i name="e_0_energy">   -312.68489834 </i>
   </energy>
  </scstep>
  <scstep>
   <time name="total">   33.83   33.83</time>
   <energy>
    <i name="e_fr_energy">   -312.13415270 </i>
    <i name="e_wo_entrp">   -312.13415270 </i>
    <i name="e_0_energy">   -312.13415270 </i>
   </energy>
  </scstep>
  <scstep>
   <time name="total">   31.54   31.55</time>
   <energy>
    <i name="e_fr_energy">   -312.84832827 </i>
    <i name="e_wo_entrp">   -312.84832827 </i>
    <i name="e_0_energy">   -312.84832827 </i>
   </energy>
  </scstep>
  <scstep>
   <time name="total">   32.69   32.70</time>
   <energy>
    <i name="e_fr_energy">   -313.08835102 </i>
    <i name="e_wo_entrp">   -313.08835102 </i>
    <i name="e_0_energy">   -313.08835102 </i>
   </energy>
  </scstep>
  <scstep>
   <time name="total">   31.71   31.71</time>
   <energy>
    <i name="e_fr_energy">   -313.04671599 </i>
    <i name="e_wo_entrp">   -313.04671599 </i>
    <i name="e_0_energy">   -313.04671599 </i>
   </energy>
  </scstep>
  <scstep>
   <time name="total">   32.21   32.21</time>
   <energy>
    <i name="e_fr_energy">   -313.02544954 </i>
    <i name="e_wo_entrp">   -313.02544954 </i>
    <i name="e_0_energy">   -313.02544954 </i>
   </energy>
  </scstep>
  <scstep>
   <time name="total">   32.55   32.55</time>
   <energy>
    <i name="e_fr_energy">   -313.02401112 </i>
    <i name="e_wo_entrp">   -313.02401112 </i>
    <i name="e_0_energy">   -313.02401112 </i>
   </energy>
  </scstep>
  <scstep>
   <time name="total">   32.96   32.97</time>
   <energy>
    <i name="e_fr_energy">   -313.02340901 </i>
    <i name="e_wo_entrp">   -313.02340901 </i>
    <i name="e_0_energy">   -313.02340901 </i>
   </energy>
  </scstep>
  <scstep>
   <time name="total">   33.50   33.50</time>
   <energy>
    <i name="e_fr_energy">   -313.02356335 </i>
    <i name="e_wo_entrp">   -313.02356335 </i>
    <i name="e_0_energy">   -313.02356335 </i>
   </energy>
  </scstep>
  <scstep>
   <time name="total">   33.86   33.86</time>
   <energy>
    <i name="e_fr_energy">   -313.02357871 </i>
    <i name="e_wo_entrp">   -313.02357871 </i>
    <i name="e_0_energy">   -313.02357871 </i>
   </energy>
  </scstep>
  <kpoints>
   <generation param="Gamma">
    <v type="int" name="divisions">       6        6        6 </v>
    <v name="usershift">      0.00000000       0.00000000       0.00000000 </v>
    <v name="genvec1">      0.16666667       0.00000000       0.00000000 </v>
    <v name="genvec2">      0.00000000       0.16666667       0.00000000 </v>
    <v name="genvec3">      0.00000000       0.00000000       0.16666667 </v>
    <v name="shift">      0.00000000       0.00000000       0.00000000 </v>
   </generation>
   <varray name="kpointlist" >
    <v>       0.00000000       0.00000000       0.00000000 </v>
    <v>       0.16666667       0.00000000       0.00000000 </v>
    <v>       0.33333333       0.00000000       0.00000000 </v>
    <v>       0.50000000       0.00000000       0.00000000 </v>
    <v>       0.16666667       0.16666667       0.00000000 </v>
    <v>       0.33333333       0.16666667       0.00000000 </v>
    <v>       0.50000000       0.16666667       0.00000000 </v>
    <v>       0.33333333       0.33333333       0.00000000 </v>
    <v>       0.50000000       0.33333333       0.00000000 </v>
    <v>       0.50000000       0.50000000       0.00000000 </v>
    <v>       0.00000000       0.00000000       0.16666667 </v>
    <v>       0.16666667       0.00000000       0.16666667 </v>
    <v>       0.33333333       0.00000000       0.16666667 </v>
    <v>       0.50000000       0.00000000       0.16666667 </v>
    <v>       0.16666667       0.16666667       0.16666667 </v>
    <v>       0.33333333       0.16666667       0.16666667 </v>
    <v>       0.50000000       0.16666667       0.16666667 </v>
    <v>       0.33333333       0.33333333       0.16666667 </v>
    <v>       0.50000000       0.33333333       0.16666667 </v>
    <v>       0.50000000       0.50000000       0.16666667 </v>
    <v>       0.00000000       0.00000000       0.33333333 </v>
    <v>       0.16666667       0.00000000       0.33333333 </v>
    <v>       0.33333333       0.00000000       0.33333333 </v>
    <v>       0.50000000       0.00000000       0.33333333 </v>
    <v>       0.16666667       0.16666667       0.33333333 </v>
    <v>       0.33333333       0.16666667       0.33333333 </v>
    <v>       0.50000000       0.16666667       0.33333333 </v>
    <v>       0.33333333       0.33333333       0.33333333 </v>
    <v>       0.50000000       0.33333333       0.33333333 </v>
    <v>       0.50000000       0.50000000       0.33333333 </v>
    <v>       0.00000000       0.00000000       0.50000000 </v>
    <v>       0.16666667       0.00000000       0.50000000 </v>
    <v>       0.33333333       0.00000000       0.50000000 </v>
    <v>       0.50000000       0.00000000       0.50000000 </v>
    <v>       0.16666667       0.16666667       0.50000000 </v>
    <v>       0.33333333       0.16666667       0.50000000 </v>
    <v>       0.50000000       0.16666667       0.50000000 </v>
    <v>       0.33333333       0.33333333       0.50000000 </v>
    <v>       0.50000000       0.33333333       0.50000000 </v>
    <v>       0.50000000       0.50000000       0.50000000 </v>
   </varray>
   <varray name="weights" >
    <v>       0.00462963 </v>
    <v>       0.01851852 </v>
    <v>       0.01851852 </v>
    <v>       0.00925926 </v>
    <v>       0.01851852 </v>
    <v>       0.03703704 </v>
    <v>       0.01851852 </v>
    <v>       0.01851852 </v>
    <v>       0.01851852 </v>
    <v>       0.00462963 </v>
    <v>       0.00925926 </v>
    <v>       0.03703704 </v>
    <v>       0.03703704 </v>
    <v>       0.01851852 </v>
    <v>       0.03703704 </v>
    <v>       0.07407407 </v>
    <v>       0.03703704 </v>
    <v>       0.03703704 </v>
    <v>       0.03703704 </v>
    <v>       0.00925926 </v>
    <v>       0.00925926 </v>
    <v>       0.03703704 </v>
    <v>       0.03703704 </v>
    <v>       0.01851852 </v>
    <v>       0.03703704 </v>
    <v>       0.07407407 </v>
    <v>       0.03703704 </v>
    <v>       0.03703704 </v>
    <v>       0.03703704 </v>
    <v>       0.00925926 </v>
    <v>       0.00462963 </v>
    <v>       0.01851852 </v>
    <v>       0.01851852 </v>
    <v>       0.00925926 </v>
    <v>       0.01851852 </v>
    <v>       0.03703704 </v>
    <v>       0.01851852 </v>
    <v>       0.01851852 </v>
    <v>       0.01851852 </v>
    <v>       0.00462963 </v>
   </varray>
  </kpoints>
  <dynmat>
   <varray name="hessian" >
    <v>      -3.88799878       0.00000000       0.00000000       0.01408034      -0.00000000       0.00000000       0.00798893       0.00000000      -0.00000000       0.01116603       0.00000000       0.00000000       0.00871141       0.00000000       0.00000000       0.01030400       0.00000000      -0.00000000      -0.04859058      -0.00000000      -0.00000000       0.00456258       0.00000000      -0.00000000      -0.01358027      -0.00751861       0.00226443       0.00901841      -0.01142893      -0.01880115       0.80485426      -0.20836337      -0.21587167      -0.00478748      -0.00751861      -0.00729277       0.02956454      -0.01846206      -0.01889535      -0.00283877      -0.00239057      -0.00264984      -0.01378256       0.00367246      -0.00896648       0.00695270      -0.01846206      -0.00860070      -0.11963656       0.06359569      -0.06106344      -0.00550325       0.00322506      -0.00333844      -0.11963656       0.06359569       0.06106344      -0.00550325       0.00322506       0.00333844      -0.11963656      -0.06359569      -0.06106344      -0.00550325      -0.00322506      -0.00333844      -0.11963656      -0.06359569       0.06106344      -0.00550325      -0.00322506       0.00333844       0.80485426       0.20836337       0.21587167      -0.00478748       0.00751861       0.00729277      -0.01358027       0.00751861      -0.00226443       0.00901841       0.01142893       0.01880115      -0.01378256      -0.00367246       0.00896648       0.00695270       0.01846206       0.00860070       0.02956454       0.01846206       0.01889535      -0.00283877       0.00239057       0.00264984       0.12910846      -0.06359569       0.13464286       0.12910846      -0.06359569      -0.13464286       0.00718327      -0.00322506      -0.00626488       0.00718327      -0.00322506       0.00626488       0.12910846       0.06359569      -0.13464286       0.12910846       0.06359569       0.13464286       0.00718327       0.00322506       0.00626488       0.00718327       0.00322506      -0.00626488      -0.01358027       0.00751861       0.00226443       0.00901841       0.01142893      -0.01880115       0.80485426       0.20836337      -0.21587167      -0.00478748       0.00751861      -0.00729277       0.02956454       0.01846206      -0.01889535      -0.00283877       0.00239057      -0.00264984      -0.01378256      -0.00367246      -0.00896648       0.00695270       0.01846206      -0.00860070       0.13646338      -0.14472463       0.06230627       0.13646338       0.14472463       0.06230627       0.13646338       0.14472463      -0.06230627       0.13646338      -0.14472463      -0.06230627       0.00692789       0.00579451       0.00345606       0.00692789      -0.00579451       0.00345606       0.00692789      -0.00579451      -0.00345606       0.00692789       0.00579451      -0.00345606       0.80485426      -0.20836337       0.21587167      -0.00478748      -0.00751861       0.00729277      -0.01358027      -0.00751861      -0.00226443       0.00901841      -0.01142893       0.01880115      -0.01378256       0.00367246       0.00896648       0.00695270      -0.01846206       0.00860070       0.02956454      -0.01846206       0.01889535      -0.00283877      -0.00239057       0.00264984 </v>
    <v>       0.00000000      -3.88799878       0.00000000      -0.00000000       0.00798893      -0.00000000       0.00000000       0.01408034      -0.00000000       0.00000000       0.01116603      -0.00000000       0.00000000       0.00871141       0.00000000       0.00000000      -0.04859058       0.00000000      -0.00000000       0.01030400       0.00000000       0.00000000       0.00456258      -0.00000000      -0.00751861      -0.00478748       0.00729277      -0.01142893       0.00901841       0.01880115      -0.20836337       0.80485426       0.21587167      -0.00751861      -0.01358027      -0.00226443      -0.01846206       0.00695270       0.00860070      -0.00239057      -0.00283877       0.00264984       0.00367246      -0.01378256       0.00896648      -0.01846206       0.02956454       0.01889535      -0.06359569       0.12910846      -0.13464286      -0.00322506       0.00718327       0.00626488      -0.06359569       0.12910846       0.13464286      -0.00322506       0.00718327      -0.00626488       0.06359569       0.12910846       0.13464286       0.00322506       0.00718327      -0.00626488       0.06359569       0.12910846      -0.13464286       0.00322506       0.00718327       0.00626488       0.20836337       0.80485426       0.21587167       0.00751861      -0.01358027      -0.00226443       0.00751861      -0.00478748       0.00729277       0.01142893       0.00901841       0.01880115      -0.00367246      -0.01378256       0.00896648       0.01846206       0.02956454       0.01889535       0.01846206       0.00695270       0.00860070       0.00239057      -0.00283877       0.00264984       0.06359569      -0.11963656       0.06106344       0.06359569      -0.11963656      -0.06106344       0.00322506      -0.00550325       0.00333844       0.00322506      -0.00550325      -0.00333844      -0.06359569      -0.11963656       0.06106344      -0.06359569      -0.11963656      -0.06106344      -0.00322506      -0.00550325       0.00333844      -0.00322506      -0.00550325      -0.00333844       0.00751861      -0.00478748      -0.00729277       0.01142893       0.00901841      -0.01880115       0.20836337       0.80485426      -0.21587167       0.00751861      -0.01358027       0.00226443       0.01846206       0.00695270      -0.00860070       0.00239057      -0.00283877      -0.00264984      -0.00367246      -0.01378256      -0.00896648       0.01846206       0.02956454      -0.01889535      -0.14472463       0.13646338      -0.06230627       0.14472463       0.13646338       0.06230627       0.14472463       0.13646338      -0.06230627      -0.14472463       0.13646338       0.06230627       0.00579451       0.00692789      -0.00345606      -0.00579451       0.00692789       0.00345606      -0.00579451       0.00692789      -0.00345606       0.00579451       0.00692789       0.00345606      -0.20836337       0.80485426      -0.21587167      -0.00751861      -0.01358027       0.00226443      -0.00751861      -0.00478748      -0.00729277      -0.01142893       0.00901841      -0.01880115       0.00367246      -0.01378256      -0.00896648      -0.01846206       0.02956454      -0.01889535      -0.01846206       0.00695270      -0.00860070      -0.00239057      -0.00283877      -0.00264984 </v>
    <v>       0.00000000       0.00000000      -3.82942740       0.00000000      -0.00000000       0.00700408      -0.00000000      -0.00000000       0.00700408       0.00000000      -0.00000000      -0.04705889       0.00000000       0.00000000       0.01484534      -0.00000000       0.00000000       0.00994409      -0.00000000       0.00000000       0.00994409      -0.00000000      -0.00000000       0.00439710       0.00226443       0.00729277      -0.01252969      -0.01880115       0.01880115       0.02819539      -0.21587167       0.21587167       0.79324036      -0.00729277      -0.00226443      -0.01252969      -0.01889535       0.00860070       0.00635114      -0.00264984       0.00264984      -0.00279398      -0.00896648       0.00896648      -0.00707180      -0.00860070       0.01889535       0.00635114       0.06106344      -0.13464286       0.13183847       0.00333844       0.00626488       0.00726809      -0.06106344       0.13464286       0.13183847      -0.00333844      -0.00626488       0.00726809       0.06106344       0.13464286       0.13183847       0.00333844      -0.00626488       0.00726809      -0.06106344      -0.13464286       0.13183847      -0.00333844       0.00626488       0.00726809       0.21587167       0.21587167       0.79324036       0.00729277      -0.00226443      -0.01252969      -0.00226443       0.00729277      -0.01252969       0.01880115       0.01880115       0.02819539       0.00896648       0.00896648      -0.00707180       0.00860070       0.01889535       0.00635114       0.01889535       0.00860070       0.00635114       0.00264984       0.00264984      -0.00279398       0.13464286      -0.06106344       0.13183847      -0.13464286       0.06106344       0.13183847      -0.00626488      -0.00333844       0.00726809       0.00626488       0.00333844       0.00726809      -0.13464286      -0.06106344       0.13183847       0.13464286       0.06106344       0.13183847       0.00626488      -0.00333844       0.00726809      -0.00626488       0.00333844       0.00726809       0.00226443      -0.00729277      -0.01252969      -0.01880115      -0.01880115       0.02819539      -0.21587167      -0.21587167       0.79324036      -0.00729277       0.00226443      -0.01252969      -0.01889535      -0.00860070       0.00635114      -0.00264984      -0.00264984      -0.00279398      -0.00896648      -0.00896648      -0.00707180      -0.00860070      -0.01889535       0.00635114      -0.06230627       0.06230627      -0.11708548      -0.06230627      -0.06230627      -0.11708548       0.06230627       0.06230627      -0.11708548       0.06230627      -0.06230627      -0.11708548      -0.00345606       0.00345606      -0.00450364      -0.00345606      -0.00345606      -0.00450364       0.00345606       0.00345606      -0.00450364       0.00345606      -0.00345606      -0.00450364       0.21587167      -0.21587167       0.79324036       0.00729277       0.00226443      -0.01252969      -0.00226443      -0.00729277      -0.01252969       0.01880115      -0.01880115       0.02819539       0.00896648      -0.00896648      -0.00707180       0.00860070      -0.01889535       0.00635114       0.01889535      -0.00860070       0.00635114       0.00264984      -0.00264984      -0.00279398 </v>
    <v>       0.01408034      -0.00000000       0.00000000      -3.88799878       0.00000000       0.00000000       0.01116603       0.00000000       0.00000000       0.00798893       0.00000000      -0.00000000       0.01030400       0.00000000      -0.00000000       0.00871141       0.00000000       0.00000000       0.00456258       0.00000000      -0.00000000      -0.04859058      -0.00000000      -0.00000000       0.00901841      -0.01142893      -0.01880115      -0.01358027      -0.00751861       0.00226443      -0.00478748      -0.00751861      -0.00729277       0.80485426      -0.20836337      -0.21587167      -0.00283877      -0.00239057      -0.00264984       0.02956454      -0.01846206      -0.01889535       0.00695270      -0.01846206      -0.00860070      -0.01378256       0.00367246      -0.00896648      -0.00550325       0.00322506      -0.00333844      -0.11963656       0.06359569      -0.06106344      -0.00550325       0.00322506       0.00333844      -0.11963656       0.06359569       0.06106344      -0.00550325      -0.00322506      -0.00333844      -0.11963656      -0.06359569      -0.06106344      -0.00550325      -0.00322506       0.00333844      -0.11963656      -0.06359569       0.06106344      -0.00478748       0.00751861       0.00729277       0.80485426       0.20836337       0.21587167       0.00901841       0.01142893       0.01880115      -0.01358027       0.00751861      -0.00226443       0.00695270       0.01846206       0.00860070      -0.01378256      -0.00367246       0.00896648      -0.00283877       0.00239057       0.00264984       0.02956454       0.01846206       0.01889535       0.12910846      -0.06359569      -0.13464286       0.12910846      -0.06359569       0.13464286       0.00718327      -0.00322506       0.00626488       0.00718327      -0.00322506      -0.00626488       0.12910846       0.06359569       0.13464286       0.12910846       0.06359569      -0.13464286       0.00718327       0.00322506      -0.00626488       0.00718327       0.00322506       0.00626488       0.00901841       0.01142893      -0.01880115      -0.01358027       0.00751861       0.00226443      -0.00478748       0.00751861      -0.00729277       0.80485426       0.20836337      -0.21587167      -0.00283877       0.00239057      -0.00264984       0.02956454       0.01846206      -0.01889535       0.00695270       0.01846206      -0.00860070      -0.01378256      -0.00367246      -0.00896648       0.13646338       0.14472463       0.06230627       0.13646338      -0.14472463       0.06230627       0.13646338      -0.14472463      -0.06230627       0.13646338       0.14472463      -0.06230627       0.00692789      -0.00579451       0.00345606       0.00692789       0.00579451       0.00345606       0.00692789       0.00579451      -0.00345606       0.00692789      -0.00579451      -0.00345606      -0.00478748      -0.00751861       0.00729277       0.80485426      -0.20836337       0.21587167       0.00901841      -0.01142893       0.01880115      -0.01358027      -0.00751861      -0.00226443       0.00695270      -0.01846206       0.00860070      -0.01378256       0.00367246       0.00896648      -0.00283877      -0.00239057       0.00264984       0.02956454      -0.01846206       0.01889535 </v>
[...]
      </set>
     </set>
    </set>
   </array>
  </eigenvalues>
  <separator name="orbital magnetization" >
   <v name="MAGDIPOLOUT">      0.00000000      0.00000000      0.00000000</v>
  </separator>
  <dos>
   <i name="efermi">     10.46834078 </i>
   <total>
    <array>
     <dimension dim="1">gridpoints</dimension>
     <dimension dim="2">spin</dimension>
     <field>energy</field>
     <field>total</field>
     <field>integrated</field>
     <set>
      <set comment="spin 1">
       <r>   -13.3828     0.0000     0.0000 </r>
       <r>   -13.2593     0.0000     0.0000 </r>
       <r>   -13.1357     0.0000     0.0000 </r>
       <r>   -13.0122     0.0000     0.0000 </r>
       <r>   -12.8886     0.0000     0.0000 </r>
       <r>   -12.7651     0.0000     0.0000 </r>
       <r>   -12.6416     0.0000     0.0000 </r>
       <r>   -12.5180     0.0000     0.0000 </r>
       <r>   -12.3945     0.0000     0.0000 </r>
       <r>   -12.2709     0.0000     0.0000 </r>
       <r>   -12.1474     0.0000     0.0000 </r>
       <r>   -12.0238     0.0000     0.0000 </r>
       <r>   -11.9003     0.0000     0.0000 </r>
       <r>   -11.7768     0.0026     0.0003 </r>
       <r>   -11.6532     0.2244     0.0280 </r>
       <r>   -11.5297     1.1947     0.1756 </r>
       <r>   -11.4061     1.3552     0.3431 </r>
       <r>   -11.2826     2.7766     0.6861 </r>
       <r>   -11.1591     1.4613     0.8666 </r>
       <r>   -11.0355     3.4582     1.2938 </r>
       <r>   -10.9120     2.7790     1.6372 </r>
       <r>   -10.7884     3.7183     2.0965 </r>
       <r>   -10.6649     2.2847     2.3788 </r>
       <r>   -10.5414     4.4437     2.9278 </r>
       <r>   -10.4178     4.2705     3.4554 </r>
       <r>   -10.2943     4.8012     4.0485 </r>
       <r>   -10.1707     2.3936     4.3442 </r>
       <r>   -10.0472     4.4989     4.9000 </r>
       <r>    -9.9236     6.0911     5.6525 </r>
       <r>    -9.8001     5.4002     6.3196 </r>
       <r>    -9.6766     4.3348     6.8552 </r>
       <r>    -9.5530     3.8729     7.3336 </r>
       <r>    -9.4295     6.6836     8.1593 </r>
       <r>    -9.3059     5.0524     8.7835 </r>
       <r>    -9.1824     5.4668     9.4589 </r>
       <r>    -9.0589     6.0022    10.2004 </r>
       <r>    -8.9353     7.6133    11.1410 </r>
       <r>    -8.8118     5.7593    11.8525 </r>
       <r>    -8.6882     5.3933    12.5188 </r>
       <r>    -8.5647     3.8244    12.9912 </r>
       <r>    -8.4412     8.6439    14.0591 </r>
       <r>    -8.3176     7.5521    14.9921 </r>
       <r>    -8.1941     8.4646    16.0378 </r>
       <r>    -8.0705     6.2302    16.8075 </r>
       <r>    -7.9470     5.7258    17.5149 </r>
       <r>    -7.8235     7.3326    18.4208 </r>
       <r>    -7.6999     7.6179    19.3619 </r>
       <r>    -7.5764     6.2980    20.1399 </r>
       <r>    -7.4528     9.9424    21.3682 </r>
       <r>    -7.3293     8.2666    22.3895 </r>
       <r>    -7.2057     7.9064    23.3663 </r>
       <r>    -7.0822     6.0743    24.1167 </r>
       <r>    -6.9587    11.3812    25.5227 </r>
       <r>    -6.8351     9.4688    26.6925 </r>
       <r>    -6.7116     6.1602    27.4536 </r>
       <r>    -6.5880     7.5696    28.3887 </r>
       <r>    -6.4645     9.1936    29.5245 </r>
       <r>    -6.3410    10.7028    30.8467 </r>
       <r>    -6.2174    10.3808    32.1292 </r>
       <r>    -6.0939    12.4159    33.6631 </r>
       <r>    -5.9703     9.7673    34.8697 </r>
       <r>    -5.8468    10.1852    36.1280 </r>
       <r>    -5.7233     9.8764    37.3482 </r>
       <r>    -5.5997     9.7865    38.5572 </r>
       <r>    -5.4762    13.8549    40.2688 </r>
       <r>    -5.3526    13.1671    41.8955 </r>
       <r>    -5.2291    11.1215    43.2695 </r>
       <r>    -5.1055     8.1790    44.2799 </r>
       <r>    -4.9820    12.2803    45.7971 </r>
       <r>    -4.8585    11.3746    47.2023 </r>
       <r>    -4.7349    10.9198    48.5513 </r>
       <r>    -4.6114     8.4575    49.5962 </r>
       <r>    -4.4878     8.8334    50.6875 </r>
       <r>    -4.3643     8.2761    51.7099 </r>
       <r>    -4.2408     8.2215    52.7256 </r>
       <r>    -4.1172     7.5129    53.6538 </r>
       <r>    -3.9937    12.1821    55.1587 </r>
       <r>    -3.8701     5.5258    55.8414 </r>
       <r>    -3.7466     6.4097    56.6333 </r>
       <r>    -3.6231    10.1064    57.8818 </r>
       <r>    -3.4995     9.7729    59.0892 </r>
       <r>    -3.3760     9.1162    60.2154 </r>
       <r>    -3.2524     5.8512    60.9383 </r>
       <r>    -3.1289     6.7608    61.7735 </r>
       <r>    -3.0054     9.6583    62.9667 </r>
       <r>    -2.8818     6.0598    63.7153 </r>
       <r>    -2.7583     6.9774    64.5773 </r>
       <r>    -2.6347    13.3553    66.2273 </r>
       <r>    -2.5112    12.0394    67.7146 </r>
       <r>    -2.3876     9.0698    68.8351 </r>
       <r>    -2.2641     6.1714    69.5975 </r>
       <r>    -2.1406    11.9246    71.0707 </r>
       <r>    -2.0170    11.0432    72.4350 </r>
       <r>    -1.8935     9.6309    73.6248 </r>
       <r>    -1.7699    10.2399    74.8899 </r>
       <r>    -1.6464    14.6551    76.7004 </r>
       <r>    -1.5229    21.2991    79.3317 </r>
       <r>    -1.3993    17.9942    81.5547 </r>
       <r>    -1.2758    20.9702    84.1454 </r>
       <r>    -1.1522    22.7653    86.9578 </r>
       <r>    -1.0287    12.3140    88.4791 </r>
       <r>    -0.9052     9.7836    89.6878 </r>
       <r>    -0.7816     9.5234    90.8643 </r>
       <r>    -0.6581     8.4690    91.9106 </r>
       <r>    -0.5345    11.8633    93.3762 </r>
       <r>    -0.4110     9.5304    94.5536 </r>
       <r>    -0.2874     9.4192    95.7173 </r>
       <r>    -0.1639    10.8771    97.0610 </r>
       <r>    -0.0404    11.7181    98.5087 </r>
       <r>     0.0832    13.1150   100.1289 </r>
       <r>     0.2067    10.8494   101.4693 </r>
       <r>     0.3303     3.2230   101.8675 </r>
       <r>     0.4538     4.0151   102.3635 </r>
       <r>     0.5773    11.3913   103.7708 </r>
       <r>     0.7009    16.3838   105.7948 </r>
       <r>     0.8244     8.2980   106.8200 </r>
       <r>     0.9480     9.3522   107.9754 </r>
       <r>     1.0715    15.3582   109.8727 </r>
       <r>     1.1950    19.7512   112.3128 </r>
       <r>     1.3186    19.9264   114.7745 </r>
       <r>     1.4421    18.5967   117.0720 </r>
       <r>     1.5657    11.6846   118.5155 </r>
       <r>     1.6892    10.1194   119.7657 </r>
       <r>     1.8127    15.0456   121.6244 </r>
       <r>     1.9363    17.4279   123.7775 </r>
       <r>     2.0598    24.1681   126.7632 </r>
       <r>     2.1834    15.5783   128.6878 </r>
       <r>     2.3069    14.9176   130.5307 </r>
       <r>     2.4305    11.9944   132.0125 </r>
       <r>     2.5540    16.4345   134.0429 </r>
       <r>     2.6775    19.1205   136.4050 </r>
       <r>     2.8011    21.3255   139.0396 </r>
       <r>     2.9246    19.2438   141.4170 </r>
       <r>     3.0482    17.2369   143.5465 </r>
       <r>     3.1717    16.0588   145.5304 </r>
       <r>     3.2952    18.1912   147.7777 </r>
       <r>     3.4188    19.7266   150.2148 </r>
       <r>     3.5423    28.5400   153.7406 </r>
       <r>     3.6659    26.9576   157.0710 </r>
       <r>     3.7894    22.9417   159.9052 </r>
       <r>     3.9129    19.8959   162.3632 </r>
       <r>     4.0365    20.9964   164.9571 </r>
       <r>     4.1600    21.1875   167.5746 </r>
       <r>     4.2836    29.3094   171.1956 </r>
       <r>     4.4071    27.7755   174.6270 </r>
       <r>     4.5307    28.8509   178.1913 </r>
       <r>     4.6542    20.1337   180.6786 </r>
       <r>     4.7777    22.0505   183.4027 </r>
       <r>     4.9013    18.2919   185.6625 </r>
       <r>     5.0248    23.1364   188.5208 </r>
       <r>     5.1484    19.8258   190.9701 </r>
       <r>     5.2719    27.3781   194.3524 </r>
       <r>     5.3954    26.4254   197.6171 </r>
       <r>     5.5190    22.8787   200.4435 </r>
       <r>     5.6425    18.2105   202.6933 </r>
       <r>     5.7661    21.2218   205.3150 </r>
       <r>     5.8896    18.2297   207.5671 </r>
       <r>     6.0131    26.8113   210.8794 </r>
       <r>     6.1367    16.8315   212.9588 </r>
       <r>     6.2602    19.9666   215.4255 </r>
       <r>     6.3838    23.3536   218.3106 </r>
       <r>     6.5073    23.7550   221.2453 </r>
       <r>     6.6308    19.1016   223.6052 </r>
       <r>     6.7544    19.6349   226.0309 </r>
       <r>     6.8779    18.6380   228.3334 </r>
       <r>     7.0015    17.4496   230.4892 </r>
       <r>     7.1250    15.6635   232.4243 </r>
       <r>     7.2486    25.7606   235.6068 </r>
       <r>     7.3721    15.8995   237.5710 </r>
       <r>     7.4956    15.9422   239.5405 </r>
       <r>     7.6192    10.1752   240.7976 </r>
       <r>     7.7427    10.4321   242.0864 </r>
       <r>     7.8663    11.5724   243.5160 </r>
       <r>     7.9898    11.5798   244.9466 </r>
       <r>     8.1133    12.6027   246.5036 </r>
       <r>     8.2369     6.9043   247.3565 </r>
       <r>     8.3604     8.4618   248.4019 </r>
       <r>     8.4840     6.9085   249.2554 </r>
       <r>     8.6075     7.0924   250.1316 </r>
       <r>     8.7310     7.1074   251.0097 </r>
       <r>     8.8546     6.9081   251.8631 </r>
       <r>     8.9781     3.9340   252.3491 </r>
       <r>     9.1017     5.4670   253.0245 </r>
       <r>     9.2252     5.2991   253.6792 </r>
       <r>     9.3488     4.8221   254.2749 </r>
       <r>     9.4723     2.6361   254.6006 </r>
       <r>     9.5958     2.6038   254.9222 </r>
       <r>     9.7194     3.8255   255.3948 </r>
       <r>     9.8429     1.8801   255.6271 </r>
       <r>     9.9665     1.7682   255.8456 </r>
       <r>    10.0900     0.8344   255.9486 </r>
       <r>    10.2135     0.3620   255.9934 </r>
       <r>    10.3371     0.0537   256.0000 </r>
       <r>    10.4606     0.0001   256.0000 </r>
       <r>    10.5842     0.0000   256.0000 </r>
       <r>    10.7077     0.0000   256.0000 </r>
       <r>    10.8312     0.0000   256.0000 </r>
       <r>    10.9548     0.0000   256.0000 </r>
       <r>    11.0783     0.0000   256.0000 </r>
       <r>    11.2019     0.0000   256.0000 </r>
       <r>    11.3254     0.0000   256.0000 </r>
       <r>    11.4489     0.0000   256.0000 </r>
       <r>    11.5725     0.0000   256.0000 </r>
       <r>    11.6960     0.0000   256.0000 </r>
       <r>    11.8196     0.0000   256.0000 </r>
       <r>    11.9431     0.0000   256.0000 </r>
       <r>    12.0667     0.0000   256.0000 </r>
       <r>    12.1902     0.0000   256.0000 </r>
       <r>    12.3137     0.0000   256.0000 </r>
       <r>    12.4373     0.0000   256.0000 </r>
       <r>    12.5608     0.0000   256.0000 </r>
       <r>    12.6844     0.0000   256.0000 </r>
       <r>    12.8079     0.0000   256.0000 </r>
       <r>    12.9314     0.0000   256.0000 </r>
       <r>    13.0550     0.0000   256.0000 </r>
       <r>    13.1785     0.0000   256.0000 </r>
       <r>    13.3021     0.0000   256.0000 </r>
       <r>    13.4256     0.0000   256.0000 </r>
       <r>    13.5491     0.0000   256.0000 </r>
       <r>    13.6727     0.0000   256.0000 </r>
       <r>    13.7962     0.0000   256.0000 </r>
       <r>    13.9198     0.0000   256.0000 </r>
       <r>    14.0433     0.0529   256.0065 </r>
       <r>    14.1668     0.6543   256.0874 </r>
       <r>    14.2904     0.5043   256.1497 </r>
       <r>    14.4139     2.3628   256.4416 </r>
       <r>    14.5375     2.9243   256.8028 </r>
       <r>    14.6610     4.8362   257.4003 </r>
       <r>    14.7846     4.5038   257.9567 </r>
       <r>    14.9081     2.6466   258.2837 </r>
       <r>    15.0316     4.8286   258.8802 </r>
       <r>    15.1552     8.6605   259.9501 </r>
       <r>    15.2787    15.2380   261.8326 </r>
       <r>    15.4023     6.2731   262.6076 </r>
       <r>    15.5258     7.9356   263.5880 </r>
       <r>    15.6493    11.0691   264.9555 </r>
       <r>    15.7729    15.9220   266.9225 </r>
       <r>    15.8964    11.0364   268.2860 </r>
       <r>    16.0200    12.0653   269.7765 </r>
       <r>    16.1435    15.2552   271.6612 </r>
       <r>    16.2670    17.3516   273.8048 </r>
       <r>    16.3906    15.9373   275.7737 </r>
       <r>    16.5141    16.8068   277.8500 </r>
       <r>    16.6377    16.4059   279.8768 </r>
       <r>    16.7612    14.7031   281.6933 </r>
       <r>    16.8848    20.1414   284.1816 </r>
       <r>    17.0083    18.9088   286.5176 </r>
       <r>    17.1318    22.0447   289.2410 </r>
       <r>    17.2554    18.7072   291.5521 </r>
       <r>    17.3789    25.3269   294.6810 </r>
       <r>    17.5025    15.3725   296.5801 </r>
       <r>    17.6260    12.3350   298.1040 </r>
       <r>    17.7495    23.1279   300.9612 </r>
       <r>    17.8731    32.6773   304.9982 </r>
       <r>    17.9966    36.7263   309.5354 </r>
       <r>    18.1202    28.5469   313.0622 </r>
       <r>    18.2437    24.4040   316.0770 </r>
       <r>    18.3672    33.4479   320.2092 </r>
       <r>    18.4908    32.6781   324.2463 </r>
       <r>    18.6143    30.5951   328.0261 </r>
       <r>    18.7379    26.1859   331.2611 </r>
       <r>    18.8614    26.9175   334.5865 </r>
       <r>    18.9849    27.7142   338.0104 </r>
       <r>    19.1085    29.0971   341.6050 </r>
       <r>    19.2320    31.4915   345.4955 </r>
       <r>    19.3556    29.3720   349.1242 </r>
       <r>    19.4791    32.8208   353.1789 </r>
       <r>    19.6027    23.5147   356.0839 </r>
       <r>    19.7262    22.8465   358.9064 </r>
       <r>    19.8497    30.8524   362.7179 </r>
       <r>    19.9733    23.8999   365.6705 </r>
       <r>    20.0968    25.3605   368.8036 </r>
       <r>    20.2204    23.7090   371.7326 </r>
       <r>    20.3439    29.1138   375.3294 </r>
       <r>    20.4674    17.9670   377.5490 </r>
       <r>    20.5910    11.7995   379.0068 </r>
       <r>    20.7145    12.5656   380.5591 </r>
       <r>    20.8381     8.5773   381.6188 </r>
       <r>    20.9616     6.1164   382.3744 </r>
       <r>    21.0851     2.9235   382.7356 </r>
       <r>    21.2087     3.6619   383.1880 </r>
       <r>    21.3322     1.3170   383.3507 </r>
       <r>    21.4558     1.1395   383.4914 </r>
       <r>    21.5793     1.6317   383.6930 </r>
       <r>    21.7029     1.1738   383.8380 </r>
       <r>    21.8264     0.1120   383.8519 </r>
       <r>    21.9499     0.2774   383.8862 </r>
       <r>    22.0735     0.8985   383.9972 </r>
       <r>    22.1970     0.0231   384.0000 </r>
       <r>    22.3206     0.0000   384.0000 </r>
       <r>    22.4441     0.0000   384.0000 </r>
       <r>    22.5676     0.0000   384.0000 </r>
       <r>    22.6912     0.0000   384.0000 </r>
       <r>    22.8147     0.0000   384.0000 </r>
       <r>    22.9383     0.0000   384.0000 </r>
       <r>    23.0618     0.0000   384.0000 </r>
       <r>    23.1853     0.0000   384.0000 </r>
       <r>    23.3089     0.0000   384.0000 </r>
       <r>    23.4324     0.0000   384.0000 </r>
       <r>    23.5560     0.0000   384.0000 </r>
       <r>    23.6795     0.0000   384.0000 </r>
      </set>
     </set>
    </array>
   </total>
  </dos>
 </calculation>
 <structure name="finalpos" >
  <crystal>
   <varray name="basis" >
    <v>       7.03493249       0.00000000       0.00000000 </v>
    <v>       0.00000000       7.03493249       0.00000000 </v>
    <v>       0.00000000       0.00000000       7.17999872 </v>
   </varray>
   <i name="volume">    355.34011210 </i>
   <varray name="rec_basis" >
    <v>       0.14214777       0.00000000       0.00000000 </v>
    <v>       0.00000000       0.14214777       0.00000000 </v>
    <v>       0.00000000       0.00000000       0.13927579 </v>
   </varray>
  </crystal>
  <varray name="positions" >
   <v>       0.12500000       0.37500000       0.12500000 </v>
   <v>       0.62500000       0.37500000       0.12500000 </v>
   <v>       0.12500000       0.87500000       0.12500000 </v>
   <v>       0.62500000       0.87500000       0.12500000 </v>
   <v>       0.12500000       0.37500000       0.62500000 </v>
   <v>       0.62500000       0.37500000       0.62500000 </v>
   <v>       0.12500000       0.87500000       0.62500000 </v>
   <v>       0.62500000       0.87500000       0.62500000 </v>
   <v>       0.00000000       0.00000000       0.25000000 </v>
   <v>       0.50000000       0.00000000       0.25000000 </v>
   <v>       0.00000000       0.50000000       0.25000000 </v>
   <v>       0.50000000       0.50000000       0.25000000 </v>
   <v>       0.00000000       0.00000000       0.75000000 </v>
   <v>       0.50000000       0.00000000       0.75000000 </v>
   <v>       0.00000000       0.50000000       0.75000000 </v>
   <v>       0.50000000       0.50000000       0.75000000 </v>
   <v>       0.12500000       0.12500000       0.37500000 </v>
   <v>       0.62500000       0.12500000       0.37500000 </v>
   <v>       0.12500000       0.62500000       0.37500000 </v>
   <v>       0.62500000       0.62500000       0.37500000 </v>
   <v>       0.12500000       0.12500000       0.87500000 </v>
   <v>       0.62500000       0.12500000       0.87500000 </v>
   <v>       0.12500000       0.62500000       0.87500000 </v>
   <v>       0.62500000       0.62500000       0.87500000 </v>
   <v>       0.00000000       0.25000000       0.00000000 </v>
   <v>       0.50000000       0.25000000       0.00000000 </v>
   <v>       0.00000000       0.75000000       0.00000000 </v>
   <v>       0.50000000       0.75000000       0.00000000 </v>
   <v>       0.00000000       0.25000000       0.50000000 </v>
   <v>       0.50000000       0.25000000       0.50000000 </v>
   <v>       0.00000000       0.75000000       0.50000000 </v>
   <v>       0.50000000       0.75000000       0.50000000 </v>
   <v>       0.37500000       0.37500000       0.37500000 </v>
   <v>       0.87500000       0.37500000       0.37500000 </v>
   <v>       0.37500000       0.87500000       0.37500000 </v>
   <v>       0.87500000       0.87500000       0.37500000 </v>
   <v>       0.37500000       0.37500000       0.87500000 </v>
   <v>       0.87500000       0.37500000       0.87500000 </v>
   <v>       0.37500000       0.87500000       0.87500000 </v>
   <v>       0.87500000       0.87500000       0.87500000 </v>
   <v>       0.25000000       0.00000000       0.00000000 </v>
   <v>       0.75000000       0.00000000       0.00000000 </v>
   <v>       0.25000000       0.50000000       0.00000000 </v>
   <v>       0.75000000       0.50000000       0.00000000 </v>
   <v>       0.25000000       0.00000000       0.50000000 </v>
   <v>       0.75000000       0.00000000       0.50000000 </v>
   <v>       0.25000000       0.50000000       0.50000000 </v>
   <v>       0.75000000       0.50000000       0.50000000 </v>
   <v>       0.37500000       0.12500000       0.12500000 </v>
   <v>       0.87500000       0.12500000       0.12500000 </v>
   <v>       0.37500000       0.62500000       0.12500000 </v>
   <v>       0.87500000       0.62500000       0.12500000 </v>
   <v>       0.37500000       0.12500000       0.62500000 </v>
   <v>       0.87500000       0.12500000       0.62500000 </v>
   <v>       0.37500000       0.62500000       0.62500000 </v>
   <v>       0.87500000       0.62500000       0.62500000 </v>
   <v>       0.25000000       0.25000000       0.25000000 </v>
   <v>       0.75000000       0.25000000       0.25000000 </v>
   <v>       0.25000000       0.75000000       0.25000000 </v>
   <v>       0.75000000       0.75000000       0.25000000 </v>
   <v>       0.25000000       0.25000000       0.75000000 </v>
   <v>       0.75000000       0.25000000       0.75000000 </v>
   <v>       0.25000000       0.75000000       0.75000000 </v>
   <v>       0.75000000       0.75000000       0.75000000 </v>
  </varray>
 </structure>
</modeling>
