   8   8   0   0
  0.5134645E+01  0.3390319E-09  0.3390319E-09  0.3573710E-09  0.2000000E-16
  1.000000000000000E-004
  CAR 
 unknown system                          
     25.50347334    -13.37220659  301     11.64591326      1.00000000
    -13.372  0.0000E+00  0.0000E+00
    -13.243  0.0000E+00  0.0000E+00
    -13.113  0.0000E+00  0.0000E+00
    -12.983  0.0000E+00  0.0000E+00
    -12.854  0.0000E+00  0.0000E+00
    -12.724  0.0000E+00  0.0000E+00
    -12.595  0.0000E+00  0.0000E+00
    -12.465  0.0000E+00  0.0000E+00
    -12.336  0.0000E+00  0.0000E+00
    -12.206  0.0000E+00  0.0000E+00
    -12.076  0.0000E+00  0.0000E+00
    -11.947  0.0000E+00  0.0000E+00
    -11.817  0.0000E+00  0.0000E+00
    -11.688  0.0000E+00  0.0000E+00
    -11.558  0.3186E-01  0.5005E-03
    -11.428  0.1428E+00  0.1470E-01
    -11.299  0.2227E+00  0.3834E-01
    -11.169  0.2527E+00  0.6893E-01
    -11.040  0.2965E+00  0.1045E+00
    -10.910  0.3351E+00  0.1457E+00
    -10.780  0.3608E+00  0.1907E+00
    -10.651  0.3891E+00  0.2392E+00
    -10.521  0.4221E+00  0.2918E+00
    -10.392  0.4469E+00  0.3483E+00
    -10.262  0.4676E+00  0.4075E+00
    -10.133  0.4908E+00  0.4696E+00
    -10.003  0.5166E+00  0.5349E+00
     -9.873  0.5393E+00  0.6033E+00
     -9.744  0.5593E+00  0.6746E+00
     -9.614  0.5782E+00  0.7483E+00
     -9.485  0.5973E+00  0.8244E+00
     -9.355  0.6179E+00  0.9031E+00
     -9.225  0.6379E+00  0.9845E+00
     -9.096  0.6582E+00  0.1068E+01
     -8.966  0.6755E+00  0.1155E+01
     -8.837  0.6920E+00  0.1244E+01
     -8.707  0.7091E+00  0.1334E+01
     -8.578  0.7275E+00  0.1427E+01
     -8.448  0.7458E+00  0.1523E+01
     -8.318  0.7633E+00  0.1621E+01
     -8.189  0.7814E+00  0.1721E+01
     -8.059  0.7976E+00  0.1823E+01
     -7.930  0.8140E+00  0.1928E+01
     -7.800  0.8310E+00  0.2034E+01
     -7.670  0.8489E+00  0.2143E+01
     -7.541  0.8788E+00  0.2254E+01
     -7.411  0.9147E+00  0.2371E+01
     -7.282  0.9599E+00  0.2492E+01
     -7.152  0.9943E+00  0.2619E+01
     -7.023  0.1009E+01  0.2749E+01
     -6.893  0.9982E+00  0.2879E+01
     -6.763  0.9668E+00  0.3006E+01
     -6.634  0.9640E+00  0.3131E+01
     -6.504  0.9571E+00  0.3256E+01
     -6.375  0.9609E+00  0.3380E+01
     -6.245  0.9806E+00  0.3506E+01
     -6.115  0.1024E+01  0.3635E+01
     -5.986  0.1070E+01  0.3771E+01
     -5.856  0.1104E+01  0.3912E+01
     -5.727  0.1107E+01  0.4056E+01
     -5.597  0.1157E+01  0.4202E+01
     -5.467  0.1238E+01  0.4357E+01
     -5.338  0.1369E+01  0.4526E+01
     -5.208  0.1503E+01  0.4713E+01
     -5.079  0.1401E+01  0.4905E+01
     -4.949  0.1381E+01  0.5086E+01
     -4.820  0.1294E+01  0.5262E+01
     -4.690  0.1250E+01  0.5425E+01
     -4.560  0.1280E+01  0.5590E+01
     -4.431  0.1267E+01  0.5755E+01
     -4.301  0.1216E+01  0.5918E+01
     -4.172  0.1136E+01  0.6071E+01
     -4.042  0.1122E+01  0.6217E+01
     -3.912  0.1080E+01  0.6360E+01
     -3.783  0.1054E+01  0.6498E+01
     -3.653  0.1072E+01  0.6635E+01
     -3.524  0.9877E+00  0.6767E+01
     -3.394  0.9505E+00  0.6893E+01
     -3.265  0.9512E+00  0.7015E+01
     -3.135  0.9347E+00  0.7137E+01
     -3.005  0.1062E+01  0.7268E+01
     -2.876  0.1073E+01  0.7406E+01
     -2.746  0.1171E+01  0.7554E+01
     -2.617  0.1133E+01  0.7705E+01
     -2.487  0.1103E+01  0.7850E+01
     -2.357  0.1112E+01  0.7992E+01
     -2.228  0.1116E+01  0.8137E+01
     -2.098  0.1086E+01  0.8280E+01
     -1.969  0.1073E+01  0.8420E+01
     -1.839  0.1100E+01  0.8561E+01
     -1.710  0.1086E+01  0.8701E+01
     -1.580  0.1160E+01  0.8847E+01
     -1.450  0.1277E+01  0.9005E+01
     -1.321  0.1441E+01  0.9180E+01
     -1.191  0.1688E+01  0.9385E+01
     -1.062  0.1841E+01  0.9613E+01
     -0.932  0.2120E+01  0.9868E+01
     -0.802  0.2225E+01  0.1016E+02
     -0.673  0.2039E+01  0.1044E+02
     -0.543  0.1833E+01  0.1069E+02
     -0.414  0.1732E+01  0.1091E+02
     -0.284  0.1598E+01  0.1113E+02
     -0.154  0.1454E+01  0.1132E+02
     -0.025  0.1379E+01  0.1151E+02
      0.105  0.1309E+01  0.1168E+02
      0.234  0.1286E+01  0.1185E+02
      0.364  0.1241E+01  0.1201E+02
      0.493  0.1197E+01  0.1217E+02
      0.623  0.1171E+01  0.1233E+02
      0.753  0.1124E+01  0.1247E+02
      0.882  0.1130E+01  0.1262E+02
      1.012  0.1181E+01  0.1277E+02
      1.141  0.1204E+01  0.1292E+02
      1.271  0.1324E+01  0.1309E+02
      1.401  0.1527E+01  0.1327E+02
      1.530  0.1887E+01  0.1349E+02
      1.660  0.2080E+01  0.1375E+02
      1.789  0.2088E+01  0.1402E+02
      1.919  0.1961E+01  0.1429E+02
      2.048  0.1816E+01  0.1453E+02
      2.178  0.1887E+01  0.1477E+02
      2.308  0.2052E+01  0.1503E+02
      2.437  0.1848E+01  0.1528E+02
      2.567  0.1771E+01  0.1552E+02
      2.696  0.1395E+01  0.1572E+02
      2.826  0.1675E+01  0.1591E+02
      2.956  0.1833E+01  0.1614E+02
      3.085  0.2076E+01  0.1639E+02
      3.215  0.2177E+01  0.1667E+02
      3.344  0.2225E+01  0.1695E+02
      3.474  0.2293E+01  0.1724E+02
      3.604  0.2222E+01  0.1754E+02
      3.733  0.2294E+01  0.1783E+02
      3.863  0.2528E+01  0.1814E+02
      3.992  0.2647E+01  0.1848E+02
      4.122  0.2760E+01  0.1883E+02
      4.251  0.2829E+01  0.1920E+02
      4.381  0.2454E+01  0.1953E+02
      4.511  0.2324E+01  0.1984E+02
      4.640  0.2509E+01  0.2015E+02
      4.770  0.2806E+01  0.2049E+02
      4.899  0.3082E+01  0.2088E+02
      5.029  0.3093E+01  0.2128E+02
      5.159  0.2939E+01  0.2167E+02
      5.288  0.2837E+01  0.2205E+02
      5.418  0.2815E+01  0.2241E+02
      5.547  0.2797E+01  0.2278E+02
      5.677  0.2614E+01  0.2313E+02
      5.806  0.2461E+01  0.2346E+02
      5.936  0.2461E+01  0.2378E+02
      6.066  0.2717E+01  0.2411E+02
      6.195  0.2851E+01  0.2447E+02
      6.325  0.2800E+01  0.2484E+02
      6.454  0.2726E+01  0.2519E+02
      6.584  0.2677E+01  0.2554E+02
      6.714  0.2529E+01  0.2588E+02
      6.843  0.2298E+01  0.2620E+02
      6.973  0.2253E+01  0.2649E+02
      7.102  0.2314E+01  0.2678E+02
      7.232  0.2348E+01  0.2709E+02
      7.361  0.2422E+01  0.2739E+02
      7.491  0.2459E+01  0.2771E+02
      7.621  0.2215E+01  0.2802E+02
      7.750  0.2169E+01  0.2830E+02
      7.880  0.2220E+01  0.2858E+02
      8.009  0.2248E+01  0.2888E+02
      8.139  0.2030E+01  0.2916E+02
      8.269  0.1879E+01  0.2941E+02
      8.398  0.1741E+01  0.2965E+02
      8.528  0.1633E+01  0.2986E+02
      8.657  0.1626E+01  0.3008E+02
      8.787  0.1540E+01  0.3029E+02
      8.917  0.1293E+01  0.3047E+02
      9.046  0.1202E+01  0.3063E+02
      9.176  0.1103E+01  0.3078E+02
      9.305  0.1007E+01  0.3092E+02
      9.435  0.9424E+00  0.3104E+02
      9.564  0.8854E+00  0.3116E+02
      9.694  0.8195E+00  0.3127E+02
      9.824  0.7565E+00  0.3137E+02
      9.953  0.6734E+00  0.3147E+02
     10.083  0.6119E+00  0.3155E+02
     10.212  0.5696E+00  0.3163E+02
     10.342  0.5163E+00  0.3170E+02
     10.472  0.4538E+00  0.3176E+02
     10.601  0.3824E+00  0.3181E+02
     10.731  0.3238E+00  0.3186E+02
     10.860  0.2885E+00  0.3190E+02
     10.990  0.2229E+00  0.3193E+02
     11.119  0.1938E+00  0.3196E+02
     11.249  0.1404E+00  0.3198E+02
     11.379  0.7464E-01  0.3199E+02
     11.508  0.7784E-02  0.3200E+02
     11.638  0.0000E+00  0.3200E+02
     11.767  0.0000E+00  0.3200E+02
     11.897  0.0000E+00  0.3200E+02
     12.027  0.0000E+00  0.3200E+02
     12.156  0.0000E+00  0.3200E+02
     12.286  0.0000E+00  0.3200E+02
     12.415  0.0000E+00  0.3200E+02
     12.545  0.0000E+00  0.3200E+02
     12.674  0.0000E+00  0.3200E+02
     12.804  0.0000E+00  0.3200E+02
     12.934  0.0000E+00  0.3200E+02
     13.063  0.0000E+00  0.3200E+02
     13.193  0.0000E+00  0.3200E+02
     13.322  0.0000E+00  0.3200E+02
     13.452  0.0000E+00  0.3200E+02
     13.582  0.0000E+00  0.3200E+02
     13.711  0.0000E+00  0.3200E+02
     13.841  0.0000E+00  0.3200E+02
     13.970  0.0000E+00  0.3200E+02
     14.100  0.0000E+00  0.3200E+02
     14.230  0.0000E+00  0.3200E+02
     14.359  0.0000E+00  0.3200E+02
     14.489  0.0000E+00  0.3200E+02
     14.618  0.0000E+00  0.3200E+02
     14.748  0.0000E+00  0.3200E+02
     14.877  0.0000E+00  0.3200E+02
     15.007  0.0000E+00  0.3200E+02
     15.137  0.0000E+00  0.3200E+02
     15.266  0.2066E-01  0.3200E+02
     15.396  0.1113E+00  0.3201E+02
     15.525  0.2554E+00  0.3203E+02
     15.655  0.3438E+00  0.3207E+02
     15.785  0.3507E+00  0.3212E+02
     15.914  0.4509E+00  0.3217E+02
     16.044  0.5256E+00  0.3223E+02
     16.173  0.5924E+00  0.3230E+02
     16.303  0.8086E+00  0.3239E+02
     16.432  0.8314E+00  0.3250E+02
     16.562  0.8832E+00  0.3261E+02
     16.692  0.9654E+00  0.3273E+02
     16.821  0.1046E+01  0.3286E+02
     16.951  0.1178E+01  0.3301E+02
     17.080  0.1310E+01  0.3317E+02
     17.210  0.1428E+01  0.3334E+02
     17.340  0.1612E+01  0.3354E+02
     17.469  0.1763E+01  0.3376E+02
     17.599  0.1771E+01  0.3399E+02
     17.728  0.1716E+01  0.3422E+02
     17.858  0.1794E+01  0.3445E+02
     17.988  0.1871E+01  0.3469E+02
     18.117  0.1977E+01  0.3494E+02
     18.247  0.2102E+01  0.3520E+02
     18.376  0.2209E+01  0.3548E+02
     18.506  0.2282E+01  0.3577E+02
     18.635  0.2348E+01  0.3607E+02
     18.765  0.2454E+01  0.3638E+02
     18.895  0.2666E+01  0.3671E+02
     19.024  0.2831E+01  0.3707E+02
     19.154  0.3137E+01  0.3746E+02
     19.283  0.3372E+01  0.3788E+02
     19.413  0.4773E+01  0.3838E+02
     19.543  0.3986E+01  0.3892E+02
     19.672  0.3528E+01  0.3941E+02
     19.802  0.2945E+01  0.3983E+02
     19.931  0.2666E+01  0.4019E+02
     20.061  0.2530E+01  0.4052E+02
     20.190  0.3083E+01  0.4088E+02
     20.320  0.3272E+01  0.4129E+02
     20.450  0.3436E+01  0.4174E+02
     20.579  0.2965E+01  0.4215E+02
     20.709  0.2698E+01  0.4252E+02
     20.838  0.2616E+01  0.4286E+02
     20.968  0.2595E+01  0.4320E+02
     21.098  0.2529E+01  0.4353E+02
     21.227  0.2482E+01  0.4385E+02
     21.357  0.2454E+01  0.4417E+02
     21.486  0.2585E+01  0.4450E+02
     21.616  0.2676E+01  0.4484E+02
     21.745  0.3045E+01  0.4521E+02
     21.875  0.2911E+01  0.4560E+02
     22.005  0.2629E+01  0.4596E+02
     22.134  0.2540E+01  0.4630E+02
     22.264  0.2378E+01  0.4662E+02
     22.393  0.1970E+01  0.4690E+02
     22.523  0.1689E+01  0.4714E+02
     22.653  0.1584E+01  0.4735E+02
     22.782  0.1437E+01  0.4755E+02
     22.912  0.1112E+01  0.4771E+02
     23.041  0.8303E+00  0.4784E+02
     23.171  0.4858E+00  0.4792E+02
     23.301  0.2444E+00  0.4797E+02
     23.430  0.9349E-01  0.4799E+02
     23.560  0.2966E-01  0.4800E+02
     23.689  0.3075E-02  0.4800E+02
     23.819  0.0000E+00  0.4800E+02
     23.948  0.0000E+00  0.4800E+02
     24.078  0.0000E+00  0.4800E+02
     24.208  0.0000E+00  0.4800E+02
     24.337  0.0000E+00  0.4800E+02
     24.467  0.0000E+00  0.4800E+02
     24.596  0.0000E+00  0.4800E+02
     24.726  0.0000E+00  0.4800E+02
     24.856  0.0000E+00  0.4800E+02
     24.985  0.0000E+00  0.4800E+02
     25.115  0.0000E+00  0.4800E+02
     25.244  0.0000E+00  0.4800E+02
     25.374  0.0000E+00  0.4800E+02
     25.503  0.0000E+00  0.4800E+02
