       N       E                     dE             d eps       ncg     rms          rms(c)
DAV:   1     0.602350899971E+02    0.60235E+02   -0.14625E+04  9416   0.107E+03
DAV:   2    -0.710471258018E+02   -0.13128E+03   -0.12471E+03 13016   0.228E+02
DAV:   3    -0.751042267767E+02   -0.40571E+01   -0.40377E+01 12304   0.372E+01
DAV:   4    -0.751388524748E+02   -0.34626E-01   -0.34594E-01 11544   0.387E+00
DAV:   5    -0.751394488500E+02   -0.59638E-03   -0.59623E-03 12264   0.444E-01    0.107E+01
DAV:   6    -0.726213414652E+02    0.25181E+01   -0.16329E+00 10456   0.751E+00    0.577E+00
DAV:   7    -0.717741558641E+02    0.84719E+00   -0.17966E+00 10824   0.810E+00    0.719E-01
DAV:   8    -0.717827091378E+02   -0.85533E-02   -0.33894E-02 11744   0.109E+00    0.881E-02
DAV:   9    -0.717828998251E+02   -0.19069E-03   -0.42833E-04 11136   0.143E-01    0.296E-02
DAV:  10    -0.717829461011E+02   -0.46276E-04   -0.35539E-05 11768   0.469E-02    0.294E-03
DAV:  11    -0.717829469455E+02   -0.84439E-06   -0.10047E-06  8656   0.732E-03
   1 F= -.71782947E+02 E0= -.71782947E+02  d E =0.000000E+00
