 vasp.5.4.4.18Apr17-6-g9f103f2a35 (build Mar 12 2022 03:36:41) complex          
  
 executed on IFC19.0.3.199_CrayMP date 2022.11.30  12:08:37
 running on   16 total cores
 distrk:  each k-point on   16 cores,    1 groups
 distr:  one band on NCORES_PER_BAND=   4 cores,    4 groups


--------------------------------------------------------------------------------------------------------


 INCAR:
 POTCAR:   PAW_PBE C 08Apr2002                    
 POTCAR:   PAW_PBE C 08Apr2002                    
   VRHFIN =C: s2p2                                                              
   LEXCH  = PE                                                                  
   EATOM  =   147.1560 eV,   10.8157 Ry                                         
                                                                                
   TITEL  = PAW_PBE C 08Apr2002                                                 
   LULTRA =        F    use ultrasoft PP ?                                      
   IUNSCR =        0    unscreen: 0-lin 1-nonlin 2-no                           
   RPACOR =     .000    partial core radius                                     
   POMASS =   12.011; ZVAL   =    4.000    mass and valenz                      
   RCORE  =    1.500    outmost cutoff radius                                   
   RWIGS  =    1.630; RWIGS  =     .863    wigner-seitz radius (au A)           
   ENMAX  =  400.000; ENMIN  =  300.000 eV                                      
   ICORE  =        2    local potential                                         
   LCOR   =        T    correct aug charges                                     
   LPAW   =        T    paw PP                                                  
   EAUG   =  644.873                                                            
   DEXC   =     .000                                                            
   RMAX   =    2.266    core radius for proj-oper                               
   RAUG   =    1.300    factor for augmentation sphere                          
   RDEP   =    1.501    radius for radial grids                                 
   RDEPT  =    1.300    core radius for aug-charge                              
   QCUT   =   -5.516; QGAM   =   11.032    optimization parameters              
                                                                                
   Description                                                                  
     l     E      TYP  RCUT    TYP  RCUT                                        
     0   .000     23  1.200                                                     
     0   .000     23  1.200                                                     
     1   .000     23  1.500                                                     
     1  2.500     23  1.500                                                     
     2   .000      7  1.500                                                     
  local pseudopotential read in
  atomic valenz-charges read in
  non local Contribution for L=           0  read in
    real space projection operators read in
  non local Contribution for L=           0  read in
    real space projection operators read in
  non local Contribution for L=           1  read in
    real space projection operators read in
  non local Contribution for L=           1  read in
    real space projection operators read in
    PAW grid and wavefunctions read in
 
   number of l-projection  operators is LMAX  =           4
   number of lm-projection operators is LMMAX =           8
 
 PAW_PBE C 08Apr2002                    :
 energy of atom  1       EATOM= -147.1560
 kinetic energy error for atom=    0.0288 (will be added to EATOM!!)
 
 
 POSCAR: C8                                      
  positions in direct lattice
  No initial velocities read in
 exchange correlation table for  LEXCH =        8
   RHO(1)=    0.500       N(1)  =     2000
   RHO(2)=  100.500       N(2)  =     4000
 


--------------------------------------------------------------------------------------------------------


 ion  position               nearest neighbor table
   1  0.250  0.750  0.250-   2 1.49   4 1.49   6 1.49   8 1.49
   2  0.000  0.000  0.500-   1 1.49   3 1.49   5 1.49   7 1.49
   3  0.250  0.250  0.750-   2 1.49   4 1.49   6 1.49   8 1.49
   4  0.000  0.500  0.000-   1 1.49   3 1.49   5 1.49   7 1.49
   5  0.750  0.750  0.750-   2 1.49   4 1.49   6 1.49   8 1.49
   6  0.500  0.000  0.000-   1 1.49   3 1.49   5 1.49   7 1.49
   7  0.750  0.250  0.250-   2 1.49   4 1.49   6 1.49   8 1.49
   8  0.500  0.500  0.500-   1 1.49   3 1.49   5 1.49   7 1.49
 
  LATTYP: Found a simple tetragonal cell.
 ALAT       =     3.3903190000
 C/A-ratio  =     1.0540925500
  
  Lattice vectors:
  
 A1 = (   3.3903190000,   0.0000000000,   0.0000000000)
 A2 = (   0.0000000000,   3.3903190000,   0.0000000000)
 A3 = (   0.0000000000,   0.0000000000,   3.5737100000)


Analysis of symmetry for initial positions (statically):
=====================================================================
 Subroutine PRICEL returns following result:
 
  LATTYP: Found a body centered tetragonal cell.
 ALAT       =     2.3973175553
 C/A-ratio  =     1.4907119802
  
  Lattice vectors:
  
 A1 = (   0.0000000000,  -1.6951595000,   1.7868550000)
 A2 = (   0.0000000000,   1.6951595000,   1.7868550000)
 A3 = (  -1.6951595000,   0.0000000000,  -1.7868550000)
 
   4 primitive cells build up your supercell.
 

 Routine SETGRP: Setting up the symmetry group for a 
 simple tetragonal supercell.


 Subroutine GETGRP returns: Found 16 space group operations
 (whereof  8 operations were pure point group operations)
 out of a pool of 16 trial point group operations.


The static configuration has the point symmetry D_2d.
 The point group associated with its full space group is D_4h.


Analysis of symmetry for dynamics (positions and initial velocities):
=====================================================================
 Subroutine PRICEL returns following result:
 
  LATTYP: Found a body centered tetragonal cell.
 ALAT       =     2.3973175553
 C/A-ratio  =     1.4907119802
  
  Lattice vectors:
  
 A1 = (   0.0000000000,  -1.6951595000,   1.7868550000)
 A2 = (   0.0000000000,   1.6951595000,   1.7868550000)
 A3 = (  -1.6951595000,   0.0000000000,  -1.7868550000)
 
   4 primitive cells build up your supercell.
 

 Routine SETGRP: Setting up the symmetry group for a 
 simple tetragonal supercell.


 Subroutine GETGRP returns: Found 16 space group operations
 (whereof  8 operations were pure point group operations)
 out of a pool of 16 trial point group operations.


The dynamic configuration has the point symmetry D_2d.
 The point group associated with its full space group is D_4h.


 Subroutine INISYM returns: Found 16 space group operations
 (whereof  8 operations are pure point group operations),
 and found     4 'primitive' translations

 
 
 KPOINTS: kpt_density=1000                        

Automatic generation of k-mesh.
Space group operators:
 irot       det(A)        alpha          n_x          n_y          n_z        tau_x        tau_y        tau_z
    1     1.000000     0.000000     1.000000     0.000000     0.000000     0.000000     0.000000     0.000000
    2    -1.000000    90.000000     0.000000     0.000000    -1.000000     0.000000     0.000000     0.000000
    3     1.000000   180.000000     0.000000     0.000000     1.000000     0.000000     0.000000     0.000000
    4    -1.000000    90.000000     0.000000     0.000000     1.000000     0.000000     0.000000     0.000000
    5     1.000000   180.000000     0.000000     1.000000     0.000000     0.000000     0.000000     0.000000
    6    -1.000000   180.000000     0.707107     0.707107     0.000000     0.000000     0.000000     0.000000
    7     1.000000   180.000000     1.000000     0.000000     0.000000     0.000000     0.000000     0.000000
    8    -1.000000   180.000000     0.707107    -0.707107     0.000000     0.000000     0.000000     0.000000
    9    -1.000000     0.000000     1.000000     0.000000     0.000000    -0.250000    -0.250000     0.250000
   10     1.000000    90.000000     0.000000     0.000000    -1.000000    -0.250000    -0.250000     0.250000
   11    -1.000000   180.000000     0.000000     0.000000     1.000000    -0.250000    -0.250000     0.250000
   12     1.000000    90.000000     0.000000     0.000000     1.000000    -0.250000    -0.250000     0.250000
   13    -1.000000   180.000000     0.000000     1.000000     0.000000    -0.250000    -0.250000     0.250000
   14     1.000000   180.000000     0.707107     0.707107     0.000000    -0.250000    -0.250000     0.250000
   15    -1.000000   180.000000     1.000000     0.000000     0.000000    -0.250000    -0.250000     0.250000
   16     1.000000   180.000000     0.707107    -0.707107     0.000000    -0.250000    -0.250000     0.250000
 
 Subroutine IBZKPT returns following result:
 ===========================================
 
 Found    196 irreducible k-points:
 
 Following reciprocal coordinates:
            Coordinates               Weight
  0.000000  0.000000  0.000000      1.000000
  0.083333  0.000000  0.000000      4.000000
  0.166667  0.000000  0.000000      4.000000
  0.250000  0.000000  0.000000      4.000000
  0.333333  0.000000  0.000000      4.000000
  0.416667  0.000000  0.000000      4.000000
  0.500000  0.000000  0.000000      2.000000
  0.083333  0.083333  0.000000      4.000000
  0.166667  0.083333  0.000000      8.000000
  0.250000  0.083333  0.000000      8.000000
  0.333333  0.083333  0.000000      8.000000
  0.416667  0.083333  0.000000      8.000000
  0.500000  0.083333  0.000000      4.000000
  0.166667  0.166667  0.000000      4.000000
  0.250000  0.166667  0.000000      8.000000
  0.333333  0.166667  0.000000      8.000000
  0.416667  0.166667  0.000000      8.000000
  0.500000  0.166667  0.000000      4.000000
  0.250000  0.250000  0.000000      4.000000
  0.333333  0.250000  0.000000      8.000000
  0.416667  0.250000  0.000000      8.000000
  0.500000  0.250000  0.000000      4.000000
  0.333333  0.333333  0.000000      4.000000
  0.416667  0.333333  0.000000      8.000000
  0.500000  0.333333  0.000000      4.000000
  0.416667  0.416667  0.000000      4.000000
  0.500000  0.416667  0.000000      4.000000
  0.500000  0.500000  0.000000      1.000000
  0.000000  0.000000  0.083333      2.000000
  0.083333  0.000000  0.083333      8.000000
  0.166667  0.000000  0.083333      8.000000
  0.250000  0.000000  0.083333      8.000000
  0.333333  0.000000  0.083333      8.000000
  0.416667  0.000000  0.083333      8.000000
  0.500000  0.000000  0.083333      4.000000
  0.083333  0.083333  0.083333      8.000000
  0.166667  0.083333  0.083333     16.000000
  0.250000  0.083333  0.083333     16.000000
  0.333333  0.083333  0.083333     16.000000
  0.416667  0.083333  0.083333     16.000000
  0.500000  0.083333  0.083333      8.000000
  0.166667  0.166667  0.083333      8.000000
  0.250000  0.166667  0.083333     16.000000
  0.333333  0.166667  0.083333     16.000000
  0.416667  0.166667  0.083333     16.000000
  0.500000  0.166667  0.083333      8.000000
  0.250000  0.250000  0.083333      8.000000
  0.333333  0.250000  0.083333     16.000000
  0.416667  0.250000  0.083333     16.000000
  0.500000  0.250000  0.083333      8.000000
  0.333333  0.333333  0.083333      8.000000
  0.416667  0.333333  0.083333     16.000000
  0.500000  0.333333  0.083333      8.000000
  0.416667  0.416667  0.083333      8.000000
  0.500000  0.416667  0.083333      8.000000
  0.500000  0.500000  0.083333      2.000000
  0.000000  0.000000  0.166667      2.000000
  0.083333  0.000000  0.166667      8.000000
  0.166667  0.000000  0.166667      8.000000
  0.250000  0.000000  0.166667      8.000000
  0.333333  0.000000  0.166667      8.000000
  0.416667  0.000000  0.166667      8.000000
  0.500000  0.000000  0.166667      4.000000
  0.083333  0.083333  0.166667      8.000000
  0.166667  0.083333  0.166667     16.000000
  0.250000  0.083333  0.166667     16.000000
  0.333333  0.083333  0.166667     16.000000
  0.416667  0.083333  0.166667     16.000000
  0.500000  0.083333  0.166667      8.000000
  0.166667  0.166667  0.166667      8.000000
  0.250000  0.166667  0.166667     16.000000
  0.333333  0.166667  0.166667     16.000000
  0.416667  0.166667  0.166667     16.000000
  0.500000  0.166667  0.166667      8.000000
  0.250000  0.250000  0.166667      8.000000
  0.333333  0.250000  0.166667     16.000000
  0.416667  0.250000  0.166667     16.000000
  0.500000  0.250000  0.166667      8.000000
  0.333333  0.333333  0.166667      8.000000
  0.416667  0.333333  0.166667     16.000000
  0.500000  0.333333  0.166667      8.000000
  0.416667  0.416667  0.166667      8.000000
  0.500000  0.416667  0.166667      8.000000
  0.500000  0.500000  0.166667      2.000000
  0.000000  0.000000  0.250000      2.000000
  0.083333  0.000000  0.250000      8.000000
  0.166667  0.000000  0.250000      8.000000
  0.250000  0.000000  0.250000      8.000000
  0.333333  0.000000  0.250000      8.000000
  0.416667  0.000000  0.250000      8.000000
  0.500000  0.000000  0.250000      4.000000
  0.083333  0.083333  0.250000      8.000000
  0.166667  0.083333  0.250000     16.000000
  0.250000  0.083333  0.250000     16.000000
  0.333333  0.083333  0.250000     16.000000
  0.416667  0.083333  0.250000     16.000000
  0.500000  0.083333  0.250000      8.000000
  0.166667  0.166667  0.250000      8.000000
  0.250000  0.166667  0.250000     16.000000
  0.333333  0.166667  0.250000     16.000000
  0.416667  0.166667  0.250000     16.000000
  0.500000  0.166667  0.250000      8.000000
  0.250000  0.250000  0.250000      8.000000
  0.333333  0.250000  0.250000     16.000000
  0.416667  0.250000  0.250000     16.000000
  0.500000  0.250000  0.250000      8.000000
  0.333333  0.333333  0.250000      8.000000
  0.416667  0.333333  0.250000     16.000000
  0.500000  0.333333  0.250000      8.000000
  0.416667  0.416667  0.250000      8.000000
  0.500000  0.416667  0.250000      8.000000
  0.500000  0.500000  0.250000      2.000000
  0.000000  0.000000  0.333333      2.000000
  0.083333  0.000000  0.333333      8.000000
  0.166667  0.000000  0.333333      8.000000
  0.250000  0.000000  0.333333      8.000000
  0.333333  0.000000  0.333333      8.000000
  0.416667  0.000000  0.333333      8.000000
  0.500000  0.000000  0.333333      4.000000
  0.083333  0.083333  0.333333      8.000000
  0.166667  0.083333  0.333333     16.000000
  0.250000  0.083333  0.333333     16.000000
  0.333333  0.083333  0.333333     16.000000
  0.416667  0.083333  0.333333     16.000000
  0.500000  0.083333  0.333333      8.000000
  0.166667  0.166667  0.333333      8.000000
  0.250000  0.166667  0.333333     16.000000
  0.333333  0.166667  0.333333     16.000000
  0.416667  0.166667  0.333333     16.000000
  0.500000  0.166667  0.333333      8.000000
  0.250000  0.250000  0.333333      8.000000
  0.333333  0.250000  0.333333     16.000000
  0.416667  0.250000  0.333333     16.000000
  0.500000  0.250000  0.333333      8.000000
  0.333333  0.333333  0.333333      8.000000
  0.416667  0.333333  0.333333     16.000000
  0.500000  0.333333  0.333333      8.000000
  0.416667  0.416667  0.333333      8.000000
  0.500000  0.416667  0.333333      8.000000
  0.500000  0.500000  0.333333      2.000000
  0.000000  0.000000  0.416667      2.000000
  0.083333  0.000000  0.416667      8.000000
  0.166667  0.000000  0.416667      8.000000
  0.250000  0.000000  0.416667      8.000000
  0.333333  0.000000  0.416667      8.000000
  0.416667  0.000000  0.416667      8.000000
  0.500000  0.000000  0.416667      4.000000
  0.083333  0.083333  0.416667      8.000000
  0.166667  0.083333  0.416667     16.000000
  0.250000  0.083333  0.416667     16.000000
  0.333333  0.083333  0.416667     16.000000
  0.416667  0.083333  0.416667     16.000000
  0.500000  0.083333  0.416667      8.000000
  0.166667  0.166667  0.416667      8.000000
  0.250000  0.166667  0.416667     16.000000
  0.333333  0.166667  0.416667     16.000000
  0.416667  0.166667  0.416667     16.000000
  0.500000  0.166667  0.416667      8.000000
  0.250000  0.250000  0.416667      8.000000
  0.333333  0.250000  0.416667     16.000000
  0.416667  0.250000  0.416667     16.000000
  0.500000  0.250000  0.416667      8.000000
  0.333333  0.333333  0.416667      8.000000
  0.416667  0.333333  0.416667     16.000000
  0.500000  0.333333  0.416667      8.000000
  0.416667  0.416667  0.416667      8.000000
  0.500000  0.416667  0.416667      8.000000
  0.500000  0.500000  0.416667      2.000000
  0.000000  0.000000  0.500000      1.000000
  0.083333  0.000000  0.500000      4.000000
  0.166667  0.000000  0.500000      4.000000
  0.250000  0.000000  0.500000      4.000000
  0.333333  0.000000  0.500000      4.000000
  0.416667  0.000000  0.500000      4.000000
  0.500000  0.000000  0.500000      2.000000
  0.083333  0.083333  0.500000      4.000000
  0.166667  0.083333  0.500000      8.000000
  0.250000  0.083333  0.500000      8.000000
  0.333333  0.083333  0.500000      8.000000
  0.416667  0.083333  0.500000      8.000000
  0.500000  0.083333  0.500000      4.000000
  0.166667  0.166667  0.500000      4.000000
  0.250000  0.166667  0.500000      8.000000
  0.333333  0.166667  0.500000      8.000000
  0.416667  0.166667  0.500000      8.000000
  0.500000  0.166667  0.500000      4.000000
  0.250000  0.250000  0.500000      4.000000
  0.333333  0.250000  0.500000      8.000000
  0.416667  0.250000  0.500000      8.000000
  0.500000  0.250000  0.500000      4.000000
  0.333333  0.333333  0.500000      4.000000
  0.416667  0.333333  0.500000      8.000000
  0.500000  0.333333  0.500000      4.000000
  0.416667  0.416667  0.500000      4.000000
  0.500000  0.416667  0.500000      4.000000
  0.500000  0.500000  0.500000      1.000000
 
 Following cartesian coordinates:
            Coordinates               Weight
  0.000000  0.000000  0.000000      1.000000
  0.024580  0.000000  0.000000      4.000000
  0.049160  0.000000  0.000000      4.000000
  0.073739  0.000000  0.000000      4.000000
  0.098319  0.000000  0.000000      4.000000
  0.122899  0.000000  0.000000      4.000000
  0.147479  0.000000  0.000000      2.000000
  0.024580  0.024580  0.000000      4.000000
  0.049160  0.024580  0.000000      8.000000
  0.073739  0.024580  0.000000      8.000000
  0.098319  0.024580  0.000000      8.000000
  0.122899  0.024580  0.000000      8.000000
  0.147479  0.024580  0.000000      4.000000
  0.049160  0.049160  0.000000      4.000000
  0.073739  0.049160  0.000000      8.000000
  0.098319  0.049160  0.000000      8.000000
  0.122899  0.049160  0.000000      8.000000
  0.147479  0.049160  0.000000      4.000000
  0.073739  0.073739  0.000000      4.000000
  0.098319  0.073739  0.000000      8.000000
  0.122899  0.073739  0.000000      8.000000
  0.147479  0.073739  0.000000      4.000000
  0.098319  0.098319  0.000000      4.000000
  0.122899  0.098319  0.000000      8.000000
  0.147479  0.098319  0.000000      4.000000
  0.122899  0.122899  0.000000      4.000000
  0.147479  0.122899  0.000000      4.000000
  0.147479  0.147479  0.000000      1.000000
  0.000000  0.000000  0.023318      2.000000
  0.024580  0.000000  0.023318      8.000000
  0.049160  0.000000  0.023318      8.000000
  0.073739  0.000000  0.023318      8.000000
  0.098319  0.000000  0.023318      8.000000
  0.122899  0.000000  0.023318      8.000000
  0.147479  0.000000  0.023318      4.000000
  0.024580  0.024580  0.023318      8.000000
  0.049160  0.024580  0.023318     16.000000
  0.073739  0.024580  0.023318     16.000000
  0.098319  0.024580  0.023318     16.000000
  0.122899  0.024580  0.023318     16.000000
  0.147479  0.024580  0.023318      8.000000
  0.049160  0.049160  0.023318      8.000000
  0.073739  0.049160  0.023318     16.000000
  0.098319  0.049160  0.023318     16.000000
  0.122899  0.049160  0.023318     16.000000
  0.147479  0.049160  0.023318      8.000000
  0.073739  0.073739  0.023318      8.000000
  0.098319  0.073739  0.023318     16.000000
  0.122899  0.073739  0.023318     16.000000
  0.147479  0.073739  0.023318      8.000000
  0.098319  0.098319  0.023318      8.000000
  0.122899  0.098319  0.023318     16.000000
  0.147479  0.098319  0.023318      8.000000
  0.122899  0.122899  0.023318      8.000000
  0.147479  0.122899  0.023318      8.000000
  0.147479  0.147479  0.023318      2.000000
  0.000000  0.000000  0.046637      2.000000
  0.024580  0.000000  0.046637      8.000000
  0.049160  0.000000  0.046637      8.000000
  0.073739  0.000000  0.046637      8.000000
  0.098319  0.000000  0.046637      8.000000
  0.122899  0.000000  0.046637      8.000000
  0.147479  0.000000  0.046637      4.000000
  0.024580  0.024580  0.046637      8.000000
  0.049160  0.024580  0.046637     16.000000
  0.073739  0.024580  0.046637     16.000000
  0.098319  0.024580  0.046637     16.000000
  0.122899  0.024580  0.046637     16.000000
  0.147479  0.024580  0.046637      8.000000
  0.049160  0.049160  0.046637      8.000000
  0.073739  0.049160  0.046637     16.000000
  0.098319  0.049160  0.046637     16.000000
  0.122899  0.049160  0.046637     16.000000
  0.147479  0.049160  0.046637      8.000000
  0.073739  0.073739  0.046637      8.000000
  0.098319  0.073739  0.046637     16.000000
  0.122899  0.073739  0.046637     16.000000
  0.147479  0.073739  0.046637      8.000000
  0.098319  0.098319  0.046637      8.000000
  0.122899  0.098319  0.046637     16.000000
  0.147479  0.098319  0.046637      8.000000
  0.122899  0.122899  0.046637      8.000000
  0.147479  0.122899  0.046637      8.000000
  0.147479  0.147479  0.046637      2.000000
  0.000000  0.000000  0.069955      2.000000
  0.024580  0.000000  0.069955      8.000000
  0.049160  0.000000  0.069955      8.000000
  0.073739  0.000000  0.069955      8.000000
  0.098319  0.000000  0.069955      8.000000
  0.122899  0.000000  0.069955      8.000000
  0.147479  0.000000  0.069955      4.000000
  0.024580  0.024580  0.069955      8.000000
  0.049160  0.024580  0.069955     16.000000
  0.073739  0.024580  0.069955     16.000000
  0.098319  0.024580  0.069955     16.000000
  0.122899  0.024580  0.069955     16.000000
  0.147479  0.024580  0.069955      8.000000
  0.049160  0.049160  0.069955      8.000000
  0.073739  0.049160  0.069955     16.000000
  0.098319  0.049160  0.069955     16.000000
  0.122899  0.049160  0.069955     16.000000
  0.147479  0.049160  0.069955      8.000000
  0.073739  0.073739  0.069955      8.000000
  0.098319  0.073739  0.069955     16.000000
  0.122899  0.073739  0.069955     16.000000
  0.147479  0.073739  0.069955      8.000000
  0.098319  0.098319  0.069955      8.000000
  0.122899  0.098319  0.069955     16.000000
  0.147479  0.098319  0.069955      8.000000
  0.122899  0.122899  0.069955      8.000000
  0.147479  0.122899  0.069955      8.000000
  0.147479  0.147479  0.069955      2.000000
  0.000000  0.000000  0.093274      2.000000
  0.024580  0.000000  0.093274      8.000000
  0.049160  0.000000  0.093274      8.000000
  0.073739  0.000000  0.093274      8.000000
  0.098319  0.000000  0.093274      8.000000
  0.122899  0.000000  0.093274      8.000000
  0.147479  0.000000  0.093274      4.000000
  0.024580  0.024580  0.093274      8.000000
  0.049160  0.024580  0.093274     16.000000
  0.073739  0.024580  0.093274     16.000000
  0.098319  0.024580  0.093274     16.000000
  0.122899  0.024580  0.093274     16.000000
  0.147479  0.024580  0.093274      8.000000
  0.049160  0.049160  0.093274      8.000000
  0.073739  0.049160  0.093274     16.000000
  0.098319  0.049160  0.093274     16.000000
  0.122899  0.049160  0.093274     16.000000
  0.147479  0.049160  0.093274      8.000000
  0.073739  0.073739  0.093274      8.000000
  0.098319  0.073739  0.093274     16.000000
  0.122899  0.073739  0.093274     16.000000
  0.147479  0.073739  0.093274      8.000000
  0.098319  0.098319  0.093274      8.000000
  0.122899  0.098319  0.093274     16.000000
  0.147479  0.098319  0.093274      8.000000
  0.122899  0.122899  0.093274      8.000000
  0.147479  0.122899  0.093274      8.000000
  0.147479  0.147479  0.093274      2.000000
  0.000000  0.000000  0.116592      2.000000
  0.024580  0.000000  0.116592      8.000000
  0.049160  0.000000  0.116592      8.000000
  0.073739  0.000000  0.116592      8.000000
  0.098319  0.000000  0.116592      8.000000
  0.122899  0.000000  0.116592      8.000000
  0.147479  0.000000  0.116592      4.000000
  0.024580  0.024580  0.116592      8.000000
  0.049160  0.024580  0.116592     16.000000
  0.073739  0.024580  0.116592     16.000000
  0.098319  0.024580  0.116592     16.000000
  0.122899  0.024580  0.116592     16.000000
  0.147479  0.024580  0.116592      8.000000
  0.049160  0.049160  0.116592      8.000000
  0.073739  0.049160  0.116592     16.000000
  0.098319  0.049160  0.116592     16.000000
  0.122899  0.049160  0.116592     16.000000
  0.147479  0.049160  0.116592      8.000000
  0.073739  0.073739  0.116592      8.000000
  0.098319  0.073739  0.116592     16.000000
  0.122899  0.073739  0.116592     16.000000
  0.147479  0.073739  0.116592      8.000000
  0.098319  0.098319  0.116592      8.000000
  0.122899  0.098319  0.116592     16.000000
  0.147479  0.098319  0.116592      8.000000
  0.122899  0.122899  0.116592      8.000000
  0.147479  0.122899  0.116592      8.000000
  0.147479  0.147479  0.116592      2.000000
  0.000000  0.000000  0.139911      1.000000
  0.024580  0.000000  0.139911      4.000000
  0.049160  0.000000  0.139911      4.000000
  0.073739  0.000000  0.139911      4.000000
  0.098319  0.000000  0.139911      4.000000
  0.122899  0.000000  0.139911      4.000000
  0.147479  0.000000  0.139911      2.000000
  0.024580  0.024580  0.139911      4.000000
  0.049160  0.024580  0.139911      8.000000
  0.073739  0.024580  0.139911      8.000000
  0.098319  0.024580  0.139911      8.000000
  0.122899  0.024580  0.139911      8.000000
  0.147479  0.024580  0.139911      4.000000
  0.049160  0.049160  0.139911      4.000000
  0.073739  0.049160  0.139911      8.000000
  0.098319  0.049160  0.139911      8.000000
  0.122899  0.049160  0.139911      8.000000
  0.147479  0.049160  0.139911      4.000000
  0.073739  0.073739  0.139911      4.000000
  0.098319  0.073739  0.139911      8.000000
  0.122899  0.073739  0.139911      8.000000
  0.147479  0.073739  0.139911      4.000000
  0.098319  0.098319  0.139911      4.000000
  0.122899  0.098319  0.139911      8.000000
  0.147479  0.098319  0.139911      4.000000
  0.122899  0.122899  0.139911      4.000000
  0.147479  0.122899  0.139911      4.000000
  0.147479  0.147479  0.139911      1.000000
 
 TETIRR: Found   2592 inequivalent tetrahedra from    10368


--------------------------------------------------------------------------------------------------------




 Dimension of arrays:
   k-points           NKPTS =    196   k-points in BZ     NKDIM =    196   number of bands    NBANDS=     24
   number of dos      NEDOS =    301   number of ions     NIONS =      8
   non local maximal  LDIM  =      4   non local SUM 2l+1 LMDIM =      8
   total plane-waves  NPLWV =  13824
   max r-space proj   IRMAX =      1   max aug-charges    IRDMAX=   4170
   dimension x,y,z NGX =    24 NGY =   24 NGZ =   24
   dimension x,y,z NGXF=    48 NGYF=   48 NGZF=   48
   support grid    NGXF=    48 NGYF=   48 NGZF=   48
   ions per type =               8
   NGX,Y,Z   is equivalent  to a cutoff of  11.77, 11.77, 11.16 a.u.
   NGXF,Y,Z  is equivalent  to a cutoff of  23.54, 23.54, 22.33 a.u.

 SYSTEM =  unknown system                          
 POSCAR =  C8                                      

 Startparameter for this run:
   NWRITE =      2    write-flag & timer
   PREC   = accura    normal or accurate (medium, high low for compatibility)
   ISTART =      0    job   : 0-new  1-cont  2-samecut
   ICHARG =      2    charge: 1-file 2-atom 10-const
   ISPIN  =      1    spin polarized calculation?
   LNONCOLLINEAR =      F non collinear calculations
   LSORBIT =      F    spin-orbit coupling
   INIWAV =      1    electr: 0-lowe 1-rand  2-diag
   LASPH  =      F    aspherical Exc in radial PAW
   METAGGA=      F    non-selfconsistent MetaGGA calc.

 Electronic Relaxation 1
   ENCUT  =  400.0 eV  29.40 Ry    5.42 a.u.   5.53  5.53  5.83*2*pi/ulx,y,z
   ENINI  =  400.0     initial cutoff
   ENAUG  =  644.9 eV  augmentation charge cutoff
   NELM   =     60;   NELMIN=  2; NELMDL= -5     # of ELM steps 
   EDIFF  = 0.1E-05   stopping-criterion for ELM
   LREAL  =      F    real-space projection
   NLSPLINE    = F    spline interpolate recip. space projectors
   LCOMPAT=      F    compatible to vasp.4.4
   GGA_COMPAT  = T    GGA compatible to vasp.4.4-vasp.4.6
   LMAXPAW     = -100 max onsite density
   LMAXMIX     =    2 max onsite mixed and CHGCAR
   VOSKOWN=      0    Vosko Wilk Nusair interpolation
   ROPT   =    0.00000
 Ionic relaxation
   EDIFFG = 0.1E-04   stopping-criterion for IOM
   NSW    =      0    number of steps for IOM
   NBLOCK =      1;   KBLOCK =      1    inner block; outer block 
   IBRION =     -1    ionic relax: 0-MD 1-quasi-New 2-CG
   NFREE  =      0    steps in history (QN), initial steepest desc. (CG)
   ISIF   =      2    stress and relaxation
   IWAVPR =     10    prediction:  0-non 1-charg 2-wave 3-comb
   ISYM   =      2    0-nonsym 1-usesym 2-fastsym
   LCORR  =      T    Harris-Foulkes like correction to forces

   POTIM  = 0.0200    time-step for ionic-motion
   TEIN   =    0.0    initial temperature
   TEBEG  =    0.0;   TEEND  =   0.0 temperature during run
   SMASS  =  -3.00    Nose mass-parameter (am)
   estimated Nose-frequenzy (Omega)   =  0.10E-29 period in steps =****** mass=  -0.263E-27a.u.
   SCALEE = 1.0000    scale energy and forces
   NPACO  =    256;   APACO  = 16.0  distance and # of slots for P.C.
   PSTRESS=    0.0 pullay stress

  Mass of Ions in am
   POMASS =  12.01
  Ionic Valenz
   ZVAL   =   4.00
  Atomic Wigner-Seitz radii
   RWIGS  =  -1.00
  virtual crystal weights 
   VCA    =   1.00
   NELECT =      32.0000    total number of electrons
   NUPDOWN=      -1.0000    fix difference up-down

 DOS related values:
   EMIN   =  10.00;   EMAX   =-10.00  energy-range for DOS
   EFERMI =   0.00
   ISMEAR =    -5;   SIGMA  =   0.06  broadening in eV -4-tet -1-fermi 0-gaus

 Electronic relaxation 2 (details)
   IALGO  =     38    algorithm
   LDIAG  =      T    sub-space diagonalisation (order eigenvalues)
   LSUBROT=      F    optimize rotation matrix (better conditioning)
   TURBO    =      0    0=normal 1=particle mesh
   IRESTART =      0    0=no restart 2=restart with 2 vectors
   NREBOOT  =      0    no. of reboots
   NMIN     =      0    reboot dimension
   EREF     =   0.00    reference energy to select bands
   IMIX   =      4    mixing-type and parameters
     AMIX     =   0.40;   BMIX     =  1.00
     AMIX_MAG =   1.60;   BMIX_MAG =  1.00
     AMIN     =   0.10
     WC   =   100.;   INIMIX=   1;  MIXPRE=   1;  MAXMIX= -45

 Intra band minimization:
   WEIMIN = 0.0000     energy-eigenvalue tresh-hold
   EBREAK =  0.10E-07  absolut break condition
   DEPER  =   0.30     relativ break condition  

   TIME   =   0.40     timestep for ELM

  volume/ion in A,a.u.               =       5.13        34.65
  Fermi-wavevector in a.u.,A,eV,Ry     =   1.506346  2.846581 30.872676  2.269078
  Thomas-Fermi vector in A             =   2.617075
 
 Write flags
   LWAVE        =      F    write WAVECAR
   LDOWNSAMPLE  =      F    k-point downsampling of WAVECAR
   LCHARG       =      F    write CHGCAR
   LVTOT        =      F    write LOCPOT, total local potential
   LVHAR        =      F    write LOCPOT, Hartree potential only
   LELF         =      F    write electronic localiz. function (ELF)
   LORBIT       =      0    0 simple, 1 ext, 2 COOP (PROOUT), +10 PAW based schemes


 Dipole corrections
   LMONO  =      F    monopole corrections only (constant potential shift)
   LDIPOL =      F    correct potential (dipole corrections)
   IDIPOL =      0    1-x, 2-y, 3-z, 4-all directions 
   EPSILON=  1.0000000 bulk dielectric constant

 Exchange correlation treatment:
   GGA     =    --    GGA type
   LEXCH   =     8    internal setting for exchange type
   VOSKOWN=      0    Vosko Wilk Nusair interpolation
   LHFCALC =     F    Hartree Fock is set to
   LHFONE  =     F    Hartree Fock one center treatment
   AEXX    =    0.0000 exact exchange contribution

 Linear response parameters
   LEPSILON=     F    determine dielectric tensor
   LRPA    =     F    only Hartree local field effects (RPA)
   LNABLA  =     F    use nabla operator in PAW spheres
   LVEL    =     F    velocity operator in full k-point grid
   LINTERFAST=   F  fast interpolation
   KINTER  =     0    interpolate to denser k-point grid
   CSHIFT  =0.1000    complex shift for real part using Kramers Kronig
   OMEGAMAX=  -1.0    maximum frequency
   DEG_THRESHOLD= 0.2000000E-02 threshold for treating states as degnerate
   RTIME   =   -0.100 relaxation time in fs
  (WPLASMAI=    0.000 imaginary part of plasma frequency in eV, 0.658/RTIME)
   DFIELD  = 0.0000000 0.0000000 0.0000000 field for delta impulse in time
 
 Orbital magnetization related:
   ORBITALMAG=     F  switch on orbital magnetization
   LCHIMAG   =     F  perturbation theory with respect to B field
   DQ        =  0.001000  dq finite difference perturbation B field
   LLRAUG    =     F  two centre corrections for induced B field



--------------------------------------------------------------------------------------------------------


 Static calculation
 charge density and potential will be updated during run
 non-spin polarized calculation
 Variant of blocked Davidson
 Davidson routine will perform the subspace rotation
 perform sub-space diagonalisation
    after iterative eigenvector-optimisation
 modified Broyden-mixing scheme, WC =      100.0
 initial mixing is a Kerker type mixing with AMIX =  0.4000 and BMIX =      1.0000
 Hartree-type preconditioning will be used
 using additional bands            8
 reciprocal scheme for non local part
 calculate Harris-corrections to forces 
   (improved forces if not selfconsistent)
 use gradient corrections 
 use of overlap-Matrix (Vanderbilt PP)
 Fermi weights with tetrahedron method with Bloechl corrections


--------------------------------------------------------------------------------------------------------


  energy-cutoff  :      400.00
  volume of cell :       41.08
      direct lattice vectors                 reciprocal lattice vectors
     3.390319000  0.000000000  0.000000000     0.294957495  0.000000000  0.000000000
     0.000000000  3.390319000  0.000000000     0.000000000  0.294957495  0.000000000
     0.000000000  0.000000000  3.573710000     0.000000000  0.000000000  0.279821250

  length of vectors
     3.390319000  3.390319000  3.573710000     0.294957495  0.294957495  0.279821250


 
 k-points in units of 2pi/SCALE and weight: kpt_density=1000                        
   0.00000000  0.00000000  0.00000000       0.001
   0.02457979  0.00000000  0.00000000       0.002
   0.04915958  0.00000000  0.00000000       0.002
   0.07373937  0.00000000  0.00000000       0.002
   0.09831917  0.00000000  0.00000000       0.002
   0.12289896  0.00000000  0.00000000       0.002
   0.14747875  0.00000000  0.00000000       0.001
   0.02457979  0.02457979  0.00000000       0.002
   0.04915958  0.02457979  0.00000000       0.005
   0.07373937  0.02457979  0.00000000       0.005
   0.09831917  0.02457979  0.00000000       0.005
   0.12289896  0.02457979  0.00000000       0.005
   0.14747875  0.02457979  0.00000000       0.002
   0.04915958  0.04915958  0.00000000       0.002
   0.07373937  0.04915958  0.00000000       0.005
   0.09831917  0.04915958  0.00000000       0.005
   0.12289896  0.04915958  0.00000000       0.005
   0.14747875  0.04915958  0.00000000       0.002
   0.07373937  0.07373937  0.00000000       0.002
   0.09831917  0.07373937  0.00000000       0.005
   0.12289896  0.07373937  0.00000000       0.005
   0.14747875  0.07373937  0.00000000       0.002
   0.09831917  0.09831917  0.00000000       0.002
   0.12289896  0.09831917  0.00000000       0.005
   0.14747875  0.09831917  0.00000000       0.002
   0.12289896  0.12289896  0.00000000       0.002
   0.14747875  0.12289896  0.00000000       0.002
   0.14747875  0.14747875  0.00000000       0.001
   0.00000000  0.00000000  0.02331844       0.001
   0.02457979  0.00000000  0.02331844       0.005
   0.04915958  0.00000000  0.02331844       0.005
   0.07373937  0.00000000  0.02331844       0.005
   0.09831917  0.00000000  0.02331844       0.005
   0.12289896  0.00000000  0.02331844       0.005
   0.14747875  0.00000000  0.02331844       0.002
   0.02457979  0.02457979  0.02331844       0.005
   0.04915958  0.02457979  0.02331844       0.009
   0.07373937  0.02457979  0.02331844       0.009
   0.09831917  0.02457979  0.02331844       0.009
   0.12289896  0.02457979  0.02331844       0.009
   0.14747875  0.02457979  0.02331844       0.005
   0.04915958  0.04915958  0.02331844       0.005
   0.07373937  0.04915958  0.02331844       0.009
   0.09831917  0.04915958  0.02331844       0.009
   0.12289896  0.04915958  0.02331844       0.009
   0.14747875  0.04915958  0.02331844       0.005
   0.07373937  0.07373937  0.02331844       0.005
   0.09831917  0.07373937  0.02331844       0.009
   0.12289896  0.07373937  0.02331844       0.009
   0.14747875  0.07373937  0.02331844       0.005
   0.09831917  0.09831917  0.02331844       0.005
   0.12289896  0.09831917  0.02331844       0.009
   0.14747875  0.09831917  0.02331844       0.005
   0.12289896  0.12289896  0.02331844       0.005
   0.14747875  0.12289896  0.02331844       0.005
   0.14747875  0.14747875  0.02331844       0.001
   0.00000000  0.00000000  0.04663688       0.001
   0.02457979  0.00000000  0.04663688       0.005
   0.04915958  0.00000000  0.04663688       0.005
   0.07373937  0.00000000  0.04663688       0.005
   0.09831917  0.00000000  0.04663688       0.005
   0.12289896  0.00000000  0.04663688       0.005
   0.14747875  0.00000000  0.04663688       0.002
   0.02457979  0.02457979  0.04663688       0.005
   0.04915958  0.02457979  0.04663688       0.009
   0.07373937  0.02457979  0.04663688       0.009
   0.09831917  0.02457979  0.04663688       0.009
   0.12289896  0.02457979  0.04663688       0.009
   0.14747875  0.02457979  0.04663688       0.005
   0.04915958  0.04915958  0.04663688       0.005
   0.07373937  0.04915958  0.04663688       0.009
   0.09831917  0.04915958  0.04663688       0.009
   0.12289896  0.04915958  0.04663688       0.009
   0.14747875  0.04915958  0.04663688       0.005
   0.07373937  0.07373937  0.04663688       0.005
   0.09831917  0.07373937  0.04663688       0.009
   0.12289896  0.07373937  0.04663688       0.009
   0.14747875  0.07373937  0.04663688       0.005
   0.09831917  0.09831917  0.04663688       0.005
   0.12289896  0.09831917  0.04663688       0.009
   0.14747875  0.09831917  0.04663688       0.005
   0.12289896  0.12289896  0.04663688       0.005
   0.14747875  0.12289896  0.04663688       0.005
   0.14747875  0.14747875  0.04663688       0.001
   0.00000000  0.00000000  0.06995531       0.001
   0.02457979  0.00000000  0.06995531       0.005
   0.04915958  0.00000000  0.06995531       0.005
   0.07373937  0.00000000  0.06995531       0.005
   0.09831917  0.00000000  0.06995531       0.005
   0.12289896  0.00000000  0.06995531       0.005
   0.14747875  0.00000000  0.06995531       0.002
   0.02457979  0.02457979  0.06995531       0.005
   0.04915958  0.02457979  0.06995531       0.009
   0.07373937  0.02457979  0.06995531       0.009
   0.09831917  0.02457979  0.06995531       0.009
   0.12289896  0.02457979  0.06995531       0.009
   0.14747875  0.02457979  0.06995531       0.005
   0.04915958  0.04915958  0.06995531       0.005
   0.07373937  0.04915958  0.06995531       0.009
   0.09831917  0.04915958  0.06995531       0.009
   0.12289896  0.04915958  0.06995531       0.009
   0.14747875  0.04915958  0.06995531       0.005
   0.07373937  0.07373937  0.06995531       0.005
   0.09831917  0.07373937  0.06995531       0.009
   0.12289896  0.07373937  0.06995531       0.009
   0.14747875  0.07373937  0.06995531       0.005
   0.09831917  0.09831917  0.06995531       0.005
   0.12289896  0.09831917  0.06995531       0.009
   0.14747875  0.09831917  0.06995531       0.005
   0.12289896  0.12289896  0.06995531       0.005
   0.14747875  0.12289896  0.06995531       0.005
   0.14747875  0.14747875  0.06995531       0.001
   0.00000000  0.00000000  0.09327375       0.001
   0.02457979  0.00000000  0.09327375       0.005
   0.04915958  0.00000000  0.09327375       0.005
   0.07373937  0.00000000  0.09327375       0.005
   0.09831917  0.00000000  0.09327375       0.005
   0.12289896  0.00000000  0.09327375       0.005
   0.14747875  0.00000000  0.09327375       0.002
   0.02457979  0.02457979  0.09327375       0.005
   0.04915958  0.02457979  0.09327375       0.009
   0.07373937  0.02457979  0.09327375       0.009
   0.09831917  0.02457979  0.09327375       0.009
   0.12289896  0.02457979  0.09327375       0.009
   0.14747875  0.02457979  0.09327375       0.005
   0.04915958  0.04915958  0.09327375       0.005
   0.07373937  0.04915958  0.09327375       0.009
   0.09831917  0.04915958  0.09327375       0.009
   0.12289896  0.04915958  0.09327375       0.009
   0.14747875  0.04915958  0.09327375       0.005
   0.07373937  0.07373937  0.09327375       0.005
   0.09831917  0.07373937  0.09327375       0.009
   0.12289896  0.07373937  0.09327375       0.009
   0.14747875  0.07373937  0.09327375       0.005
   0.09831917  0.09831917  0.09327375       0.005
   0.12289896  0.09831917  0.09327375       0.009
   0.14747875  0.09831917  0.09327375       0.005
   0.12289896  0.12289896  0.09327375       0.005
   0.14747875  0.12289896  0.09327375       0.005
   0.14747875  0.14747875  0.09327375       0.001
   0.00000000  0.00000000  0.11659219       0.001
   0.02457979  0.00000000  0.11659219       0.005
   0.04915958  0.00000000  0.11659219       0.005
   0.07373937  0.00000000  0.11659219       0.005
   0.09831917  0.00000000  0.11659219       0.005
   0.12289896  0.00000000  0.11659219       0.005
   0.14747875  0.00000000  0.11659219       0.002
   0.02457979  0.02457979  0.11659219       0.005
   0.04915958  0.02457979  0.11659219       0.009
   0.07373937  0.02457979  0.11659219       0.009
   0.09831917  0.02457979  0.11659219       0.009
   0.12289896  0.02457979  0.11659219       0.009
   0.14747875  0.02457979  0.11659219       0.005
   0.04915958  0.04915958  0.11659219       0.005
   0.07373937  0.04915958  0.11659219       0.009
   0.09831917  0.04915958  0.11659219       0.009
   0.12289896  0.04915958  0.11659219       0.009
   0.14747875  0.04915958  0.11659219       0.005
   0.07373937  0.07373937  0.11659219       0.005
   0.09831917  0.07373937  0.11659219       0.009
   0.12289896  0.07373937  0.11659219       0.009
   0.14747875  0.07373937  0.11659219       0.005
   0.09831917  0.09831917  0.11659219       0.005
   0.12289896  0.09831917  0.11659219       0.009
   0.14747875  0.09831917  0.11659219       0.005
   0.12289896  0.12289896  0.11659219       0.005
   0.14747875  0.12289896  0.11659219       0.005
   0.14747875  0.14747875  0.11659219       0.001
   0.00000000  0.00000000  0.13991063       0.001
   0.02457979  0.00000000  0.13991063       0.002
   0.04915958  0.00000000  0.13991063       0.002
   0.07373937  0.00000000  0.13991063       0.002
   0.09831917  0.00000000  0.13991063       0.002
   0.12289896  0.00000000  0.13991063       0.002
   0.14747875  0.00000000  0.13991063       0.001
   0.02457979  0.02457979  0.13991063       0.002
   0.04915958  0.02457979  0.13991063       0.005
   0.07373937  0.02457979  0.13991063       0.005
   0.09831917  0.02457979  0.13991063       0.005
   0.12289896  0.02457979  0.13991063       0.005
   0.14747875  0.02457979  0.13991063       0.002
   0.04915958  0.04915958  0.13991063       0.002
   0.07373937  0.04915958  0.13991063       0.005
   0.09831917  0.04915958  0.13991063       0.005
   0.12289896  0.04915958  0.13991063       0.005
   0.14747875  0.04915958  0.13991063       0.002
   0.07373937  0.07373937  0.13991063       0.002
   0.09831917  0.07373937  0.13991063       0.005
   0.12289896  0.07373937  0.13991063       0.005
   0.14747875  0.07373937  0.13991063       0.002
   0.09831917  0.09831917  0.13991063       0.002
   0.12289896  0.09831917  0.13991063       0.005
   0.14747875  0.09831917  0.13991063       0.002
   0.12289896  0.12289896  0.13991063       0.002
   0.14747875  0.12289896  0.13991063       0.002
   0.14747875  0.14747875  0.13991063       0.001
 
 k-points in reciprocal lattice and weights: kpt_density=1000                        
   0.00000000  0.00000000  0.00000000       0.001
   0.08333333  0.00000000  0.00000000       0.002
   0.16666667  0.00000000  0.00000000       0.002
   0.25000000  0.00000000  0.00000000       0.002
   0.33333333  0.00000000  0.00000000       0.002
   0.41666667  0.00000000  0.00000000       0.002
   0.50000000  0.00000000  0.00000000       0.001
   0.08333333  0.08333333  0.00000000       0.002
   0.16666667  0.08333333  0.00000000       0.005
   0.25000000  0.08333333  0.00000000       0.005
   0.33333333  0.08333333  0.00000000       0.005
   0.41666667  0.08333333  0.00000000       0.005
   0.50000000  0.08333333  0.00000000       0.002
   0.16666667  0.16666667  0.00000000       0.002
   0.25000000  0.16666667  0.00000000       0.005
   0.33333333  0.16666667  0.00000000       0.005
   0.41666667  0.16666667  0.00000000       0.005
   0.50000000  0.16666667  0.00000000       0.002
   0.25000000  0.25000000  0.00000000       0.002
   0.33333333  0.25000000  0.00000000       0.005
   0.41666667  0.25000000  0.00000000       0.005
   0.50000000  0.25000000  0.00000000       0.002
   0.33333333  0.33333333  0.00000000       0.002
   0.41666667  0.33333333  0.00000000       0.005
   0.50000000  0.33333333  0.00000000       0.002
   0.41666667  0.41666667  0.00000000       0.002
   0.50000000  0.41666667  0.00000000       0.002
   0.50000000  0.50000000  0.00000000       0.001
   0.00000000  0.00000000  0.08333333       0.001
   0.08333333  0.00000000  0.08333333       0.005
   0.16666667  0.00000000  0.08333333       0.005
   0.25000000  0.00000000  0.08333333       0.005
   0.33333333  0.00000000  0.08333333       0.005
   0.41666667  0.00000000  0.08333333       0.005
   0.50000000  0.00000000  0.08333333       0.002
   0.08333333  0.08333333  0.08333333       0.005
   0.16666667  0.08333333  0.08333333       0.009
   0.25000000  0.08333333  0.08333333       0.009
   0.33333333  0.08333333  0.08333333       0.009
   0.41666667  0.08333333  0.08333333       0.009
   0.50000000  0.08333333  0.08333333       0.005
   0.16666667  0.16666667  0.08333333       0.005
   0.25000000  0.16666667  0.08333333       0.009
   0.33333333  0.16666667  0.08333333       0.009
   0.41666667  0.16666667  0.08333333       0.009
   0.50000000  0.16666667  0.08333333       0.005
   0.25000000  0.25000000  0.08333333       0.005
   0.33333333  0.25000000  0.08333333       0.009
   0.41666667  0.25000000  0.08333333       0.009
   0.50000000  0.25000000  0.08333333       0.005
   0.33333333  0.33333333  0.08333333       0.005
   0.41666667  0.33333333  0.08333333       0.009
   0.50000000  0.33333333  0.08333333       0.005
   0.41666667  0.41666667  0.08333333       0.005
   0.50000000  0.41666667  0.08333333       0.005
   0.50000000  0.50000000  0.08333333       0.001
   0.00000000  0.00000000  0.16666667       0.001
   0.08333333  0.00000000  0.16666667       0.005
   0.16666667  0.00000000  0.16666667       0.005
   0.25000000  0.00000000  0.16666667       0.005
   0.33333333  0.00000000  0.16666667       0.005
   0.41666667  0.00000000  0.16666667       0.005
   0.50000000  0.00000000  0.16666667       0.002
   0.08333333  0.08333333  0.16666667       0.005
   0.16666667  0.08333333  0.16666667       0.009
   0.25000000  0.08333333  0.16666667       0.009
   0.33333333  0.08333333  0.16666667       0.009
   0.41666667  0.08333333  0.16666667       0.009
   0.50000000  0.08333333  0.16666667       0.005
   0.16666667  0.16666667  0.16666667       0.005
   0.25000000  0.16666667  0.16666667       0.009
   0.33333333  0.16666667  0.16666667       0.009
   0.41666667  0.16666667  0.16666667       0.009
   0.50000000  0.16666667  0.16666667       0.005
   0.25000000  0.25000000  0.16666667       0.005
   0.33333333  0.25000000  0.16666667       0.009
   0.41666667  0.25000000  0.16666667       0.009
   0.50000000  0.25000000  0.16666667       0.005
   0.33333333  0.33333333  0.16666667       0.005
   0.41666667  0.33333333  0.16666667       0.009
   0.50000000  0.33333333  0.16666667       0.005
   0.41666667  0.41666667  0.16666667       0.005
   0.50000000  0.41666667  0.16666667       0.005
   0.50000000  0.50000000  0.16666667       0.001
   0.00000000  0.00000000  0.25000000       0.001
   0.08333333  0.00000000  0.25000000       0.005
   0.16666667  0.00000000  0.25000000       0.005
   0.25000000  0.00000000  0.25000000       0.005
   0.33333333  0.00000000  0.25000000       0.005
   0.41666667  0.00000000  0.25000000       0.005
   0.50000000  0.00000000  0.25000000       0.002
   0.08333333  0.08333333  0.25000000       0.005
   0.16666667  0.08333333  0.25000000       0.009
   0.25000000  0.08333333  0.25000000       0.009
   0.33333333  0.08333333  0.25000000       0.009
   0.41666667  0.08333333  0.25000000       0.009
   0.50000000  0.08333333  0.25000000       0.005
   0.16666667  0.16666667  0.25000000       0.005
   0.25000000  0.16666667  0.25000000       0.009
   0.33333333  0.16666667  0.25000000       0.009
   0.41666667  0.16666667  0.25000000       0.009
   0.50000000  0.16666667  0.25000000       0.005
   0.25000000  0.25000000  0.25000000       0.005
   0.33333333  0.25000000  0.25000000       0.009
   0.41666667  0.25000000  0.25000000       0.009
   0.50000000  0.25000000  0.25000000       0.005
   0.33333333  0.33333333  0.25000000       0.005
   0.41666667  0.33333333  0.25000000       0.009
   0.50000000  0.33333333  0.25000000       0.005
   0.41666667  0.41666667  0.25000000       0.005
   0.50000000  0.41666667  0.25000000       0.005
   0.50000000  0.50000000  0.25000000       0.001
   0.00000000  0.00000000  0.33333333       0.001
   0.08333333  0.00000000  0.33333333       0.005
   0.16666667  0.00000000  0.33333333       0.005
   0.25000000  0.00000000  0.33333333       0.005
   0.33333333  0.00000000  0.33333333       0.005
   0.41666667  0.00000000  0.33333333       0.005
   0.50000000  0.00000000  0.33333333       0.002
   0.08333333  0.08333333  0.33333333       0.005
   0.16666667  0.08333333  0.33333333       0.009
   0.25000000  0.08333333  0.33333333       0.009
   0.33333333  0.08333333  0.33333333       0.009
   0.41666667  0.08333333  0.33333333       0.009
   0.50000000  0.08333333  0.33333333       0.005
   0.16666667  0.16666667  0.33333333       0.005
   0.25000000  0.16666667  0.33333333       0.009
   0.33333333  0.16666667  0.33333333       0.009
   0.41666667  0.16666667  0.33333333       0.009
   0.50000000  0.16666667  0.33333333       0.005
   0.25000000  0.25000000  0.33333333       0.005
   0.33333333  0.25000000  0.33333333       0.009
   0.41666667  0.25000000  0.33333333       0.009
   0.50000000  0.25000000  0.33333333       0.005
   0.33333333  0.33333333  0.33333333       0.005
   0.41666667  0.33333333  0.33333333       0.009
   0.50000000  0.33333333  0.33333333       0.005
   0.41666667  0.41666667  0.33333333       0.005
   0.50000000  0.41666667  0.33333333       0.005
   0.50000000  0.50000000  0.33333333       0.001
   0.00000000  0.00000000  0.41666667       0.001
   0.08333333  0.00000000  0.41666667       0.005
   0.16666667  0.00000000  0.41666667       0.005
   0.25000000  0.00000000  0.41666667       0.005
   0.33333333  0.00000000  0.41666667       0.005
   0.41666667  0.00000000  0.41666667       0.005
   0.50000000  0.00000000  0.41666667       0.002
   0.08333333  0.08333333  0.41666667       0.005
   0.16666667  0.08333333  0.41666667       0.009
   0.25000000  0.08333333  0.41666667       0.009
   0.33333333  0.08333333  0.41666667       0.009
   0.41666667  0.08333333  0.41666667       0.009
   0.50000000  0.08333333  0.41666667       0.005
   0.16666667  0.16666667  0.41666667       0.005
   0.25000000  0.16666667  0.41666667       0.009
   0.33333333  0.16666667  0.41666667       0.009
   0.41666667  0.16666667  0.41666667       0.009
   0.50000000  0.16666667  0.41666667       0.005
   0.25000000  0.25000000  0.41666667       0.005
   0.33333333  0.25000000  0.41666667       0.009
   0.41666667  0.25000000  0.41666667       0.009
   0.50000000  0.25000000  0.41666667       0.005
   0.33333333  0.33333333  0.41666667       0.005
   0.41666667  0.33333333  0.41666667       0.009
   0.50000000  0.33333333  0.41666667       0.005
   0.41666667  0.41666667  0.41666667       0.005
   0.50000000  0.41666667  0.41666667       0.005
   0.50000000  0.50000000  0.41666667       0.001
   0.00000000  0.00000000  0.50000000       0.001
   0.08333333  0.00000000  0.50000000       0.002
   0.16666667  0.00000000  0.50000000       0.002
   0.25000000  0.00000000  0.50000000       0.002
   0.33333333  0.00000000  0.50000000       0.002
   0.41666667  0.00000000  0.50000000       0.002
   0.50000000  0.00000000  0.50000000       0.001
   0.08333333  0.08333333  0.50000000       0.002
   0.16666667  0.08333333  0.50000000       0.005
   0.25000000  0.08333333  0.50000000       0.005
   0.33333333  0.08333333  0.50000000       0.005
   0.41666667  0.08333333  0.50000000       0.005
   0.50000000  0.08333333  0.50000000       0.002
   0.16666667  0.16666667  0.50000000       0.002
   0.25000000  0.16666667  0.50000000       0.005
   0.33333333  0.16666667  0.50000000       0.005
   0.41666667  0.16666667  0.50000000       0.005
   0.50000000  0.16666667  0.50000000       0.002
   0.25000000  0.25000000  0.50000000       0.002
   0.33333333  0.25000000  0.50000000       0.005
   0.41666667  0.25000000  0.50000000       0.005
   0.50000000  0.25000000  0.50000000       0.002
   0.33333333  0.33333333  0.50000000       0.002
   0.41666667  0.33333333  0.50000000       0.005
   0.50000000  0.33333333  0.50000000       0.002
   0.41666667  0.41666667  0.50000000       0.002
   0.50000000  0.41666667  0.50000000       0.002
   0.50000000  0.50000000  0.50000000       0.001
 
 position of ions in fractional coordinates (direct lattice) 
   0.25000000  0.75000000  0.25000000
   0.00000000  0.00000000  0.50000000
   0.25000000  0.25000000  0.75000000
   0.00000000  0.50000000  0.00000000
   0.75000000  0.75000000  0.75000000
   0.50000000  0.00000000  0.00000000
   0.75000000  0.25000000  0.25000000
   0.50000000  0.50000000  0.50000000
 
 position of ions in cartesian coordinates  (Angst):
   0.84757975  2.54273925  0.89342750
   0.00000000  0.00000000  1.78685500
   0.84757975  0.84757975  2.68028250
   0.00000000  1.69515950  0.00000000
   2.54273925  2.54273925  2.68028250
   1.69515950  0.00000000  0.00000000
   2.54273925  0.84757975  0.89342750
   1.69515950  1.69515950  1.78685500
 


--------------------------------------------------------------------------------------------------------


 k-point  1 :   0.0000 0.0000 0.0000  plane waves:     755
 k-point  2 :   0.0833 0.0000 0.0000  plane waves:     745
 k-point  3 :   0.1667 0.0000 0.0000  plane waves:     741
 k-point  4 :   0.2500 0.0000 0.0000  plane waves:     741
 k-point  5 :   0.3333 0.0000 0.0000  plane waves:     747
 k-point  6 :   0.4167 0.0000 0.0000  plane waves:     743
 k-point  7 :   0.5000 0.0000 0.0000  plane waves:     744
 k-point  8 :   0.0833 0.0833 0.0000  plane waves:     741
 k-point  9 :   0.1667 0.0833 0.0000  plane waves:     743
 k-point 10 :   0.2500 0.0833 0.0000  plane waves:     743
 k-point 11 :   0.3333 0.0833 0.0000  plane waves:     751
 k-point 12 :   0.4167 0.0833 0.0000  plane waves:     752
 k-point 13 :   0.5000 0.0833 0.0000  plane waves:     750
 k-point 14 :   0.1667 0.1667 0.0000  plane waves:     748
 k-point 15 :   0.2500 0.1667 0.0000  plane waves:     741
 k-point 16 :   0.3333 0.1667 0.0000  plane waves:     747
 k-point 17 :   0.4167 0.1667 0.0000  plane waves:     747
 k-point 18 :   0.5000 0.1667 0.0000  plane waves:     754
 k-point 19 :   0.2500 0.2500 0.0000  plane waves:     740
 k-point 20 :   0.3333 0.2500 0.0000  plane waves:     751
 k-point 21 :   0.4167 0.2500 0.0000  plane waves:     744
 k-point 22 :   0.5000 0.2500 0.0000  plane waves:     740
 k-point 23 :   0.3333 0.3333 0.0000  plane waves:     746
 k-point 24 :   0.4167 0.3333 0.0000  plane waves:     748
 k-point 25 :   0.5000 0.3333 0.0000  plane waves:     744
 k-point 26 :   0.4167 0.4167 0.0000  plane waves:     744
 k-point 27 :   0.5000 0.4167 0.0000  plane waves:     740
 k-point 28 :   0.5000 0.5000 0.0000  plane waves:     736
 k-point 29 :   0.0000 0.0000 0.0833  plane waves:     747
 k-point 30 :   0.0833 0.0000 0.0833  plane waves:     745
 k-point 31 :   0.1667 0.0000 0.0833  plane waves:     739
 k-point 32 :   0.2500 0.0000 0.0833  plane waves:     745
 k-point 33 :   0.3333 0.0000 0.0833  plane waves:     749
 k-point 34 :   0.4167 0.0000 0.0833  plane waves:     745
 k-point 35 :   0.5000 0.0000 0.0833  plane waves:     752
 k-point 36 :   0.0833 0.0833 0.0833  plane waves:     745
 k-point 37 :   0.1667 0.0833 0.0833  plane waves:     743
 k-point 38 :   0.2500 0.0833 0.0833  plane waves:     747
 k-point 39 :   0.3333 0.0833 0.0833  plane waves:     746
 k-point 40 :   0.4167 0.0833 0.0833  plane waves:     747
 k-point 41 :   0.5000 0.0833 0.0833  plane waves:     748
 k-point 42 :   0.1667 0.1667 0.0833  plane waves:     739
 k-point 43 :   0.2500 0.1667 0.0833  plane waves:     744
 k-point 44 :   0.3333 0.1667 0.0833  plane waves:     751
 k-point 45 :   0.4167 0.1667 0.0833  plane waves:     750
 k-point 46 :   0.5000 0.1667 0.0833  plane waves:     744
 k-point 47 :   0.2500 0.2500 0.0833  plane waves:     740
 k-point 48 :   0.3333 0.2500 0.0833  plane waves:     749
 k-point 49 :   0.4167 0.2500 0.0833  plane waves:     745
 k-point 50 :   0.5000 0.2500 0.0833  plane waves:     740
 k-point 51 :   0.3333 0.3333 0.0833  plane waves:     748
 k-point 52 :   0.4167 0.3333 0.0833  plane waves:     745
 k-point 53 :   0.5000 0.3333 0.0833  plane waves:     732
 k-point 54 :   0.4167 0.4167 0.0833  plane waves:     742
 k-point 55 :   0.5000 0.4167 0.0833  plane waves:     744
 k-point 56 :   0.5000 0.5000 0.0833  plane waves:     752
 k-point 57 :   0.0000 0.0000 0.1667  plane waves:     759
 k-point 58 :   0.0833 0.0000 0.1667  plane waves:     755
 k-point 59 :   0.1667 0.0000 0.1667  plane waves:     743
 k-point 60 :   0.2500 0.0000 0.1667  plane waves:     741
 k-point 61 :   0.3333 0.0000 0.1667  plane waves:     747
 k-point 62 :   0.4167 0.0000 0.1667  plane waves:     744
 k-point 63 :   0.5000 0.0000 0.1667  plane waves:     748
 k-point 64 :   0.0833 0.0833 0.1667  plane waves:     748
 k-point 65 :   0.1667 0.0833 0.1667  plane waves:     746
 k-point 66 :   0.2500 0.0833 0.1667  plane waves:     745
 k-point 67 :   0.3333 0.0833 0.1667  plane waves:     747
 k-point 68 :   0.4167 0.0833 0.1667  plane waves:     743
 k-point 69 :   0.5000 0.0833 0.1667  plane waves:     742
 k-point 70 :   0.1667 0.1667 0.1667  plane waves:     742
 k-point 71 :   0.2500 0.1667 0.1667  plane waves:     741
 k-point 72 :   0.3333 0.1667 0.1667  plane waves:     745
 k-point 73 :   0.4167 0.1667 0.1667  plane waves:     745
 k-point 74 :   0.5000 0.1667 0.1667  plane waves:     740
 k-point 75 :   0.2500 0.2500 0.1667  plane waves:     743
 k-point 76 :   0.3333 0.2500 0.1667  plane waves:     747
 k-point 77 :   0.4167 0.2500 0.1667  plane waves:     743
 k-point 78 :   0.5000 0.2500 0.1667  plane waves:     744
 k-point 79 :   0.3333 0.3333 0.1667  plane waves:     742
 k-point 80 :   0.4167 0.3333 0.1667  plane waves:     741
 k-point 81 :   0.5000 0.3333 0.1667  plane waves:     736
 k-point 82 :   0.4167 0.4167 0.1667  plane waves:     740
 k-point 83 :   0.5000 0.4167 0.1667  plane waves:     740
 k-point 84 :   0.5000 0.5000 0.1667  plane waves:     744
 k-point 85 :   0.0000 0.0000 0.2500  plane waves:     768
 k-point 86 :   0.0833 0.0000 0.2500  plane waves:     760
 k-point 87 :   0.1667 0.0000 0.2500  plane waves:     751
 k-point 88 :   0.2500 0.0000 0.2500  plane waves:     746
 k-point 89 :   0.3333 0.0000 0.2500  plane waves:     747
 k-point 90 :   0.4167 0.0000 0.2500  plane waves:     746
 k-point 91 :   0.5000 0.0000 0.2500  plane waves:     736
 k-point 92 :   0.0833 0.0833 0.2500  plane waves:     753
 k-point 93 :   0.1667 0.0833 0.2500  plane waves:     752
 k-point 94 :   0.2500 0.0833 0.2500  plane waves:     748
 k-point 95 :   0.3333 0.0833 0.2500  plane waves:     747
 k-point 96 :   0.4167 0.0833 0.2500  plane waves:     740
 k-point 97 :   0.5000 0.0833 0.2500  plane waves:     740
 k-point 98 :   0.1667 0.1667 0.2500  plane waves:     747
 k-point 99 :   0.2500 0.1667 0.2500  plane waves:     746
 k-point ** :   0.3333 0.1667 0.2500  plane waves:     748
 k-point ** :   0.4167 0.1667 0.2500  plane waves:     749
 k-point ** :   0.5000 0.1667 0.2500  plane waves:     750
 k-point ** :   0.2500 0.2500 0.2500  plane waves:     745
 k-point ** :   0.3333 0.2500 0.2500  plane waves:     745
 k-point ** :   0.4167 0.2500 0.2500  plane waves:     743
 k-point ** :   0.5000 0.2500 0.2500  plane waves:     742
 k-point ** :   0.3333 0.3333 0.2500  plane waves:     747
 k-point ** :   0.4167 0.3333 0.2500  plane waves:     738
 k-point ** :   0.5000 0.3333 0.2500  plane waves:     744
 k-point ** :   0.4167 0.4167 0.2500  plane waves:     737
 k-point ** :   0.5000 0.4167 0.2500  plane waves:     734
 k-point ** :   0.5000 0.5000 0.2500  plane waves:     732
 k-point ** :   0.0000 0.0000 0.3333  plane waves:     752
 k-point ** :   0.0833 0.0000 0.3333  plane waves:     755
 k-point ** :   0.1667 0.0000 0.3333  plane waves:     748
 k-point ** :   0.2500 0.0000 0.3333  plane waves:     757
 k-point ** :   0.3333 0.0000 0.3333  plane waves:     750
 k-point ** :   0.4167 0.0000 0.3333  plane waves:     749
 k-point ** :   0.5000 0.0000 0.3333  plane waves:     744
 k-point ** :   0.0833 0.0833 0.3333  plane waves:     757
 k-point ** :   0.1667 0.0833 0.3333  plane waves:     753
 k-point ** :   0.2500 0.0833 0.3333  plane waves:     750
 k-point ** :   0.3333 0.0833 0.3333  plane waves:     749
 k-point ** :   0.4167 0.0833 0.3333  plane waves:     743
 k-point ** :   0.5000 0.0833 0.3333  plane waves:     748
 k-point ** :   0.1667 0.1667 0.3333  plane waves:     760
 k-point ** :   0.2500 0.1667 0.3333  plane waves:     751
 k-point ** :   0.3333 0.1667 0.3333  plane waves:     748
 k-point ** :   0.4167 0.1667 0.3333  plane waves:     745
 k-point ** :   0.5000 0.1667 0.3333  plane waves:     752
 k-point ** :   0.2500 0.2500 0.3333  plane waves:     752
 k-point ** :   0.3333 0.2500 0.3333  plane waves:     745
 k-point ** :   0.4167 0.2500 0.3333  plane waves:     745
 k-point ** :   0.5000 0.2500 0.3333  plane waves:     742
 k-point ** :   0.3333 0.3333 0.3333  plane waves:     741
 k-point ** :   0.4167 0.3333 0.3333  plane waves:     737
 k-point ** :   0.5000 0.3333 0.3333  plane waves:     732
 k-point ** :   0.4167 0.4167 0.3333  plane waves:     733
 k-point ** :   0.5000 0.4167 0.3333  plane waves:     732
 k-point ** :   0.5000 0.5000 0.3333  plane waves:     724
 k-point ** :   0.0000 0.0000 0.4167  plane waves:     756
 k-point ** :   0.0833 0.0000 0.4167  plane waves:     755
 k-point ** :   0.1667 0.0000 0.4167  plane waves:     753
 k-point ** :   0.2500 0.0000 0.4167  plane waves:     757
 k-point ** :   0.3333 0.0000 0.4167  plane waves:     748
 k-point ** :   0.4167 0.0000 0.4167  plane waves:     747
 k-point ** :   0.5000 0.0000 0.4167  plane waves:     750
 k-point ** :   0.0833 0.0833 0.4167  plane waves:     753
 k-point ** :   0.1667 0.0833 0.4167  plane waves:     754
 k-point ** :   0.2500 0.0833 0.4167  plane waves:     751
 k-point ** :   0.3333 0.0833 0.4167  plane waves:     752
 k-point ** :   0.4167 0.0833 0.4167  plane waves:     747
 k-point ** :   0.5000 0.0833 0.4167  plane waves:     746
 k-point ** :   0.1667 0.1667 0.4167  plane waves:     760
 k-point ** :   0.2500 0.1667 0.4167  plane waves:     756
 k-point ** :   0.3333 0.1667 0.4167  plane waves:     747
 k-point ** :   0.4167 0.1667 0.4167  plane waves:     745
 k-point ** :   0.5000 0.1667 0.4167  plane waves:     744
 k-point ** :   0.2500 0.2500 0.4167  plane waves:     753
 k-point ** :   0.3333 0.2500 0.4167  plane waves:     750
 k-point ** :   0.4167 0.2500 0.4167  plane waves:     741
 k-point ** :   0.5000 0.2500 0.4167  plane waves:     740
 k-point ** :   0.3333 0.3333 0.4167  plane waves:     749
 k-point ** :   0.4167 0.3333 0.4167  plane waves:     736
 k-point ** :   0.5000 0.3333 0.4167  plane waves:     732
 k-point ** :   0.4167 0.4167 0.4167  plane waves:     732
 k-point ** :   0.5000 0.4167 0.4167  plane waves:     728
 k-point ** :   0.5000 0.5000 0.4167  plane waves:     732
 k-point ** :   0.0000 0.0000 0.5000  plane waves:     724
 k-point ** :   0.0833 0.0000 0.5000  plane waves:     742
 k-point ** :   0.1667 0.0000 0.5000  plane waves:     754
 k-point ** :   0.2500 0.0000 0.5000  plane waves:     756
 k-point ** :   0.3333 0.0000 0.5000  plane waves:     748
 k-point ** :   0.4167 0.0000 0.5000  plane waves:     746
 k-point ** :   0.5000 0.0000 0.5000  plane waves:     752
 k-point ** :   0.0833 0.0833 0.5000  plane waves:     752
 k-point ** :   0.1667 0.0833 0.5000  plane waves:     754
 k-point ** :   0.2500 0.0833 0.5000  plane waves:     754
 k-point ** :   0.3333 0.0833 0.5000  plane waves:     754
 k-point ** :   0.4167 0.0833 0.5000  plane waves:     750
 k-point ** :   0.5000 0.0833 0.5000  plane waves:     748
 k-point ** :   0.1667 0.1667 0.5000  plane waves:     760
 k-point ** :   0.2500 0.1667 0.5000  plane waves:     758
 k-point ** :   0.3333 0.1667 0.5000  plane waves:     750
 k-point ** :   0.4167 0.1667 0.5000  plane waves:     742
 k-point ** :   0.5000 0.1667 0.5000  plane waves:     744
 k-point ** :   0.2500 0.2500 0.5000  plane waves:     754
 k-point ** :   0.3333 0.2500 0.5000  plane waves:     756
 k-point ** :   0.4167 0.2500 0.5000  plane waves:     744
 k-point ** :   0.5000 0.2500 0.5000  plane waves:     744
 k-point ** :   0.3333 0.3333 0.5000  plane waves:     748
 k-point ** :   0.4167 0.3333 0.5000  plane waves:     738
 k-point ** :   0.5000 0.3333 0.5000  plane waves:     728
 k-point ** :   0.4167 0.4167 0.5000  plane waves:     736
 k-point ** :   0.5000 0.4167 0.5000  plane waves:     728
 k-point ** :   0.5000 0.5000 0.5000  plane waves:     720

 maximum and minimum number of plane-waves per node :       198      177

 maximum number of plane-waves:       768
 maximum index in each direction: 
   IXMAX=    5   IYMAX=    5   IZMAX=    5
   IXMIN=   -6   IYMIN=   -6   IZMIN=   -6


 parallel 3D FFT for wavefunctions:
    minimum data exchange during FFTs selected (reduces bandwidth)
 parallel 3D FFT for charge:
    minimum data exchange during FFTs selected (reduces bandwidth)


 total amount of memory used by VASP MPI-rank0    37052. kBytes
=======================================================================

   base      :      30000. kBytes
   nonl-proj :       2382. kBytes
   fftplans  :        345. kBytes
   grid      :        481. kBytes
   one-center:          6. kBytes
   wavefun   :       3838. kBytes
 
     INWAV:  cpu time    0.0004: real time    0.0007
 Broyden mixing: mesh for mixing (old mesh)
   NGX = 11   NGY = 11   NGZ = 11
  (NGX  = 48   NGY  = 48   NGZ  = 48)
  gives a total of   1331 points

 initial charge density was supplied:
 charge density of overlapping atoms calculated
 number of electron      32.0000000 magnetization 
 keeping initial charge density in first step


--------------------------------------------------------------------------------------------------------


 Maximum index for augmentation-charges          289 (set IRDMAX)


--------------------------------------------------------------------------------------------------------


 First call to EWALD:  gamma=   0.514
 Maximum number of real-space cells 3x 3x 3
 Maximum number of reciprocal cells 3x 3x 3

    FEWALD:  cpu time    0.0053: real time    0.0053


--------------------------------------- Iteration      1(   1)  ---------------------------------------


    POTLOK:  cpu time    0.0271: real time    0.0313
    SETDIJ:  cpu time    0.0068: real time    0.0068
     EDDAV:  cpu time   12.3594: real time   12.3722
 BZINTS: Fermi energy: 20.196878; 32.000000 electrons
         Band energy: 149.669628;  BLOECHL correction: -0.213468
       DOS:  cpu time    0.5012: real time    0.5012
    --------------------------------------------
      LOOP:  cpu time   12.8946: real time   12.9116

 eigenvalue-minimisations  :  9416
 total energy-change (2. order) : 0.6023509E+02  (-0.1462518E+04)
 number of electron      32.0000000 magnetization 
 augmentation part       32.0000000 magnetization 

 Free energy of the ion-electron system (eV)
  ---------------------------------------------------
  alpha Z        PSCENC =       126.94962841
  Ewald energy   TEWEN  =     -1439.40681632
  -Hartree energ DENC   =       -61.77871058
  -exchange      EXHF   =         0.00000000
  -V(xc)+E(xc)   XCENC  =       116.98740661
  PAW double counting   =       302.65154477     -311.85538214
  entropy T*S    EENTRO =         0.00000000
  eigenvalues    EBANDS =       149.66962827
  atomic energy  EATOM  =      1177.01779097
  Solvation  Ediel_sol  =         0.00000000
  ---------------------------------------------------
  free energy    TOTEN  =        60.23509000 eV

  energy without entropy =       60.23509000  energy(sigma->0) =       60.23509000


--------------------------------------------------------------------------------------------------------




--------------------------------------- Iteration      1(   2)  ---------------------------------------


     EDDAV:  cpu time   15.6617: real time   15.6628
 BZINTS: Fermi energy: 10.772457; 32.000000 electrons
         Band energy:  18.387412;  BLOECHL correction:  0.000000
       DOS:  cpu time    0.1512: real time    0.1512
    --------------------------------------------
      LOOP:  cpu time   15.8129: real time   15.8139

 eigenvalue-minimisations  : 13016
 total energy-change (2. order) :-0.1312822E+03  (-0.1247138E+03)
 number of electron      32.0000000 magnetization 
 augmentation part       32.0000000 magnetization 

 Free energy of the ion-electron system (eV)
  ---------------------------------------------------
  alpha Z        PSCENC =       126.94962841
  Ewald energy   TEWEN  =     -1439.40681632
  -Hartree energ DENC   =       -61.77871058
  -exchange      EXHF   =         0.00000000
  -V(xc)+E(xc)   XCENC  =       116.98740661
  PAW double counting   =       302.65154477     -311.85538214
  entropy T*S    EENTRO =         0.00000000
  eigenvalues    EBANDS =        18.38741247
  atomic energy  EATOM  =      1177.01779097
  Solvation  Ediel_sol  =         0.00000000
  ---------------------------------------------------
  free energy    TOTEN  =       -71.04712580 eV

  energy without entropy =      -71.04712580  energy(sigma->0) =      -71.04712580


--------------------------------------------------------------------------------------------------------




--------------------------------------- Iteration      1(   3)  ---------------------------------------


     EDDAV:  cpu time   14.9357: real time   14.9445
 BZINTS: Fermi energy:  9.968242; 32.000000 electrons
         Band energy:  14.330311;  BLOECHL correction:  0.000000
       DOS:  cpu time    0.1095: real time    0.1095
    --------------------------------------------
      LOOP:  cpu time   15.0452: real time   15.0541

 eigenvalue-minimisations  : 12304
 total energy-change (2. order) :-0.4057101E+01  (-0.4037691E+01)
 number of electron      32.0000000 magnetization 
 augmentation part       32.0000000 magnetization 

 Free energy of the ion-electron system (eV)
  ---------------------------------------------------
  alpha Z        PSCENC =       126.94962841
  Ewald energy   TEWEN  =     -1439.40681632
  -Hartree energ DENC   =       -61.77871058
  -exchange      EXHF   =         0.00000000
  -V(xc)+E(xc)   XCENC  =       116.98740661
  PAW double counting   =       302.65154477     -311.85538214
  entropy T*S    EENTRO =         0.00000000
  eigenvalues    EBANDS =        14.33031150
  atomic energy  EATOM  =      1177.01779097
  Solvation  Ediel_sol  =         0.00000000
  ---------------------------------------------------
  free energy    TOTEN  =       -75.10422678 eV

  energy without entropy =      -75.10422678  energy(sigma->0) =      -75.10422678


--------------------------------------------------------------------------------------------------------




--------------------------------------- Iteration      1(   4)  ---------------------------------------


     EDDAV:  cpu time   14.0573: real time   14.0584
 BZINTS: Fermi energy: 10.029046; 32.000000 electrons
         Band energy:  14.295686;  BLOECHL correction:  0.000000
       DOS:  cpu time    0.1243: real time    0.1243
    --------------------------------------------
      LOOP:  cpu time   14.1816: real time   14.1827

 eigenvalue-minimisations  : 11544
 total energy-change (2. order) :-0.3462570E-01  (-0.3459359E-01)
 number of electron      32.0000000 magnetization 
 augmentation part       32.0000000 magnetization 

 Free energy of the ion-electron system (eV)
  ---------------------------------------------------
  alpha Z        PSCENC =       126.94962841
  Ewald energy   TEWEN  =     -1439.40681632
  -Hartree energ DENC   =       -61.77871058
  -exchange      EXHF   =         0.00000000
  -V(xc)+E(xc)   XCENC  =       116.98740661
  PAW double counting   =       302.65154477     -311.85538214
  entropy T*S    EENTRO =         0.00000000
  eigenvalues    EBANDS =        14.29568580
  atomic energy  EATOM  =      1177.01779097
  Solvation  Ediel_sol  =         0.00000000
  ---------------------------------------------------
  free energy    TOTEN  =       -75.13885247 eV

  energy without entropy =      -75.13885247  energy(sigma->0) =      -75.13885247


--------------------------------------------------------------------------------------------------------




--------------------------------------- Iteration      1(   5)  ---------------------------------------


     EDDAV:  cpu time   14.5963: real time   14.5973
 BZINTS: Fermi energy: 10.012063; 32.000000 electrons
         Band energy:  14.295089;  BLOECHL correction:  0.000000
       DOS:  cpu time    0.1235: real time    0.1235
    CHARGE:  cpu time    0.3361: real time    0.3361
    MIXING:  cpu time    0.0017: real time    0.0017
    --------------------------------------------
      LOOP:  cpu time   15.0575: real time   15.0586

 eigenvalue-minimisations  : 12264
 total energy-change (2. order) :-0.5963752E-03  (-0.5962267E-03)
 number of electron      31.9999991 magnetization 
 augmentation part        0.8711635 magnetization 

 Broyden mixing:
  rms(total) = 0.10687E+01    rms(broyden)= 0.10685E+01
  rms(prec ) = 0.25063E+01
  weight for this iteration     100.00

 Free energy of the ion-electron system (eV)
  ---------------------------------------------------
  alpha Z        PSCENC =       126.94962841
  Ewald energy   TEWEN  =     -1439.40681632
  -Hartree energ DENC   =       -61.77871058
  -exchange      EXHF   =         0.00000000
  -V(xc)+E(xc)   XCENC  =       116.98740661
  PAW double counting   =       302.65154477     -311.85538214
  entropy T*S    EENTRO =         0.00000000
  eigenvalues    EBANDS =        14.29508942
  atomic energy  EATOM  =      1177.01779097
  Solvation  Ediel_sol  =         0.00000000
  ---------------------------------------------------
  free energy    TOTEN  =       -75.13944885 eV

  energy without entropy =      -75.13944885  energy(sigma->0) =      -75.13944885


--------------------------------------------------------------------------------------------------------




--------------------------------------- Iteration      1(   6)  ---------------------------------------


    POTLOK:  cpu time    0.0246: real time    0.0251
    SETDIJ:  cpu time    0.0062: real time    0.0062
     EDDAV:  cpu time   13.2633: real time   13.2639
 BZINTS: Fermi energy: 10.747328; 32.000000 electrons
         Band energy:  32.318793;  BLOECHL correction:  0.000000
       DOS:  cpu time    0.1240: real time    0.1240
    CHARGE:  cpu time    0.3286: real time    0.3287
    MIXING:  cpu time    0.0017: real time    0.0017
    --------------------------------------------
      LOOP:  cpu time   13.7484: real time   13.7495

 eigenvalue-minimisations  : 10456
 total energy-change (2. order) : 0.2518107E+01  (-0.1632881E+00)
 number of electron      31.9999991 magnetization 
 augmentation part        0.8498019 magnetization 

 Broyden mixing:
  rms(total) = 0.57702E+00    rms(broyden)= 0.57701E+00
  rms(prec ) = 0.13397E+01
  weight for this iteration     100.00

 eigenvalues of (default mixing * dielectric matrix)
  average eigenvalue GAMMA=   2.1346
  2.1346

 Free energy of the ion-electron system (eV)
  ---------------------------------------------------
  alpha Z        PSCENC =       126.94962841
  Ewald energy   TEWEN  =     -1439.40681632
  -Hartree energ DENC   =       -78.14921654
  -exchange      EXHF   =         0.00000000
  -V(xc)+E(xc)   XCENC  =       118.53719495
  PAW double counting   =       413.84624860     -423.73496498
  entropy T*S    EENTRO =         0.00000000
  eigenvalues    EBANDS =        32.31879345
  atomic energy  EATOM  =      1177.01779097
  Solvation  Ediel_sol  =         0.00000000
  ---------------------------------------------------
  free energy    TOTEN  =       -72.62134147 eV

  energy without entropy =      -72.62134147  energy(sigma->0) =      -72.62134147


--------------------------------------------------------------------------------------------------------




--------------------------------------- Iteration      1(   7)  ---------------------------------------


    POTLOK:  cpu time    0.0246: real time    0.0250
    SETDIJ:  cpu time    0.0061: real time    0.0061
     EDDAV:  cpu time   13.5307: real time   13.5313
 BZINTS: Fermi energy: 11.666231; 32.000000 electrons
         Band energy:  52.741204;  BLOECHL correction:  0.000000
       DOS:  cpu time    0.1244: real time    0.1244
    CHARGE:  cpu time    0.3259: real time    0.3260
    MIXING:  cpu time    0.0021: real time    0.0021
    --------------------------------------------
      LOOP:  cpu time   14.0138: real time   14.0149

 eigenvalue-minimisations  : 10824
 total energy-change (2. order) : 0.8471856E+00  (-0.1796631E+00)
 number of electron      31.9999992 magnetization 
 augmentation part        0.8266714 magnetization 

 Broyden mixing:
  rms(total) = 0.71944E-01    rms(broyden)= 0.71604E-01
  rms(prec ) = 0.12268E+00
  weight for this iteration     100.00

 eigenvalues of (default mixing * dielectric matrix)
  average eigenvalue GAMMA=   2.2690
  2.0013  2.5367

 Free energy of the ion-electron system (eV)
  ---------------------------------------------------
  alpha Z        PSCENC =       126.94962841
  Ewald energy   TEWEN  =     -1439.40681632
[...]

 k-point   184 :       0.3333    0.1667    0.5000
  band No.  band energies     occupation 
      1      -7.9519      2.00000
      2      -7.9519      2.00000
      3      -4.8678      2.00000
      4      -4.8678      2.00000
      5      -1.1003      2.00000
      6      -1.1003      2.00000
      7       1.7531      2.00000
      8       1.7531      2.00000
      9       4.2923      2.00000
     10       4.2923      2.00000
     11       6.4402      2.00000
     12       6.4402      2.00000
     13       6.4564      2.00000
     14       6.4564      2.00000
     15       7.9474      2.00000
     16       7.9474      2.00000
     17      19.0930      0.00000
     18      19.0930      0.00000
     19      19.6761      0.00000
     20      19.6761      0.00000
     21      21.0411      0.00000
     22      21.0411      0.00000
     23      21.3513      0.00000
     24      21.3513      0.00000

 k-point   185 :       0.4167    0.1667    0.5000
  band No.  band energies     occupation 
      1      -7.3453      2.00000
      2      -7.3453      2.00000
      3      -5.7812      2.00000
      4      -5.7812      2.00000
      5      -0.5860      2.00000
      6      -0.5860      2.00000
      7       0.8691      2.00000
      8       0.8691      2.00000
      9       4.8179      2.00000
     10       4.8179      2.00000
     11       5.9229      2.00000
     12       5.9229      2.00000
     13       7.2394      2.00000
     14       7.2394      2.00000
     15       7.9671      2.00000
     16       7.9671      2.00000
     17      19.0793      0.00000
     18      19.0793      0.00000
     19      19.8299      0.00000
     20      19.8299      0.00000
     21      21.1510      0.00000
     22      21.1510      0.00000
     23      21.1851      0.00000
     24      21.1851      0.00000

 k-point   186 :       0.5000    0.1667    0.5000
  band No.  band energies     occupation 
      1      -6.6170      2.00000
      2      -6.6170      2.00000
      3      -6.6170      2.00000
      4      -6.6170      2.00000
      5       0.0810      2.00000
      6       0.0810      2.00000
      7       0.0810      2.00000
      8       0.0810      2.00000
      9       5.3676      2.00000
     10       5.3676      2.00000
     11       5.3676      2.00000
     12       5.3676      2.00000
     13       7.7460      2.00000
     14       7.7460      2.00000
     15       7.7460      2.00000
     16       7.7460      2.00000
     17      19.3824      0.00000
     18      19.3824      0.00000
     19      19.3824      0.00000
     20      19.3824      0.00000
     21      21.2623      0.00000
     22      21.2623      0.00000
     23      21.2623      0.00000
     24      21.2623      0.00000

 k-point   187 :       0.2500    0.2500    0.5000
  band No.  band energies     occupation 
      1      -8.0882      2.00000
      2      -8.0882      2.00000
      3      -4.1089      2.00000
      4      -4.1089      2.00000
      5      -2.0829      2.00000
      6      -2.0829      2.00000
      7       1.6449      2.00000
      8       1.6449      2.00000
      9       4.8400      2.00000
     10       4.8400      2.00000
     11       5.9354      2.00000
     12       5.9354      2.00000
     13       7.2131      2.00000
     14       7.2131      2.00000
     15       7.8665      2.00000
     16       7.8665      2.00000
     17      19.1078      0.00000
     18      19.1078      0.00000
     19      19.4235      0.00000
     20      19.4235      0.00000
     21      20.4646      0.00000
     22      20.4646      0.00000
     23      22.1759      0.00000
     24      22.1764      0.00000

 k-point   188 :       0.3333    0.2500    0.5000
  band No.  band energies     occupation 
      1      -7.6153      2.00000
      2      -7.6153      2.00000
      3      -4.6991      2.00000
      4      -4.6991      2.00000
      5      -2.1223      2.00000
      6      -2.1223      2.00000
      7       0.6411      2.00000
      8       0.6411      2.00000
      9       5.5590      2.00000
     10       5.5590      2.00000
     11       6.6389      2.00000
     12       6.6389      2.00000
     13       7.1408      2.00000
     14       7.1408      2.00000
     15       8.0665      2.00000
     16       8.0665      2.00000
     17      19.3435      0.00000
     18      19.3435      0.00000
     19      19.4573      0.00000
     20      19.4573      0.00000
     21      20.3777      0.00000
     22      20.3777      0.00000
     23      21.4874      0.00000
     24      21.4874      0.00000

 k-point   189 :       0.4167    0.2500    0.5000
  band No.  band energies     occupation 
      1      -7.0167      2.00000
      2      -7.0167      2.00000
      3      -5.5066      2.00000
      4      -5.5066      2.00000
      5      -1.7103      2.00000
      6      -1.7103      2.00000
      7      -0.2723      2.00000
      8      -0.2723      2.00000
      9       6.0573      2.00000
     10       6.0573      2.00000
     11       6.8671      2.00000
     12       6.8671      2.00000
     13       7.3710      2.00000
     14       7.3710      2.00000
     15       8.1038      2.00000
     16       8.1038      2.00000
     17      19.3212      0.00000
     18      19.3212      0.00000
     19      19.6623      0.00000
     20      19.6623      0.00000
     21      20.5601      0.00000
     22      20.5601      0.00000
     23      21.0265      0.00000
     24      21.0265      0.00000

 k-point   190 :       0.5000    0.2500    0.5000
  band No.  band energies     occupation 
      1      -6.3047      2.00000
      2      -6.3047      2.00000
      3      -6.3047      2.00000
      4      -6.3047      2.00000
      5      -1.0679      2.00000
      6      -1.0679      2.00000
      7      -1.0679      2.00000
      8      -1.0679      2.00000
      9       6.4909      2.00000
     10       6.4909      2.00000
     11       6.4909      2.00000
     12       6.4909      2.00000
     13       7.8798      2.00000
     14       7.8798      2.00000
     15       7.8798      2.00000
     16       7.8798      2.00000
     17      19.4919      0.00000
     18      19.4919      0.00000
     19      19.4919      0.00000
     20      19.4919      0.00000
     21      20.7873      0.00000
     22      20.7873      0.00000
     23      20.7873      0.00000
     24      20.7873      0.00000

 k-point   191 :       0.3333    0.3333    0.5000
  band No.  band energies     occupation 
      1      -7.1506      2.00000
      2      -7.1506      2.00000
      3      -4.7248      2.00000
      4      -4.7248      2.00000
      5      -2.7252      2.00000
      6      -2.7252      2.00000
      7      -0.3925      2.00000
      8      -0.3925      2.00000
      9       6.6383      2.00000
     10       6.6383      2.00000
     11       6.9001      2.00000
     12       6.9001      2.00000
     13       7.4283      2.00000
     14       7.4283      2.00000
     15       8.2764      2.00000
     16       8.2764      2.00000
     17      19.4375      0.00000
     18      19.4375      0.00000
     19      19.6342      0.00000
     20      19.6342      0.00000
     21      19.9203      0.00000
     22      19.9203      0.00000
     23      21.3397      0.00000
     24      21.3397      0.00000

 k-point   192 :       0.4167    0.3333    0.5000
  band No.  band energies     occupation 
      1      -6.5687      2.00000
      2      -6.5687      2.00000
      3      -5.2023      2.00000
      4      -5.2023      2.00000
      5      -2.6376      2.00000
      6      -2.6376      2.00000
      7      -1.3153      2.00000
      8      -1.3153      2.00000
      9       7.0613      2.00000
     10       7.0613      2.00000
     11       7.4218      2.00000
     12       7.4218      2.00000
     13       7.5934      2.00000
     14       7.5934      2.00000
     15       8.3650      2.00000
     16       8.3650      2.00000
     17      19.4983      0.00000
     18      19.4983      0.00000
     19      19.5684      0.00000
     20      19.5684      0.00000
     21      20.1057      0.00000
     22      20.1057      0.00000
     23      20.8930      0.00000
     24      20.8930      0.00000

 k-point   193 :       0.5000    0.3333    0.5000
  band No.  band energies     occupation 
      1      -5.8945      2.00000
      2      -5.8945      2.00000
      3      -5.8945      2.00000
      4      -5.8945      2.00000
      5      -2.0901      2.00000
      6      -2.0901      2.00000
      7      -2.0901      2.00000
      8      -2.0901      2.00000
      9       7.2794      2.00000
     10       7.2794      2.00000
     11       7.2794      2.00000
     12       7.2794      2.00000
     13       8.1515      2.00000
     14       8.1515      2.00000
     15       8.1515      2.00000
     16       8.1515      2.00000
     17      19.5112      0.00000
     18      19.5112      0.00000
     19      19.5112      0.00000
     20      19.5112      0.00000
     21      20.4905      0.00000
     22      20.4905      0.00000
     23      20.4905      0.00000
     24      20.4905      0.00000

 k-point   194 :       0.4167    0.4167    0.5000
  band No.  band energies     occupation 
      1      -6.0245      2.00000
      2      -6.0245      2.00000
      3      -5.0972      2.00000
      4      -5.0972      2.00000
      5      -3.1249      2.00000
      6      -3.1249      2.00000
      7      -2.2186      2.00000
      8      -2.2186      2.00000
      9       7.4770      2.00000
     10       7.4770      2.00000
     11       7.5992      2.00000
     12       7.5992      2.00000
     13       8.1233      2.00000
     14       8.1233      2.00000
     15       8.6090      2.00000
     16       8.6090      2.00000
     17      19.4075      0.00000
     18      19.4075      0.00000
     19      19.5220      0.00000
     20      19.5220      0.00000
     21      20.1470      0.00000
     22      20.1470      0.00000
     23      20.6819      0.00000
     24      20.6819      0.00000

 k-point   195 :       0.5000    0.4167    0.5000
  band No.  band energies     occupation 
      1      -5.4558      2.00000
      2      -5.4558      2.00000
      3      -5.4558      2.00000
      4      -5.4558      2.00000
      5      -2.9014      2.00000
      6      -2.9014      2.00000
      7      -2.9014      2.00000
      8      -2.9014      2.00000
      9       7.5959      2.00000
     10       7.5959      2.00000
     11       7.5959      2.00000
     12       7.5959      2.00000
     13       8.5537      2.00000
     14       8.5537      2.00000
     15       8.5537      2.00000
     16       8.5537      2.00000
     17      19.4087      0.00000
     18      19.4087      0.00000
     19      19.4087      0.00000
     20      19.4087      0.00000
     21      20.4239      0.00000
     22      20.4239      0.00000
     23      20.4239      0.00000
     24      20.4239      0.00000

 k-point   196 :       0.5000    0.5000    0.5000
  band No.  band energies     occupation 
      1      -5.2218      2.00000
      2      -5.2218      2.00000
      3      -5.2218      2.00000
      4      -5.2218      2.00000
      5      -3.2601      2.00000
      6      -3.2601      2.00000
      7      -3.2601      2.00000
      8      -3.2601      2.00000
      9       7.6655      2.00000
     10       7.6655      2.00000
     11       7.6655      2.00000
     12       7.6655      2.00000
     13       8.7427      2.00000
     14       8.7427      2.00000
     15       8.7427      2.00000
     16       8.7427      2.00000
     17      19.3475      0.00000
     18      19.3475      0.00000
     19      19.3475      0.00000
     20      19.3475      0.00000
     21      20.4337      0.00000
     22      20.4337      0.00000
     23      20.4337      0.00000
     24      20.4337      0.00000


--------------------------------------------------------------------------------------------------------


 soft charge-density along one line, spin component           1
         0         1         2         3         4         5         6         7         8         9
 total charge-density along one line
 
 pseudopotential strength for first ion, spin component:           1
  9.359  -0.008   0.000   0.000   0.000  -0.000  -0.000  -0.000
 -0.008  -0.002  -0.000  -0.000  -0.000  -0.000  -0.000  -0.000
  0.000  -0.000  -3.575   0.000  -0.000  -0.013   0.000  -0.000
  0.000  -0.000   0.000  -3.577   0.000   0.000  -0.013   0.000
  0.000  -0.000  -0.000   0.000  -3.575  -0.000   0.000  -0.013
 -0.000  -0.000  -0.013   0.000  -0.000  -0.755   0.000  -0.000
 -0.000  -0.000   0.000  -0.013   0.000   0.000  -0.755   0.000
 -0.000  -0.000  -0.000   0.000  -0.013  -0.000   0.000  -0.755
 total augmentation occupancy for first ion, spin component:           1
  1.439  -1.173  -0.000   0.000  -0.000   0.000   0.000  -0.000
 -1.173   1.266   0.000   0.000  -0.000   0.000   0.000   0.000
  0.000  -0.000   1.167   0.000   0.000   0.201   0.000   0.000
  0.000   0.000  -0.000   1.146   0.000   0.000   0.208   0.000
  0.000   0.000  -0.000   0.000   1.167   0.000   0.000   0.201
  0.000   0.000   0.201   0.000   0.000   0.042  -0.000   0.000
  0.000   0.000   0.000   0.208  -0.000   0.000   0.044   0.000
  0.000   0.000   0.000  -0.000   0.201   0.000  -0.000   0.042


------------------------ aborting loop because EDIFF is reached ----------------------------------------


    CHARGE:  cpu time    0.3227: real time    0.3227
    FORLOC:  cpu time    0.0021: real time    0.0021
    FORNL :  cpu time    0.4524: real time    0.4525
    STRESS:  cpu time    1.0721: real time    1.0724
    FORHAR:  cpu time    0.0060: real time    0.0060
    MIXING:  cpu time    0.0022: real time    0.0022
    OFIELD:  cpu time    0.0001: real time    0.0001

  FORCE on cell =-STRESS in cart. coord.  units (eV):
  Direction    XX          YY          ZZ          XY          YZ          ZX
  --------------------------------------------------------------------------------------
  Alpha Z   126.94963   126.94963   126.94963
  Ewald    -491.32130  -491.32130  -456.76608    -0.00000     0.00000    -0.00000
  Hartree    30.98218    30.98218    37.63517    -0.00000    -0.00000    -0.00000
  E(xc)    -122.56740  -122.56740  -122.33830    -0.00000     0.00000    -0.00000
  Local     -26.86040   -26.86040   -64.59773    -0.00000     0.00000     0.00000
  n-local   -32.79786   -33.55699   -31.37244     0.58505     0.57039     0.49391
  augment    -3.25201    -3.25201    -3.28426    -0.00000    -0.00000     0.00000
  Kinetic   527.71031   546.86192   517.11570    -5.17225    -5.41026    -4.02187
  Fock        0.00000     0.00000     0.00000     0.00000     0.00000     0.00000
  -------------------------------------------------------------------------------------
  Total      18.03939    18.03939     3.34169     0.00000    -0.00000     0.00000
  in kB     703.60998   703.60998   130.33955     0.00000    -0.00000     0.00000
  external pressure =      512.52 kB  Pullay stress =        0.00 kB


 VOLUME and BASIS-vectors are now :
 -----------------------------------------------------------------------------
  energy-cutoff  :      400.00
  volume of cell :       41.08
      direct lattice vectors                 reciprocal lattice vectors
     3.390319000  0.000000000  0.000000000     0.294957495  0.000000000  0.000000000
     0.000000000  3.390319000  0.000000000     0.000000000  0.294957495  0.000000000
     0.000000000  0.000000000  3.573710000     0.000000000  0.000000000  0.279821250

  length of vectors
     3.390319000  3.390319000  3.573710000     0.294957495  0.294957495  0.279821250


 FORCES acting on ions
    electron-ion (+dipol)            ewald-force                    non-local-force                 convergence-correction
 -----------------------------------------------------------------------------------------------
   -.838E-14 -.147E-12 0.833E-14   -.711E-14 0.000E+00 0.711E-14   -.109E-16 0.958E-19 0.184E-16   -.415E-14 -.567E-14 0.115E-14
   0.251E-13 -.101E-14 0.175E-13   -.228E-13 -.234E-15 0.497E-17   -.493E-17 -.134E-16 0.121E-16   -.370E-14 -.264E-14 0.717E-15
   -.838E-14 -.172E-12 0.315E-13   0.711E-14 0.142E-13 0.000E+00   -.278E-17 -.140E-16 -.124E-16   -.348E-14 -.576E-14 0.434E-14
   0.251E-13 0.167E-13 -.122E-14   -.709E-14 0.141E-13 -.802E-14   0.214E-17 0.665E-17 -.220E-16   -.372E-14 -.275E-14 0.207E-14
   0.168E-13 0.206E-12 0.379E-12   0.142E-13 -.142E-13 0.711E-14   0.226E-16 0.152E-16 -.870E-17   -.154E-14 -.487E-14 0.390E-14
   0.419E-13 -.393E-14 -.393E-12   0.134E-15 -.164E-13 -.911E-15   0.109E-16 -.538E-17 -.152E-16   -.288E-14 -.219E-14 0.562E-15
   0.838E-14 -.184E-12 0.144E-14   0.284E-13 0.000E+00 0.000E+00   0.214E-17 -.527E-17 0.194E-16   -.158E-14 -.411E-14 0.167E-14
   0.419E-13 0.379E-12 0.192E-13   0.144E-13 0.973E-16 -.721E-14   0.315E-17 0.152E-16 0.122E-16   -.197E-14 -.302E-14 -.178E-15
 -----------------------------------------------------------------------------------------------
   0.143E-12 0.925E-13 0.627E-13   0.272E-13 -.245E-14 -.192E-14   0.222E-16 -.862E-18 0.372E-17   -.230E-13 -.310E-13 0.142E-13
 
 
 POSITION                                       TOTAL-FORCE (eV/Angst)
 -----------------------------------------------------------------------------------
      0.84758      2.54274      0.89343         0.000000     -0.000000      0.000000
      0.00000      0.00000      1.78686        -0.000000      0.000000      0.000000
      0.84758      0.84758      2.68028         0.000000     -0.000000      0.000000
      0.00000      1.69516      0.00000         0.000000      0.000000      0.000000
      2.54274      2.54274      2.68028         0.000000     -0.000000     -0.000000
      1.69516      0.00000      0.00000         0.000000      0.000000     -0.000000
      2.54274      0.84758      0.89343        -0.000000     -0.000000      0.000000
      1.69516      1.69516      1.78686        -0.000000      0.000000     -0.000000
 -----------------------------------------------------------------------------------
    total drift:                                0.000000      0.000000      0.000000


--------------------------------------------------------------------------------------------------------



  FREE ENERGIE OF THE ION-ELECTRON SYSTEM (eV)
  ---------------------------------------------------
  free  energy   TOTEN  =       -71.78294695 eV

  energy  without entropy=      -71.78294695  energy(sigma->0) =      -71.78294695
 


--------------------------------------------------------------------------------------------------------


    POTLOK:  cpu time    0.0325: real time    0.0325


--------------------------------------------------------------------------------------------------------


     LOOP+:  cpu time  160.9502: real time  160.9927
    4ORBIT:  cpu time    0.0000: real time    0.0000
 BZINTS: Fermi energy: 11.645913; 32.000000 electrons
         Band energy:  53.066938;  BLOECHL correction:  0.000000

 total amount of memory used by VASP MPI-rank0    37052. kBytes
=======================================================================

   base      :      30000. kBytes
   nonl-proj :       2382. kBytes
   fftplans  :        345. kBytes
   grid      :        481. kBytes
   one-center:          6. kBytes
   wavefun   :       3838. kBytes
 
  
  
 General timing and accounting informations for this job:
 ========================================================
  
                  Total CPU time used (sec):      165.220
                            User time (sec):      161.213
                          System time (sec):        4.008
                         Elapsed time (sec):      165.552
  
                   Maximum memory used (kb):      193692.
                   Average memory used (kb):           0.
  
                          Minor page faults:        36899
                          Major page faults:           36
                 Voluntary context switches:          786
