  64  64   0   0
  0.5705161E+01  0.7147420E-09  0.7147420E-09  0.7147420E-09  0.5000000E-15
  1.000000000000000E-004
  CAR 
 unknown system                          
     23.25096954    -13.39355996  301      9.95205904      1.00000000
    -13.394  0.0000E+00  0.0000E+00
    -13.271  0.0000E+00  0.0000E+00
    -13.149  0.0000E+00  0.0000E+00
    -13.027  0.0000E+00  0.0000E+00
    -12.905  0.0000E+00  0.0000E+00
    -12.783  0.0000E+00  0.0000E+00
    -12.661  0.0000E+00  0.0000E+00
    -12.539  0.0000E+00  0.0000E+00
    -12.416  0.0000E+00  0.0000E+00
    -12.294  0.0000E+00  0.0000E+00
    -12.172  0.0000E+00  0.0000E+00
    -12.050  0.5113E-15  0.6245E-16
    -11.928  0.4202E-07  0.5133E-08
    -11.806  0.1861E-02  0.2273E-03
    -11.683  0.2556E+00  0.3145E-01
    -11.561  0.1103E+01  0.1662E+00
    -11.439  0.1635E+01  0.3659E+00
    -11.317  0.2281E+01  0.6444E+00
    -11.195  0.2441E+01  0.9426E+00
    -11.073  0.2788E+01  0.1283E+01
    -10.951  0.3315E+01  0.1688E+01
    -10.828  0.2682E+01  0.2016E+01
    -10.706  0.4167E+01  0.2525E+01
    -10.584  0.3471E+01  0.2949E+01
    -10.462  0.4161E+01  0.3457E+01
    -10.340  0.4040E+01  0.3950E+01
    -10.218  0.5010E+01  0.4562E+01
    -10.096  0.4570E+01  0.5121E+01
     -9.973  0.3581E+01  0.5558E+01
     -9.851  0.5934E+01  0.6283E+01
     -9.729  0.5574E+01  0.6964E+01
     -9.607  0.4590E+01  0.7524E+01
     -9.485  0.5381E+01  0.8181E+01
     -9.363  0.6102E+01  0.8927E+01
     -9.241  0.6308E+01  0.9697E+01
     -9.118  0.5150E+01  0.1033E+02
     -8.996  0.7129E+01  0.1120E+02
     -8.874  0.4768E+01  0.1178E+02
     -8.752  0.6868E+01  0.1262E+02
     -8.630  0.6802E+01  0.1345E+02
     -8.508  0.8601E+01  0.1450E+02
     -8.385  0.5196E+01  0.1513E+02
     -8.263  0.6098E+01  0.1588E+02
     -8.141  0.8663E+01  0.1694E+02
     -8.019  0.7217E+01  0.1782E+02
     -7.897  0.8092E+01  0.1881E+02
     -7.775  0.6632E+01  0.1962E+02
     -7.653  0.8530E+01  0.2066E+02
     -7.530  0.7343E+01  0.2156E+02
     -7.408  0.7883E+01  0.2252E+02
     -7.286  0.8827E+01  0.2360E+02
     -7.164  0.9093E+01  0.2471E+02
     -7.042  0.9456E+01  0.2586E+02
     -6.920  0.8340E+01  0.2688E+02
     -6.798  0.7868E+01  0.2784E+02
     -6.675  0.8375E+01  0.2887E+02
     -6.553  0.1163E+02  0.3029E+02
     -6.431  0.1067E+02  0.3159E+02
     -6.309  0.8865E+01  0.3267E+02
     -6.187  0.1043E+02  0.3395E+02
     -6.065  0.1165E+02  0.3537E+02
     -5.943  0.1046E+02  0.3665E+02
     -5.820  0.1321E+02  0.3826E+02
     -5.698  0.1205E+02  0.3973E+02
     -5.576  0.1026E+02  0.4099E+02
     -5.454  0.1521E+02  0.4284E+02
     -5.332  0.1089E+02  0.4417E+02
     -5.210  0.8156E+01  0.4517E+02
     -5.087  0.1024E+02  0.4642E+02
     -4.965  0.1195E+02  0.4788E+02
     -4.843  0.7447E+01  0.4879E+02
     -4.721  0.1368E+02  0.5046E+02
     -4.599  0.8244E+01  0.5147E+02
     -4.477  0.8971E+01  0.5256E+02
     -4.355  0.9459E+01  0.5372E+02
     -4.232  0.7067E+01  0.5458E+02
     -4.110  0.7930E+01  0.5555E+02
     -3.988  0.9364E+01  0.5670E+02
     -3.866  0.5888E+01  0.5741E+02
     -3.744  0.8266E+01  0.5842E+02
     -3.622  0.7340E+01  0.5932E+02
     -3.500  0.9627E+01  0.6050E+02
     -3.377  0.9400E+01  0.6164E+02
     -3.255  0.5552E+01  0.6232E+02
     -3.133  0.7116E+01  0.6319E+02
     -3.011  0.9048E+01  0.6430E+02
     -2.889  0.1070E+02  0.6560E+02
     -2.767  0.9812E+01  0.6680E+02
     -2.644  0.7947E+01  0.6777E+02
     -2.522  0.8445E+01  0.6881E+02
     -2.400  0.1033E+02  0.7007E+02
     -2.278  0.7139E+01  0.7094E+02
     -2.156  0.1098E+02  0.7228E+02
     -2.034  0.9858E+01  0.7348E+02
     -1.912  0.1784E+02  0.7566E+02
     -1.789  0.2557E+02  0.7879E+02
     -1.667  0.2458E+02  0.8179E+02
     -1.545  0.1390E+02  0.8349E+02
     -1.423  0.1371E+02  0.8516E+02
     -1.301  0.1292E+02  0.8674E+02
     -1.179  0.1076E+02  0.8805E+02
     -1.057  0.1336E+02  0.8968E+02
     -0.934  0.1930E+02  0.9204E+02
     -0.812  0.1057E+02  0.9333E+02
     -0.690  0.1203E+02  0.9480E+02
     -0.568  0.7030E+01  0.9566E+02
     -0.446  0.7405E+01  0.9657E+02
     -0.324  0.9832E+01  0.9777E+02
     -0.202  0.1037E+02  0.9903E+02
     -0.079  0.7745E+01  0.9998E+02
      0.043  0.1183E+02  0.1014E+03
      0.165  0.1157E+02  0.1028E+03
      0.287  0.4921E+01  0.1034E+03
      0.409  0.6643E+01  0.1043E+03
      0.531  0.1197E+02  0.1057E+03
      0.654  0.1413E+02  0.1074E+03
      0.776  0.1214E+02  0.1089E+03
      0.898  0.1431E+02  0.1107E+03
      1.020  0.1589E+02  0.1126E+03
      1.142  0.1950E+02  0.1150E+03
      1.264  0.1419E+02  0.1167E+03
      1.386  0.1824E+02  0.1190E+03
      1.509  0.1652E+02  0.1210E+03
      1.631  0.1605E+02  0.1229E+03
      1.753  0.1592E+02  0.1249E+03
      1.875  0.1190E+02  0.1263E+03
      1.997  0.1931E+02  0.1287E+03
      2.119  0.1941E+02  0.1311E+03
      2.241  0.1997E+02  0.1335E+03
      2.364  0.1667E+02  0.1355E+03
      2.486  0.1237E+02  0.1370E+03
      2.608  0.1444E+02  0.1388E+03
      2.730  0.2567E+02  0.1419E+03
      2.852  0.2289E+02  0.1447E+03
      2.974  0.1425E+02  0.1465E+03
      3.096  0.1700E+02  0.1486E+03
      3.219  0.2621E+02  0.1518E+03
      3.341  0.2251E+02  0.1545E+03
      3.463  0.2580E+02  0.1577E+03
      3.585  0.2196E+02  0.1603E+03
      3.707  0.2487E+02  0.1634E+03
      3.829  0.2442E+02  0.1664E+03
      3.952  0.2844E+02  0.1698E+03
      4.074  0.2785E+02  0.1732E+03
      4.196  0.2125E+02  0.1758E+03
      4.318  0.2137E+02  0.1784E+03
      4.440  0.2268E+02  0.1812E+03
      4.562  0.2409E+02  0.1842E+03
      4.684  0.3232E+02  0.1881E+03
      4.807  0.2034E+02  0.1906E+03
      4.929  0.1683E+02  0.1926E+03
      5.051  0.2347E+02  0.1955E+03
      5.173  0.2543E+02  0.1986E+03
      5.295  0.2867E+02  0.2021E+03
      5.417  0.1533E+02  0.2040E+03
      5.539  0.2136E+02  0.2066E+03
      5.662  0.2024E+02  0.2091E+03
      5.784  0.2748E+02  0.2124E+03
      5.906  0.2147E+02  0.2151E+03
      6.028  0.1984E+02  0.2175E+03
      6.150  0.1689E+02  0.2195E+03
      6.272  0.2163E+02  0.2222E+03
      6.394  0.2607E+02  0.2254E+03
      6.517  0.1913E+02  0.2277E+03
      6.639  0.1972E+02  0.2301E+03
      6.761  0.1588E+02  0.2321E+03
      6.883  0.2018E+02  0.2345E+03
      7.005  0.2606E+02  0.2377E+03
      7.127  0.8723E+01  0.2388E+03
      7.250  0.1289E+02  0.2403E+03
      7.372  0.1526E+02  0.2422E+03
      7.494  0.1125E+02  0.2436E+03
      7.616  0.1119E+02  0.2449E+03
      7.738  0.8211E+01  0.2459E+03
      7.860  0.1021E+02  0.2472E+03
      7.982  0.9181E+01  0.2483E+03
      8.105  0.8217E+01  0.2493E+03
      8.227  0.6428E+01  0.2501E+03
      8.349  0.6086E+01  0.2508E+03
      8.471  0.7394E+01  0.2518E+03
      8.593  0.5927E+01  0.2525E+03
      8.715  0.5426E+01  0.2531E+03
      8.837  0.3269E+01  0.2535E+03
      8.960  0.5346E+01  0.2542E+03
      9.082  0.3548E+01  0.2546E+03
      9.204  0.3708E+01  0.2551E+03
      9.326  0.2509E+01  0.2554E+03
      9.448  0.2086E+01  0.2556E+03
      9.570  0.2123E+01  0.2559E+03
      9.692  0.7147E+00  0.2560E+03
      9.815  0.1252E+00  0.2560E+03
      9.937  0.3010E-03  0.2560E+03
     10.059  0.8008E-09  0.2560E+03
     10.181  0.0000E+00  0.2560E+03
     10.303  0.0000E+00  0.2560E+03
     10.425  0.0000E+00  0.2560E+03
     10.548  0.0000E+00  0.2560E+03
     10.670  0.0000E+00  0.2560E+03
     10.792  0.0000E+00  0.2560E+03
     10.914  0.0000E+00  0.2560E+03
     11.036  0.0000E+00  0.2560E+03
     11.158  0.0000E+00  0.2560E+03
     11.280  0.0000E+00  0.2560E+03
     11.403  0.0000E+00  0.2560E+03
     11.525  0.0000E+00  0.2560E+03
     11.647  0.0000E+00  0.2560E+03
     11.769  0.0000E+00  0.2560E+03
     11.891  0.0000E+00  0.2560E+03
     12.013  0.0000E+00  0.2560E+03
     12.135  0.0000E+00  0.2560E+03
     12.258  0.0000E+00  0.2560E+03
     12.380  0.0000E+00  0.2560E+03
     12.502  0.0000E+00  0.2560E+03
     12.624  0.0000E+00  0.2560E+03
     12.746  0.0000E+00  0.2560E+03
     12.868  0.0000E+00  0.2560E+03
     12.991  0.0000E+00  0.2560E+03
     13.113  0.0000E+00  0.2560E+03
     13.235  0.0000E+00  0.2560E+03
     13.357  0.0000E+00  0.2560E+03
     13.479  0.1103E-13  0.2560E+03
     13.601  0.6576E-06  0.2560E+03
     13.723  0.1506E-01  0.2560E+03
     13.846  0.4905E+00  0.2561E+03
     13.968  0.1642E+01  0.2563E+03
     14.090  0.3454E+01  0.2567E+03
     14.212  0.3967E+01  0.2572E+03
     14.334  0.2864E+01  0.2575E+03
     14.456  0.5797E+01  0.2582E+03
     14.578  0.9309E+01  0.2594E+03
     14.701  0.9449E+01  0.2605E+03
     14.823  0.5413E+01  0.2612E+03
     14.945  0.7124E+01  0.2620E+03
     15.067  0.1217E+02  0.2635E+03
     15.189  0.1605E+02  0.2655E+03
     15.311  0.1231E+02  0.2670E+03
     15.433  0.1311E+02  0.2686E+03
     15.556  0.1412E+02  0.2703E+03
     15.678  0.1240E+02  0.2718E+03
     15.800  0.1404E+02  0.2736E+03
     15.922  0.1922E+02  0.2759E+03
     16.044  0.2091E+02  0.2785E+03
     16.166  0.1557E+02  0.2804E+03
     16.289  0.1530E+02  0.2822E+03
     16.411  0.2005E+02  0.2847E+03
     16.533  0.1820E+02  0.2869E+03
     16.655  0.1823E+02  0.2891E+03
     16.777  0.2099E+02  0.2917E+03
     16.899  0.2519E+02  0.2948E+03
     17.021  0.1838E+02  0.2970E+03
     17.144  0.2404E+02  0.2999E+03
     17.266  0.2577E+02  0.3031E+03
     17.388  0.2085E+02  0.3056E+03
     17.510  0.3044E+02  0.3094E+03
     17.632  0.2934E+02  0.3129E+03
     17.754  0.2629E+02  0.3162E+03
     17.876  0.3411E+02  0.3203E+03
     17.999  0.2805E+02  0.3237E+03
     18.121  0.3974E+02  0.3286E+03
     18.243  0.3597E+02  0.3330E+03
     18.365  0.3845E+02  0.3377E+03
     18.487  0.3000E+02  0.3414E+03
     18.609  0.2897E+02  0.3449E+03
     18.731  0.2883E+02  0.3484E+03
     18.854  0.2583E+02  0.3516E+03
     18.976  0.2206E+02  0.3543E+03
     19.098  0.3240E+02  0.3582E+03
     19.220  0.3664E+02  0.3627E+03
     19.342  0.2252E+02  0.3654E+03
     19.464  0.2315E+02  0.3683E+03
     19.587  0.2398E+02  0.3712E+03
     19.709  0.2295E+02  0.3740E+03
     19.831  0.2881E+02  0.3775E+03
     19.953  0.1124E+02  0.3789E+03
     20.075  0.6583E+01  0.3797E+03
     20.197  0.1129E+02  0.3811E+03
     20.319  0.8698E+01  0.3821E+03
     20.442  0.3527E+01  0.3826E+03
     20.564  0.2806E+01  0.3829E+03
     20.686  0.1731E+01  0.3831E+03
     20.808  0.2230E+01  0.3834E+03
     20.930  0.1474E+01  0.3836E+03
     21.052  0.2119E+01  0.3838E+03
     21.174  0.5097E+00  0.3839E+03
     21.297  0.5042E-02  0.3839E+03
     21.419  0.6427E-01  0.3839E+03
     21.541  0.5112E+00  0.3840E+03
     21.663  0.1857E+00  0.3840E+03
     21.785  0.6423E-02  0.3840E+03
     21.907  0.2363E-06  0.3840E+03
     22.029  0.3068E-14  0.3840E+03
     22.152  0.0000E+00  0.3840E+03
     22.274  0.0000E+00  0.3840E+03
     22.396  0.0000E+00  0.3840E+03
     22.518  0.0000E+00  0.3840E+03
     22.640  0.0000E+00  0.3840E+03
     22.762  0.0000E+00  0.3840E+03
     22.885  0.0000E+00  0.3840E+03
     23.007  0.0000E+00  0.3840E+03
     23.129  0.0000E+00  0.3840E+03
     23.251  0.0000E+00  0.3840E+03
