mesh: [    48,    48,    48 ]
nqpoint: 2600   
reciprocal_lattice:
- [   0.27982125,   0.00000000,   0.00000000 ] # a*
- [   0.00000000,   0.27982125,   0.00000000 ] # b*
- [   0.00000000,   0.00000000,   0.27982125 ] # c*
natom:   8      
lattice:
- [     3.573710000000000,     0.000000000000000,     0.000000000000000 ] # a
- [     0.000000000000000,     3.573710000000000,     0.000000000000000 ] # b
- [     0.000000000000000,     0.000000000000000,     3.573710000000000 ] # c
points:
- symbol: C  # 1
  coordinates: [  0.250000000000000,  0.750000000000000,  0.250000000000000 ]
  mass: 12.010700
- symbol: C  # 2
  coordinates: [  0.000000000000000,  0.000000000000000,  0.500000000000000 ]
  mass: 12.010700
- symbol: C  # 3
  coordinates: [  0.250000000000000,  0.250000000000000,  0.750000000000000 ]
  mass: 12.010700
- symbol: C  # 4
  coordinates: [  0.000000000000000,  0.500000000000000,  0.000000000000000 ]
  mass: 12.010700
- symbol: C  # 5
  coordinates: [  0.750000000000000,  0.750000000000000,  0.750000000000000 ]
  mass: 12.010700
- symbol: C  # 6
  coordinates: [  0.500000000000000,  0.000000000000000,  0.000000000000000 ]
  mass: 12.010700
- symbol: C  # 7
  coordinates: [  0.750000000000000,  0.250000000000000,  0.250000000000000 ]
  mass: 12.010700
- symbol: C  # 8
  coordinates: [  0.500000000000000,  0.500000000000000,  0.500000000000000 ]
  mass: 12.010700

phonon:
- q-position: [    0.0104167,    0.0104167,    0.0104167 ]
  distance_from_gamma:  0.005048590
  weight: 8    
  band:
  - # 1
    frequency:     0.5913798318
  - # 2
    frequency:     0.5913798318
  - # 3
    frequency:     0.9133447079
  - # 4
    frequency:    23.3461228859
  - # 5
    frequency:    23.3461228859
  - # 6
    frequency:    23.3461228859
  - # 7
    frequency:    23.3595375400
  - # 8
    frequency:    23.3595375400
  - # 9
    frequency:    23.3595375400
  - # 10
    frequency:    31.7184080076
  - # 11
    frequency:    31.7184080076
  - # 12
    frequency:    31.7184080076
  - # 13
    frequency:    31.7238008436
  - # 14
    frequency:    31.7238008436
  - # 15
    frequency:    31.7238008436
  - # 16
    frequency:    35.5059112717
  - # 17
    frequency:    35.5059112717
  - # 18
    frequency:    35.5059112717
  - # 19
    frequency:    35.8394878589
  - # 20
    frequency:    35.8394878589
  - # 21
    frequency:    35.8394878589
  - # 22
    frequency:    38.7283807867
  - # 23
    frequency:    38.7283807867
  - # 24
    frequency:    38.7323023810

- q-position: [    0.0312500,    0.0104167,    0.0104167 ]
  distance_from_gamma:  0.009667313
  weight: 24   
  band:
  - # 1
    frequency:     1.1472919352
  - # 2
    frequency:     1.1706333542
  - # 3
    frequency:     1.7125827201
  - # 4
    frequency:    23.3120199142
  - # 5
    frequency:    23.3254292911
  - # 6
    frequency:    23.3553718059
  - # 7
    frequency:    23.3553718059
  - # 8
    frequency:    23.3955496834
  - # 9
    frequency:    23.3955496834
  - # 10
    frequency:    31.7057180898
  - # 11
    frequency:    31.7057180898
  - # 12
    frequency:    31.7219027380
  - # 13
    frequency:    31.7219027380
  - # 14
    frequency:    31.7418252684
  - # 15
    frequency:    31.7474230763
  - # 16
    frequency:    35.1548400066
  - # 17
    frequency:    35.4949592729
  - # 18
    frequency:    35.4949592729
  - # 19
    frequency:    35.8279185644
  - # 20
    frequency:    35.8279185644
  - # 21
    frequency:    36.1553114595
  - # 22
    frequency:    38.7168469684
  - # 23
    frequency:    38.7176032102
  - # 24
    frequency:    38.7359857379

- q-position: [    0.0520833,    0.0104167,    0.0104167 ]
  distance_from_gamma:  0.015145769
  weight: 24   
  band:
  - # 1
    frequency:     1.8278366729
  - # 2
    frequency:     1.8461222115
  - # 3
    frequency:     2.6510060912
  - # 4
    frequency:    23.2442234517
  - # 5
    frequency:    23.2576220889
  - # 6
    frequency:    23.3871640912
  - # 7
    frequency:    23.3871640912
  - # 8
    frequency:    23.4539096476
  - # 9
    frequency:    23.4539096476
  - # 10
    frequency:    31.6856210727
  - # 11
    frequency:    31.6856210727
  - # 12
    frequency:    31.7126310937
  - # 13
    frequency:    31.7126310937
  - # 14
    frequency:    31.7881596949
  - # 15
    frequency:    31.7942083905
  - # 16
    frequency:    34.7858924553
  - # 17
    frequency:    35.4732630122
  - # 18
    frequency:    35.4732630122
  - # 19
    frequency:    35.8049702901
  - # 20
    frequency:    35.8049702901
  - # 21
    frequency:    36.4538341222
  - # 22
    frequency:    38.6938045043
  - # 23
    frequency:    38.6946577330
  - # 24
    frequency:    38.7447054412

- q-position: [    0.0729167,    0.0104167,    0.0104167 ]
  distance_from_gamma:  0.020815869
  weight: 24   
  band:
  - # 1
    frequency:     2.5274256129
  - # 2
    frequency:     2.5408768713
  - # 3
    frequency:     3.6239423471
  - # 4
    frequency:    23.1435128928
  - # 5
    frequency:    23.1568949223
  - # 6
    frequency:    23.4411946990
  - # 7
    frequency:    23.4411946990
  - # 8
    frequency:    23.5341869808
  - # 9
    frequency:    23.5341869808
  - # 10
    frequency:    31.6579173295
  - # 11
    frequency:    31.6579173295
  - # 12
    frequency:    31.6958020782
  - # 13
    frequency:    31.6958020782
  - # 14
    frequency:    31.8564280675
  - # 15
    frequency:    31.8632788351
  - # 16
    frequency:    34.3990502931
  - # 17
    frequency:    35.4412369165
  - # 18
    frequency:    35.4412369165
  - # 19
    frequency:    35.7710233799
  - # 20
    frequency:    35.7710233799
  - # 21
    frequency:    36.7352387158
  - # 22
    frequency:    38.6593038067
  - # 23
    frequency:    38.6601863964
  - # 24
    frequency:    38.7577454311

- q-position: [    0.0937500,    0.0104167,    0.0104167 ]
  distance_from_gamma:  0.026555135
  weight: 24   
  band:
  - # 1
    frequency:     3.2309772216
  - # 2
    frequency:     3.2409149476
  - # 3
    frequency:     4.6079673463
  - # 4
    frequency:    23.0109667739
  - # 5
    frequency:    23.0243256502
  - # 6
    frequency:    23.5169760783
  - # 7
    frequency:    23.5169760783
  - # 8
    frequency:    23.6357762551
  - # 9
    frequency:    23.6357762551
  - # 10
    frequency:    31.6223175446
  - # 11
    frequency:    31.6223175446
  - # 12
    frequency:    31.6711351543
  - # 13
    frequency:    31.6711351543
  - # 14
    frequency:    31.9451602864
  - # 15
    frequency:    31.9534099773
  - # 16
    frequency:    33.9944135319
  - # 17
    frequency:    35.3994995701
  - # 18
    frequency:    35.3994995701
  - # 19
    frequency:    35.7266473108
  - # 20
    frequency:    35.7266473108
  - # 21
    frequency:    36.9997604954
  - # 22
    frequency:    38.6134206608
  - # 23
    frequency:    38.6143178091
  - # 24
    frequency:    38.7748676876

- q-position: [    0.1145833,    0.0104167,    0.0104167 ]
  distance_from_gamma:  0.032326748
  weight: 24   
  band:
  - # 1
    frequency:     3.9343379036
  - # 2
    frequency:     3.9416516910
  - # 3
    frequency:     5.5947922925
  - # 4
    frequency:    22.8478745697
  - # 5
    frequency:    22.8612027573
  - # 6
    frequency:    23.6138424290
  - # 7
    frequency:    23.6138424290
  - # 8
    frequency:    23.7579040411
  - # 9
    frequency:    23.7579040411
  - # 10
    frequency:    31.5784494273
  - # 11
    frequency:    31.5784494273
  - # 12
    frequency:    31.6382553440
  - # 13
    frequency:    31.6382553440
  - # 14
    frequency:    32.0522272594
  - # 15
    frequency:    32.0631213812
  - # 16
    frequency:    33.5724947899
  - # 17
    frequency:    35.3488688273
  - # 18
    frequency:    35.3488688273
  - # 19
    frequency:    35.6725985231
  - # 20
    frequency:    35.6725985231
  - # 21
    frequency:    37.2476561906
  - # 22
    frequency:    38.5562564199
  - # 23
    frequency:    38.5571634713
  - # 24
    frequency:    38.7958178101

- q-position: [    0.1354167,    0.0104167,    0.0104167 ]
  distance_from_gamma:  0.038116017
  weight: 24   
  band:
  - # 1
    frequency:     4.6356426495
  - # 2
    frequency:     4.6408981452
  - # 3
    frequency:     6.5804528438
  - # 4
    frequency:    22.6556458670
  - # 5
    frequency:    22.6689345166
  - # 6
    frequency:    23.7309550069
  - # 7
    frequency:    23.7309550069
  - # 8
    frequency:    23.8996367950
  - # 9
    frequency:    23.8996367950
  - # 10
    frequency:    31.5258680378
  - # 11
    frequency:    31.5258680378
  - # 12
    frequency:    31.5966991978
  - # 13
    frequency:    31.5966991978
  - # 14
    frequency:    32.1736751535
  - # 15
    frequency:    32.1907703818
  - # 16
    frequency:    33.1354826329
  - # 17
    frequency:    35.2903532843
  - # 18
    frequency:    35.2903532843
  - # 19
    frequency:    35.6098159779
  - # 20
    frequency:    35.6098159779
  - # 21
    frequency:    37.4792011456
  - # 22
    frequency:    38.4879382567
  - # 23
    frequency:    38.4888535395
  - # 24
    frequency:    38.8202917354

- q-position: [    0.1562500,    0.0104167,    0.0104167 ]
  distance_from_gamma:  0.043915961
  weight: 24   
  band:
  - # 1
    frequency:     5.3337278853
  - # 2
    frequency:     5.3372970246
  - # 3
    frequency:     7.5625781053
  - # 4
    frequency:    22.4357289550
  - # 5
    frequency:    22.4489676099
  - # 6
    frequency:    23.8673077253
  - # 7
    frequency:    23.8673077253
  - # 8
    frequency:    24.0598888765
  - # 9
    frequency:    24.0598888765
  - # 10
    frequency:    31.4640719305
  - # 11
    frequency:    31.4640719305
  - # 12
    frequency:    31.5459259618
  - # 13
    frequency:    31.5459259618
  - # 14
    frequency:    32.2910451570
  - # 15
    frequency:    32.3346370480
  - # 16
    frequency:    32.7000084563
  - # 17
    frequency:    35.2251384916
  - # 18
    frequency:    35.2251384916
  - # 19
    frequency:    35.5394131216
  - # 20
    frequency:    35.5394131216
  - # 21
    frequency:    37.6946887572
  - # 22
    frequency:    38.4086194650
  - # 23
    frequency:    38.4095424052
  - # 24
    frequency:    38.8479331714

- q-position: [    0.1770833,    0.0104167,    0.0104167 ]
  distance_from_gamma:  0.049722843
  weight: 24   
  band:
  - # 1
    frequency:     6.0277035929
  - # 2
    frequency:     6.0298419957
  - # 3
    frequency:     8.5394975143
  - # 4
    frequency:    22.1895461382
  - # 5
    frequency:    22.2027225073
  - # 6
    frequency:    24.0217320580
  - # 7
    frequency:    24.0217320580
  - # 8
    frequency:    24.2374297516
  - # 9
    frequency:    24.2374297516
  - # 10
    frequency:    31.3925273649
  - # 11
    frequency:    31.3925273649
  - # 12
    frequency:    31.4853361291
  - # 13
    frequency:    31.4853361291
  - # 14
    frequency:    32.1319686004
  - # 15
    frequency:    32.4929929476
  - # 16
    frequency:    32.5366213360
  - # 17
    frequency:    35.1545661318
  - # 18
    frequency:    35.1545661318
  - # 19
    frequency:    35.4626647031
  - # 20
    frequency:    35.4626647031
  - # 21
    frequency:    37.8944305306
  - # 22
    frequency:    38.3184798022
  - # 23
    frequency:    38.3194102863
  - # 24
    frequency:    38.8783354945

- q-position: [    0.1979167,    0.0104167,    0.0104167 ]
  distance_from_gamma:  0.055534488
  weight: 24   
  band:
  - # 1
    frequency:     6.7168058462
  - # 2
    frequency:     6.7176967289
  - # 3
    frequency:     9.5098930460
  - # 4
    frequency:    21.9184482942
  - # 5
    frequency:    21.9315481135
  - # 6
    frequency:    24.1928999702
  - # 7
    frequency:    24.1928999702
  - # 8
    frequency:    24.4308892012
  - # 9
    frequency:    24.4308892012
  - # 10
    frequency:    31.3107029514
  - # 11
    frequency:    31.3107029514
  - # 12
    frequency:    31.4142998120
  - # 13
    frequency:    31.4142998120
  - # 14
    frequency:    31.6603111188
  - # 15
    frequency:    32.6641511031
  - # 16
    frequency:    32.6796948912
  - # 17
    frequency:    35.0801045539
  - # 18
    frequency:    35.0801045539
  - # 19
    frequency:    35.3809868475
  - # 20
    frequency:    35.3809868475
  - # 21
    frequency:    38.0787564045
  - # 22
    frequency:    38.2177258637
  - # 23
    frequency:    38.2186639928
  - # 24
    frequency:    38.9110448845

- q-position: [    0.2187500,    0.0104167,    0.0104167 ]
  distance_from_gamma:  0.061349542
  weight: 24   
  band:
  - # 1
    frequency:     7.4001165754
  - # 2
    frequency:     7.4003368228
  - # 3
    frequency:    10.4726457883
  - # 4
    frequency:    21.6236876005
  - # 5
    frequency:    21.6366945899
  - # 6
    frequency:    24.3793232278
  - # 7
    frequency:    24.3793232278
  - # 8
    frequency:    24.6387590319
  - # 9
    frequency:    24.6387590319
  - # 10
    frequency:    31.1480250020
  - # 11
    frequency:    31.2181169523
  - # 12
    frequency:    31.2181169523
  - # 13
    frequency:    31.3321973272
  - # 14
    frequency:    31.3321973272
  - # 15
    frequency:    32.8464981212
  - # 16
    frequency:    32.8556081048
  - # 17
    frequency:    35.0033097164
  - # 18
    frequency:    35.0033097164
  - # 19
    frequency:    35.2959090730
  - # 20
    frequency:    35.2959090730
  - # 21
    frequency:    38.1065914783
  - # 22
    frequency:    38.1075374728
  - # 23
    frequency:    38.2480152188
  - # 24
    frequency:    38.9455640205

- q-position: [    0.2395833,    0.0104167,    0.0104167 ]
  distance_from_gamma:  0.067167119
  weight: 24   
  band:
  - # 1
    frequency:     8.0764110657
  - # 2
    frequency:     8.0776373891
  - # 3
    frequency:    11.4267617535
  - # 4
    frequency:    21.3064052998
  - # 5
    frequency:    21.3193012100
  - # 6
    frequency:    24.5793468914
  - # 7
    frequency:    24.5793468914
  - # 8
    frequency:    24.8593892798
  - # 9
    frequency:    24.8593892798
  - # 10
    frequency:    30.6130713749
  - # 11
    frequency:    31.1143989900
  - # 12
    frequency:    31.1143989900
  - # 13
    frequency:    31.2384739842
  - # 14
    frequency:    31.2384739842
  - # 15
    frequency:    33.0385115261
  - # 16
    frequency:    33.0448415443
  - # 17
    frequency:    34.9257768370
  - # 18
    frequency:    34.9257768370
  - # 19
    frequency:    35.2090376938
  - # 20
    frequency:    35.2090376938
  - # 21
    frequency:    37.9853381139
  - # 22
    frequency:    37.9862922884
  - # 23
    frequency:    38.4025752550
  - # 24
    frequency:    38.9813561179

- q-position: [    0.2604167,    0.0104167,    0.0104167 ]
  distance_from_gamma:  0.072986616
  weight: 24   
  band:
  - # 1
    frequency:     8.7459245695
  - # 2
    frequency:     8.7480735000
  - # 3
    frequency:    12.3713334705
  - # 4
    frequency:    20.9676306624
  - # 5
    frequency:    20.9803953951
  - # 6
    frequency:    24.7911339477
  - # 7
    frequency:    24.7911339477
  - # 8
    frequency:    25.0909760698
  - # 9
    frequency:    25.0909760698
  - # 10
    frequency:    30.0578473403
  - # 11
    frequency:    30.9993673075
  - # 12
    frequency:    30.9993673075
  - # 13
    frequency:    31.1327104099
  - # 14
    frequency:    31.1327104099
  - # 15
    frequency:    33.2387660449
  - # 16
    frequency:    33.2435576144
  - # 17
    frequency:    34.8490848362
  - # 18
    frequency:    34.8490848362
  - # 19
    frequency:    35.1220113361
  - # 20
    frequency:    35.1220113361
  - # 21
    frequency:    37.8542552814
  - # 22
    frequency:    37.8552180586
  - # 23
    frequency:    38.5428248017
  - # 24
    frequency:    39.0178491928

- q-position: [    0.2812500,    0.0104167,    0.0104167 ]
  distance_from_gamma:  0.078807608
  weight: 24   
  band:
  - # 1
    frequency:     9.4080257704
  - # 2
    frequency:     9.4110290638
  - # 3
    frequency:    13.3055190698
  - # 4
    frequency:    20.6082874686
  - # 5
    frequency:    20.6208992524
  - # 6
    frequency:    25.0126366799
  - # 7
    frequency:    25.0126366799
  - # 8
    frequency:    25.3315369091
  - # 9
    frequency:    25.3315369091
  - # 10
    frequency:    29.4830335134
  - # 11
    frequency:    30.8731224316
  - # 12
    frequency:    30.8731224316
  - # 13
    frequency:    31.0147091867
  - # 14
    frequency:    31.0147091867
  - # 15
    frequency:    33.4459324254
  - # 16
    frequency:    33.4497530019
  - # 17
    frequency:    34.7747376682
  - # 18
    frequency:    34.7747376682
  - # 19
    frequency:    35.0364510076
  - # 20
    frequency:    35.0364510076
  - # 21
    frequency:    37.7136609264
  - # 22
    frequency:    37.7146328770
  - # 23
    frequency:    38.6691727064
  - # 24
    frequency:    39.0544404702

- q-position: [    0.3020833,    0.0104167,    0.0104167 ]
  distance_from_gamma:  0.084629787
  weight: 24   
  band:
  - # 1
    frequency:    10.0621017219
  - # 2
    frequency:    10.0659020770
  - # 3
    frequency:    14.2285304726
  - # 4
    frequency:    20.2292049506
  - # 5
    frequency:    20.2416405505
  - # 6
    frequency:    25.2415482201
  - # 7
    frequency:    25.2415482201
  - # 8
    frequency:    25.5788668429
  - # 9
    frequency:    25.5788668429
  - # 10
    frequency:    28.8889201881
  - # 11
    frequency:    30.7361589517
  - # 12
    frequency:    30.7361589517
  - # 13
    frequency:    30.8845989421
  - # 14
    frequency:    30.8845989421
  - # 15
    frequency:    33.6587717627
  - # 16
    frequency:    33.6619280391
  - # 17
    frequency:    34.7041082857
  - # 18
    frequency:    34.7041082857
  - # 19
    frequency:    34.9539089482
  - # 20
    frequency:    34.9539089482
  - # 21
    frequency:    37.5639017974
  - # 22
    frequency:    37.5648837008
  - # 23
    frequency:    38.7820488825
  - # 24
    frequency:    39.0905008685

- q-position: [    0.3229167,    0.0104167,    0.0104167 ]
  distance_from_gamma:  0.090452922
  weight: 24   
  band:
  - # 1
    frequency:    10.7075544155
  - # 2
    frequency:    10.7121025103
  - # 3
    frequency:    15.1396265518
  - # 4
    frequency:    19.8311308780
  - # 5
    frequency:    19.8433658226
  - # 6
    frequency:    25.4752243120
  - # 7
    frequency:    25.4752243120
  - # 8
    frequency:    25.8304649073
  - # 9
    frequency:    25.8304649073
  - # 10
    frequency:    28.2756828562
  - # 11
    frequency:    30.5895002485
  - # 12
    frequency:    30.5895002485
  - # 13
    frequency:    30.7429595154
  - # 14
    frequency:    30.7429595154
  - # 15
    frequency:    33.8761275662
  - # 16
    frequency:    33.8788044884
  - # 17
    frequency:    34.6383916164
  - # 18
    frequency:    34.6383916164
  - # 19
    frequency:    34.8758217920
  - # 20
    frequency:    34.8758217920
  - # 21
    frequency:    37.4053537820
  - # 22
    frequency:    37.4063467052
  - # 23
    frequency:    38.8819047380
  - # 24
    frequency:    39.1253794942

- q-position: [    0.3437500,    0.0104167,    0.0104167 ]
  distance_from_gamma:  0.096276842
  weight: 24   
  band:
  - # 1
    frequency:    11.3437987795
  - # 2
    frequency:    11.3490511679
  - # 3
    frequency:    16.0381091060
  - # 4
    frequency:    19.4147451768
  - # 5
    frequency:    19.4267539850
  - # 6
    frequency:    25.7105601493
  - # 7
    frequency:    25.7105601493
  - # 8
    frequency:    26.0834135850
  - # 9
    frequency:    26.0834135850
  - # 10
    frequency:    27.6434651209
  - # 11
    frequency:    30.4348674269
  - # 12
    frequency:    30.4348674269
  - # 13
    frequency:    30.5909780660
  - # 14
    frequency:    30.5909780660
  - # 15
    frequency:    34.0969171101
  - # 16
    frequency:    34.0992352313
  - # 17
    frequency:    34.5785720949
  - # 18
    frequency:    34.5785720949
  - # 19
    frequency:    34.8034737681
  - # 20
    frequency:    34.8034737681
  - # 21
    frequency:    37.2384222048
  - # 22
    frequency:    37.2394275998
  - # 23
    frequency:    38.9692134985
  - # 24
    frequency:    39.1584080912

- q-position: [    0.3645833,    0.0104167,    0.0104167 ]
  distance_from_gamma:  0.102101410
  weight: 24   
  band:
  - # 1
    frequency:    11.9702615055
  - # 2
    frequency:    11.9761790933
  - # 3
    frequency:    16.9233204617
  - # 4
    frequency:    18.9806730424
  - # 5
    frequency:    18.9924294384
  - # 6
    frequency:    25.9438000954
  - # 7
    frequency:    25.9438000954
  - # 8
    frequency:    26.3341830454
  - # 9
    frequency:    26.3341830454
  - # 10
    frequency:    26.9924101905
  - # 11
    frequency:    30.2749036085
  - # 12
    frequency:    30.2749036085
  - # 13
    frequency:    30.4306576482
  - # 14
    frequency:    30.4306576482
  - # 15
    frequency:    34.3201230428
  - # 16
    frequency:    34.3221656372
  - # 17
    frequency:    34.5254091042
  - # 18
    frequency:    34.5254091042
  - # 19
    frequency:    34.7379743888
  - # 20
    frequency:    34.7379743888
  - # 21
    frequency:    37.0635420820
  - # 22
    frequency:    37.0645619009
  - # 23
    frequency:    39.0444703964
  - # 24
    frequency:    39.1889053890

- q-position: [    0.3854167,    0.0104167,    0.0104167 ]
  distance_from_gamma:  0.107926523
  weight: 24   
  band:
  - # 1
    frequency:    12.5863803447
  - # 2
    frequency:    12.5929272643
  - # 3
    frequency:    17.7946420233
  - # 4
    frequency:    18.5294969450
  - # 5
    frequency:    18.5409740522
  - # 6
    frequency:    26.1702511631
  - # 7
    frequency:    26.1702511631
  - # 8
    frequency:    26.3226750932
  - # 9
    frequency:    26.5783159627
  - # 10
    frequency:    26.5783159627
  - # 11
    frequency:    30.1134851908
  - # 12
    frequency:    30.1134851908
  - # 13
    frequency:    30.2651178584
  - # 14
    frequency:    30.2651178584
  - # 15
    frequency:    34.4794408193
  - # 16
    frequency:    34.4794408193
  - # 17
    frequency:    34.5447858074
  - # 18
    frequency:    34.5466130046
  - # 19
    frequency:    34.6802523960
  - # 20
    frequency:    34.6802523960
  - # 21
    frequency:    36.8811783345
  - # 22
    frequency:    36.8822151657
  - # 23
    frequency:    39.1081926979
  - # 24
    frequency:    39.2161813047

- q-position: [    0.4062500,    0.0104167,    0.0104167 ]
  distance_from_gamma:  0.113752097
  weight: 24   
  band:
  - # 1
    frequency:    13.1916036442
  - # 2
    frequency:    13.1987464113
  - # 3
    frequency:    18.0617672300
  - # 4
    frequency:    18.0729377361
  - # 5
    frequency:    18.6514933686
  - # 6
    frequency:    25.6344380783
  - # 7
    frequency:    26.3838741706
  - # 8
    frequency:    26.3838741706
  - # 9
    frequency:    26.8099326415
  - # 10
    frequency:    26.8099326415
  - # 11
    frequency:    29.9561494354
  - # 12
    frequency:    29.9561494354
  - # 13
    frequency:    30.0990484603
  - # 14
    frequency:    30.0990484603
  - # 15
    frequency:    34.4410044606
  - # 16
    frequency:    34.4410044606
  - # 17
    frequency:    34.6310642529
  - # 18
    frequency:    34.6310642529
  - # 19
    frequency:    34.7699971326
  - # 20
    frequency:    34.7716538523
  - # 21
    frequency:    36.6918259645
  - # 22
    frequency:    36.6928831913
  - # 23
    frequency:    39.1609195441
  - # 24
    frequency:    39.2395409546

- q-position: [    0.4270833,    0.0104167,    0.0104167 ]
  distance_from_gamma:  0.119578064
  weight: 24   
  band:
  - # 1
    frequency:    13.7853899609
  - # 2
    frequency:    13.7930968358
  - # 3
    frequency:    17.5780112187
  - # 4
    frequency:    17.5888475069
  - # 5
    frequency:    19.4933316390
  - # 6
    frequency:    24.9279029771
  - # 7
    frequency:    26.5767721959
  - # 8
    frequency:    26.5767721959
  - # 9
    frequency:    27.0210103863
  - # 10
    frequency:    27.0210103863
  - # 11
    frequency:    29.8106078889
  - # 12
    frequency:    29.8106078889
  - # 13
    frequency:    29.9393815940
  - # 14
    frequency:    29.9393815940
  - # 15
    frequency:    34.4102696123
  - # 16
    frequency:    34.4102696123
  - # 17
    frequency:    34.5910120992
  - # 18
    frequency:    34.5910120992
  - # 19
    frequency:    34.9948946569
  - # 20
    frequency:    34.9964153352
  - # 21
    frequency:    36.4960102092
  - # 22
    frequency:    36.4970921953
  - # 23
    frequency:    39.2032115799
  - # 24
    frequency:    39.2582884422

- q-position: [    0.4479167,    0.0104167,    0.0104167 ]
  distance_from_gamma:  0.125404369
  weight: 24   
  band:
  - # 1
    frequency:    14.3672076262
  - # 2
    frequency:    14.3754481273
  - # 3
    frequency:    17.0787408425
  - # 4
    frequency:    17.0892150855
  - # 5
    frequency:    20.3196510704
  - # 6
    frequency:    24.2033020606
  - # 7
    frequency:    26.7387654207
  - # 8
    frequency:    26.7387654207
  - # 9
    frequency:    27.2005467149
  - # 10
    frequency:    27.2005467149
  - # 11
    frequency:    29.6870724039
  - # 12
    frequency:    29.6870724039
  - # 13
    frequency:    29.7961682055
  - # 14
    frequency:    29.7961682055
  - # 15
    frequency:    34.3872810608
  - # 16
    frequency:    34.3872810608
  - # 17
    frequency:    34.5605638695
  - # 18
    frequency:    34.5605638695
  - # 19
    frequency:    35.2186576368
  - # 20
    frequency:    35.2200691824
  - # 21
    frequency:    36.2942866921
  - # 22
    frequency:    36.2953990002
  - # 23
    frequency:    39.2356503491
  - # 24
    frequency:    39.2717303906

- q-position: [    0.4687500,    0.0104167,    0.0104167 ]
  distance_from_gamma:  0.131230968
  weight: 24   
  band:
  - # 1
    frequency:    14.9365341513
  - # 2
    frequency:    14.9452786852
  - # 3
    frequency:    16.5644589165
  - # 4
    frequency:    16.5745431300
  - # 5
    frequency:    21.1299825617
  - # 6
    frequency:    23.4608980765
  - # 7
    frequency:    26.8576438841
  - # 8
    frequency:    26.8576438841
  - # 9
    frequency:    27.3342743309
  - # 10
    frequency:    27.3342743309
  - # 11
    frequency:    29.5974521150
  - # 12
    frequency:    29.5974521150
  - # 13
    frequency:    29.6833520087
  - # 14
    frequency:    29.6833520087
  - # 15
    frequency:    34.3720075539
  - # 16
    frequency:    34.3720075539
  - # 17
    frequency:    34.5400683098
  - # 18
    frequency:    34.5400683098
  - # 19
    frequency:    35.4405036222
  - # 20
    frequency:    35.4418273470
  - # 21
    frequency:    36.0872416032
  - # 22
    frequency:    36.0883912572
  - # 23
    frequency:    39.2588374351
  - # 24
    frequency:    39.2791791990

- q-position: [    0.4895833,    0.0104167,    0.0104167 ]
  distance_from_gamma:  0.137057823
  weight: 24   
  band:
  - # 1
    frequency:    15.4928553680
  - # 2
    frequency:    15.5020749507
  - # 3
    frequency:    16.0356641952
  - # 4
    frequency:    16.0453302491
  - # 5
    frequency:    21.9238932140
  - # 6
    frequency:    22.7009857927
  - # 7
    frequency:    26.9211527227
  - # 8
    frequency:    26.9211527227
  - # 9
    frequency:    27.4066469654
  - # 10
    frequency:    27.4066469654
  - # 11
    frequency:    29.5515012165
  - # 12
    frequency:    29.5515012165
  - # 13
    frequency:    29.6185968323
  - # 14
    frequency:    29.6185968323
  - # 15
    frequency:    34.3643914905
  - # 16
    frequency:    34.3643914905
  - # 17
    frequency:    34.5297607093
  - # 18
    frequency:    34.5297607093
  - # 19
    frequency:    35.6596859565
  - # 20
    frequency:    35.6609388874
  - # 21
    frequency:    35.8754919530
  - # 22
    frequency:    35.8766877557
  - # 23
    frequency:    39.2733933277
  - # 24
    frequency:    39.2799560025

- q-position: [    0.0312500,    0.0312500,    0.0104167 ]
  distance_from_gamma:  0.012705339
  weight: 24   
  band:
  - # 1
    frequency:     1.4566513156
  - # 2
    frequency:     1.5416378809
  - # 3
    frequency:     2.2799153248
  - # 4
    frequency:    23.3212092114
  - # 5
    frequency:    23.3212092114
  - # 6
    frequency:    23.3377495766
  - # 7
    frequency:    23.3613942424
  - # 8
    frequency:    23.3613942424
  - # 9
    frequency:    23.4580684819
  - # 10
    frequency:    31.6824873551
  - # 11
    frequency:    31.7283829111
  - # 12
    frequency:    31.7283829111
  - # 13
    frequency:    31.7308140623
  - # 14
    frequency:    31.7455268932
  - # 15
    frequency:    31.7455268932
  - # 16
    frequency:    35.1467625583
  - # 17
    frequency:    35.1467625583
  - # 18
    frequency:    35.4788908710
  - # 19
    frequency:    35.8212790558
  - # 20
    frequency:    36.1418239011
  - # 21
    frequency:    36.1418239011
  - # 22
    frequency:    38.7056460071
  - # 23
    frequency:    38.7108354432
  - # 24
    frequency:    38.7353659574

- q-position: [    0.0520833,    0.0312500,    0.0104167 ]
  distance_from_gamma:  0.017244217
  weight: 48   
  band:
  - # 1
    frequency:     2.0002371790
  - # 2
    frequency:     2.1013269964
  - # 3
    frequency:     3.0690870931
  - # 4
    frequency:    23.2532971995
  - # 5
    frequency:    23.2934961984
  - # 6
    frequency:    23.3426980333
  - # 7
    frequency:    23.3528475916
  - # 8
    frequency:    23.4196931304
  - # 9
    frequency:    23.5425497094
  - # 10
    frequency:    31.6521175574
  - # 11
    frequency:    31.7065925344
  - # 12
    frequency:    31.7323453871
  - # 13
    frequency:    31.7364556587
  - # 14
    frequency:    31.7730466430
  - # 15
    frequency:    31.7923152728
  - # 16
    frequency:    34.7811582996
  - # 17
    frequency:    35.1308254092
  - # 18
    frequency:    35.4474330524
  - # 19
    frequency:    35.8077252208
  - # 20
    frequency:    36.1150216436
  - # 21
    frequency:    36.4390759803
  - # 22
    frequency:    38.6828015273
  - # 23
    frequency:    38.6902928086
  - # 24
    frequency:    38.7415637813

- q-position: [    0.0729167,    0.0312500,    0.0104167 ]
  distance_from_gamma:  0.022389040
  weight: 48   
  band: