       N       E                     dE             d eps       ncg     rms          rms(c)
DAV:   1     0.506115837924E+03    0.50612E+03   -0.11371E+05 13440   0.106E+03
DAV:   2    -0.560431538671E+03   -0.10665E+04   -0.10168E+04 17696   0.231E+02
DAV:   3    -0.601454284325E+03   -0.41023E+02   -0.40777E+02 17824   0.425E+01
DAV:   4    -0.601896442776E+03   -0.44216E+00   -0.44120E+00 17824   0.485E+00
DAV:   5    -0.601905912952E+03   -0.94702E-02   -0.94660E-02 16896   0.655E-01    0.267E+01
DAV:   6    -0.586977615240E+03    0.14928E+02   -0.98698E+00 15776   0.632E+00    0.146E+01
DAV:   7    -0.581935441927E+03    0.50422E+01   -0.11278E+01 16576   0.696E+00    0.196E+00
DAV:   8    -0.581995652452E+03   -0.60211E-01   -0.25363E-01 16704   0.101E+00    0.214E-01
DAV:   9    -0.581997775341E+03   -0.21229E-02   -0.36117E-03 17504   0.144E-01    0.800E-02
DAV:  10    -0.581998232306E+03   -0.45697E-03   -0.40566E-04 16224   0.534E-02    0.797E-03
DAV:  11    -0.581998237233E+03   -0.49267E-05   -0.11175E-05 17568   0.779E-03    0.203E-03
DAV:  12    -0.581998237256E+03   -0.22754E-07   -0.40626E-07 17344   0.157E-03    0.200E-04
DAV:  13    -0.581998237336E+03   -0.80312E-07   -0.57883E-09 13024   0.198E-04    0.412E-05
DAV:  14    -0.581998237357E+03   -0.20376E-07   -0.81315E-10 11520   0.691E-05    0.177E-05
DAV:  15    -0.581998237356E+03    0.62573E-09   -0.18779E-10 10240   0.315E-05
   1 F= -.58199824E+03 E0= -.58199824E+03  d E =-.382546E-12
 Linear response reoptimize wavefunctions
DAV:   1    -0.581998237356E+03   -0.28740E-09   -0.35572E-11 10080   0.145E-05
DAV:   2    -0.581998237356E+03    0.11732E-09   -0.68574E-12 10080   0.750E-06
DAV:   3    -0.581998237356E+03   -0.17644E-09    0.51148E-12 10080   0.384E-06
 Linear response DOF=           1
 Linear response progress:
  Degree of freedom:   1/  1
       N       E                     dE             d eps       ncg     rms          rms(c)
RMM:   1    -0.145829579747E+00   -0.14583E+00    0.44214E-03113339   0.733E-01
RMM:   2    -0.123985013352E+00    0.21845E-01   -0.71476E-03 68341   0.189E-01    0.180E-01
RMM:   3    -0.123830278633E+00    0.15473E-03   -0.91538E-04 71890   0.506E-02    0.914E-02
RMM:   4    -0.124099409836E+00   -0.26913E-03   -0.25421E-04 72167   0.277E-02    0.276E-02
RMM:   5    -0.124184441624E+00   -0.85032E-04   -0.16928E-05 73201   0.775E-03    0.660E-03
RMM:   6    -0.124168046325E+00    0.16395E-04   -0.10118E-06 74106   0.196E-03    0.138E-03
RMM:   7    -0.124159362656E+00    0.86837E-05   -0.19601E-07 75163   0.613E-04    0.386E-04
RMM:   8    -0.124158857204E+00    0.50545E-06   -0.13934E-07 76955   0.248E-04    0.861E-05
RMM:   9    -0.124158621465E+00    0.23574E-06   -0.13890E-07 78859   0.142E-04    0.376E-05
RMM:  10    -0.124158685651E+00   -0.64186E-07   -0.14478E-07 81031   0.133E-04    0.112E-05
RMM:  11    -0.124158687230E+00   -0.15788E-08   -0.11662E-07 81389   0.129E-04    0.467E-06
 Linear response finished
