 vasp.5.4.4.18Apr17-6-g9f103f2a35 (build Mar 12 2022 03:36:41) complex          
  
 executed on IFC19.0.3.199_CrayMP date 2022.12.01  06:18:41
 running on   32 total cores
 distrk:  each k-point on   32 cores,    1 groups
 distr:  one band on NCORES_PER_BAND=   1 cores,   32 groups


--------------------------------------------------------------------------------------------------------


 INCAR:
 POTCAR:   PAW_PBE C 08Apr2002                    

 ----------------------------------------------------------------------------- 
|                                                                             |
|           W    W    AA    RRRRR   N    N  II  N    N   GGGG   !!!           |
|           W    W   A  A   R    R  NN   N  II  NN   N  G    G  !!!           |
|           W    W  A    A  R    R  N N  N  II  N N  N  G       !!!           |
|           W WW W  AAAAAA  RRRRR   N  N N  II  N  N N  G  GGG   !            |
|           WW  WW  A    A  R   R   N   NN  II  N   NN  G    G                |
|           W    W  A    A  R    R  N    N  II  N    N   GGGG   !!!           |
|                                                                             |
|      For optimal performance we recommend to set                            |
|        NCORE= 4 - approx SQRT( number of cores)                             |
|      NCORE specifies how many cores store one orbital (NPAR=cpu/NCORE).     |
|      This setting can  greatly improve the performance of VASP for DFT.     |
|      The default,   NCORE=1            might be grossly inefficient         |
|      on modern multi-core architectures or massively parallel machines.     |
|      Do your own testing !!!!                                               |
|      Unfortunately you need to use the default for GW and RPA calculations. |
|      (for HF NCORE is supported but not extensively tested yet)             |
|                                                                             |
 ----------------------------------------------------------------------------- 

 POTCAR:   PAW_PBE C 08Apr2002                    
   VRHFIN =C: s2p2                                                              
   LEXCH  = PE                                                                  
   EATOM  =   147.1560 eV,   10.8157 Ry                                         
                                                                                
   TITEL  = PAW_PBE C 08Apr2002                                                 
   LULTRA =        F    use ultrasoft PP ?                                      
   IUNSCR =        0    unscreen: 0-lin 1-nonlin 2-no                           
   RPACOR =     .000    partial core radius                                     
   POMASS =   12.011; ZVAL   =    4.000    mass and valenz                      
   RCORE  =    1.500    outmost cutoff radius                                   
   RWIGS  =    1.630; RWIGS  =     .863    wigner-seitz radius (au A)           
   ENMAX  =  400.000; ENMIN  =  300.000 eV                                      
   ICORE  =        2    local potential                                         
   LCOR   =        T    correct aug charges                                     
   LPAW   =        T    paw PP                                                  
   EAUG   =  644.873                                                            
   DEXC   =     .000                                                            
   RMAX   =    2.266    core radius for proj-oper                               
   RAUG   =    1.300    factor for augmentation sphere                          
   RDEP   =    1.501    radius for radial grids                                 
   RDEPT  =    1.300    core radius for aug-charge                              
   QCUT   =   -5.516; QGAM   =   11.032    optimization parameters              
                                                                                
   Description                                                                  
     l     E      TYP  RCUT    TYP  RCUT                                        
     0   .000     23  1.200                                                     
     0   .000     23  1.200                                                     
     1   .000     23  1.500                                                     
     1  2.500     23  1.500                                                     
     2   .000      7  1.500                                                     
  local pseudopotential read in
  atomic valenz-charges read in
  non local Contribution for L=           0  read in
    real space projection operators read in
  non local Contribution for L=           0  read in
    real space projection operators read in
  non local Contribution for L=           1  read in
    real space projection operators read in
  non local Contribution for L=           1  read in
    real space projection operators read in
    PAW grid and wavefunctions read in
 
   number of l-projection  operators is LMAX  =           4
   number of lm-projection operators is LMMAX =           8
 

 ----------------------------------------------------------------------------- 
|                                                                             |
|  ADVICE TO THIS USER RUNNING 'VASP/VAMP'   (HEAR YOUR MASTER'S VOICE ...):  |
|                                                                             |
|      You have a (more or less) 'large supercell' and for larger cells       |
|      it might be more efficient to use real space projection operators      |
|      So try LREAL= Auto  in the INCAR   file.                               |
|      Mind: If you want to do a very accurate calculations keep the          |
|      reciprocal projection scheme          (i.e. LREAL=.FALSE.)             |
|                                                                             |
 ----------------------------------------------------------------------------- 

 PAW_PBE C 08Apr2002                    :
 energy of atom  1       EATOM= -147.1560
 kinetic energy error for atom=    0.0288 (will be added to EATOM!!)
 
 
 POSCAR: generated by phonopy                    
  positions in direct lattice
  No initial velocities read in
 exchange correlation table for  LEXCH =        8
   RHO(1)=    0.500       N(1)  =     2000
   RHO(2)=  100.500       N(2)  =     4000
 


--------------------------------------------------------------------------------------------------------


 ion  position               nearest neighbor table
   1  0.125  0.375  0.125-  11 1.55  25 1.55  43 1.55  57 1.55
   2  0.625  0.375  0.125-  12 1.55  26 1.55  44 1.55  58 1.55
   3  0.125  0.875  0.125-   9 1.55  27 1.55  41 1.55  59 1.55
   4  0.625  0.875  0.125-  10 1.55  28 1.55  42 1.55  60 1.55
   5  0.125  0.375  0.625-  15 1.55  29 1.55  47 1.55  61 1.55
   6  0.625  0.375  0.625-  16 1.55  30 1.55  48 1.55  62 1.55
   7  0.125  0.875  0.625-  13 1.55  31 1.55  45 1.55  63 1.55
   8  0.625  0.875  0.625-  14 1.55  32 1.55  46 1.55  64 1.55
   9  0.000  0.000  0.250-   3 1.55  17 1.55  36 1.55  50 1.55
  10  0.500  0.000  0.250-   4 1.55  18 1.55  35 1.55  49 1.55
  11  0.000  0.500  0.250-   1 1.55  19 1.55  34 1.55  52 1.55
  12  0.500  0.500  0.250-   2 1.55  20 1.55  33 1.55  51 1.55
  13  0.000  0.000  0.750-   7 1.55  21 1.55  40 1.55  54 1.55
  14  0.500  0.000  0.750-   8 1.55  22 1.55  39 1.55  53 1.55
  15  0.000  0.500  0.750-   5 1.55  23 1.55  38 1.55  56 1.55
  16  0.500  0.500  0.750-   6 1.55  24 1.55  37 1.55  55 1.55
  17  0.125  0.125  0.375-   9 1.55  29 1.55  45 1.55  57 1.55
  18  0.625  0.125  0.375-  10 1.55  30 1.55  46 1.55  58 1.55
  19  0.125  0.625  0.375-  11 1.55  31 1.55  47 1.55  59 1.55
  20  0.625  0.625  0.375-  12 1.55  32 1.55  48 1.55  60 1.55
  21  0.125  0.125  0.875-  13 1.55  25 1.55  41 1.55  61 1.55
  22  0.625  0.125  0.875-  14 1.55  26 1.55  42 1.55  62 1.55
  23  0.125  0.625  0.875-  15 1.55  27 1.55  43 1.55  63 1.55
  24  0.625  0.625  0.875-  16 1.55  28 1.55  44 1.55  64 1.55
  25  0.000  0.250  0.000-   1 1.55  21 1.55  38 1.55  50 1.55
  26  0.500  0.250  0.000-   2 1.55  22 1.55  37 1.55  49 1.55
  27  0.000  0.750  0.000-   3 1.55  23 1.55  40 1.55  52 1.55
  28  0.500  0.750  0.000-   4 1.55  24 1.55  39 1.55  51 1.55
  29  0.000  0.250  0.500-   5 1.55  17 1.55  34 1.55  54 1.55
  30  0.500  0.250  0.500-   6 1.55  18 1.55  33 1.55  53 1.55
  31  0.000  0.750  0.500-   7 1.55  19 1.55  36 1.55  56 1.55
  32  0.500  0.750  0.500-   8 1.55  20 1.55  35 1.55  55 1.55
  33  0.375  0.375  0.375-  12 1.55  30 1.55  47 1.55  57 1.55
  34  0.875  0.375  0.375-  11 1.55  29 1.55  48 1.55  58 1.55
  35  0.375  0.875  0.375-  10 1.55  32 1.55  45 1.55  59 1.55
  36  0.875  0.875  0.375-   9 1.55  31 1.55  46 1.55  60 1.55
  37  0.375  0.375  0.875-  16 1.55  26 1.55  43 1.55  61 1.55
  38  0.875  0.375  0.875-  15 1.55  25 1.55  44 1.55  62 1.55
  39  0.375  0.875  0.875-  14 1.55  28 1.55  41 1.55  63 1.55
  40  0.875  0.875  0.875-  13 1.55  27 1.55  42 1.55  64 1.55
  41  0.250  0.000  0.000-   3 1.55  21 1.55  39 1.55  49 1.55
  42  0.750  0.000  0.000-   4 1.55  22 1.55  40 1.55  50 1.55
  43  0.250  0.500  0.000-   1 1.55  23 1.55  37 1.55  51 1.55
  44  0.750  0.500  0.000-   2 1.55  24 1.55  38 1.55  52 1.55
  45  0.250  0.000  0.500-   7 1.55  17 1.55  35 1.55  53 1.55
  46  0.750  0.000  0.500-   8 1.55  18 1.55  36 1.55  54 1.55
  47  0.250  0.500  0.500-   5 1.55  19 1.55  33 1.55  55 1.55
  48  0.750  0.500  0.500-   6 1.55  20 1.55  34 1.55  56 1.55
  49  0.375  0.125  0.125-  10 1.55  26 1.55  41 1.55  57 1.55
  50  0.875  0.125  0.125-   9 1.55  25 1.55  42 1.55  58 1.55
  51  0.375  0.625  0.125-  12 1.55  28 1.55  43 1.55  59 1.55
  52  0.875  0.625  0.125-  11 1.55  27 1.55  44 1.55  60 1.55
  53  0.375  0.125  0.625-  14 1.55  30 1.55  45 1.55  61 1.55
  54  0.875  0.125  0.625-  13 1.55  29 1.55  46 1.55  62 1.55
  55  0.375  0.625  0.625-  16 1.55  32 1.55  47 1.55  63 1.55
  56  0.875  0.625  0.625-  15 1.55  31 1.55  48 1.55  64 1.55
  57  0.250  0.250  0.250-   1 1.55  17 1.55  33 1.55  49 1.55
  58  0.750  0.250  0.250-   2 1.55  18 1.55  34 1.55  50 1.55
  59  0.250  0.750  0.250-   3 1.55  19 1.55  35 1.55  51 1.55
  60  0.750  0.750  0.250-   4 1.55  20 1.55  36 1.55  52 1.55
  61  0.250  0.250  0.750-   5 1.55  21 1.55  37 1.55  53 1.55
  62  0.750  0.250  0.750-   6 1.55  22 1.55  38 1.55  54 1.55
  63  0.250  0.750  0.750-   7 1.55  23 1.55  39 1.55  55 1.55
  64  0.750  0.750  0.750-   8 1.55  24 1.55  40 1.55  56 1.55
 
  LATTYP: Found a simple cubic cell.
 ALAT       =     7.1474200000
  
  Lattice vectors:
  
 A1 = (   7.1474200000,   0.0000000000,   0.0000000000)
 A2 = (   0.0000000000,   7.1474200000,   0.0000000000)
 A3 = (   0.0000000000,   0.0000000000,   7.1474200000)


Analysis of symmetry for initial positions (statically):
=====================================================================
 Subroutine PRICEL returns following result:
 
  LATTYP: Found a face centered cubic cell.
 ALAT       =     3.5737100000
  
  Lattice vectors:
  
 A1 = (   1.7868550000,   1.7868550000,   0.0000000000)
 A2 = (   1.7868550000,   0.0000000000,  -1.7868550000)
 A3 = (   0.0000000000,   1.7868550000,  -1.7868550000)
 
  32 primitive cells build up your supercell.
 

 Routine SETGRP: Setting up the symmetry group for a 
 simple cubic supercell.


 Subroutine GETGRP returns: Found 48 space group operations
 (whereof 24 operations were pure point group operations)
 out of a pool of 48 trial point group operations.


The static configuration has the point symmetry T_d .
 The point group associated with its full space group is O_h .


Analysis of symmetry for dynamics (positions and initial velocities):
=====================================================================
 Subroutine PRICEL returns following result:
 
  LATTYP: Found a face centered cubic cell.
 ALAT       =     3.5737100000
  
  Lattice vectors:
  
 A1 = (   1.7868550000,   1.7868550000,   0.0000000000)
 A2 = (   1.7868550000,   0.0000000000,  -1.7868550000)
 A3 = (   0.0000000000,   1.7868550000,  -1.7868550000)
 
  32 primitive cells build up your supercell.
 

 Routine SETGRP: Setting up the symmetry group for a 
 simple cubic supercell.


 Subroutine GETGRP returns: Found 48 space group operations
 (whereof 24 operations were pure point group operations)
 out of a pool of 48 trial point group operations.


The dynamic configuration has the point symmetry T_d .
 The point group associated with its full space group is O_h .


 Subroutine INISYM returns: Found 48 space group operations
 (whereof 24 operations are pure point group operations),
 and found    32 'primitive' translations

 
 
 KPOINTS: kpt_density=3000                        

Automatic generation of k-mesh.
Space group operators:
 irot       det(A)        alpha          n_x          n_y          n_z        tau_x        tau_y        tau_z
    1     1.000000     0.000000     1.000000     0.000000     0.000000     0.000000     0.000000     0.000000
    2     1.000000   120.000000    -0.577350    -0.577350    -0.577350     0.000000     0.000000     0.000000
    3     1.000000   120.000000     0.577350     0.577350     0.577350     0.000000     0.000000     0.000000
    4    -1.000000    90.000000     0.000000     0.000000    -1.000000     0.000000     0.000000     0.000000
    5    -1.000000   180.000000     0.000000     0.707107     0.707107     0.000000     0.000000     0.000000
    6    -1.000000    90.000000     0.000000     1.000000     0.000000     0.000000     0.000000     0.000000
    7     1.000000   180.000000     0.000000     0.000000     1.000000     0.000000     0.000000     0.000000
    8     1.000000   120.000000    -0.577350     0.577350     0.577350     0.000000     0.000000     0.000000
    9     1.000000   120.000000    -0.577350     0.577350    -0.577350     0.000000     0.000000     0.000000
   10    -1.000000    90.000000     0.000000     0.000000     1.000000     0.000000     0.000000     0.000000
   11    -1.000000    90.000000    -1.000000     0.000000     0.000000     0.000000     0.000000     0.000000
   12    -1.000000   180.000000     0.707107     0.000000     0.707107     0.000000     0.000000     0.000000
   13     1.000000   120.000000     0.577350    -0.577350     0.577350     0.000000     0.000000     0.000000
   14     1.000000   120.000000    -0.577350    -0.577350     0.577350     0.000000     0.000000     0.000000
   15     1.000000   180.000000     1.000000     0.000000     0.000000     0.000000     0.000000     0.000000
   16    -1.000000    90.000000     0.000000    -1.000000     0.000000     0.000000     0.000000     0.000000
   17    -1.000000   180.000000     0.707107     0.707107     0.000000     0.000000     0.000000     0.000000
   18    -1.000000    90.000000     1.000000     0.000000     0.000000     0.000000     0.000000     0.000000
   19     1.000000   120.000000     0.577350    -0.577350    -0.577350     0.000000     0.000000     0.000000
   20     1.000000   180.000000     0.000000     1.000000     0.000000     0.000000     0.000000     0.000000
   21     1.000000   120.000000     0.577350     0.577350    -0.577350     0.000000     0.000000     0.000000
   22    -1.000000   180.000000     0.000000    -0.707107     0.707107     0.000000     0.000000     0.000000
   23    -1.000000   180.000000     0.707107    -0.707107     0.000000     0.000000     0.000000     0.000000
   24    -1.000000   180.000000     0.707107     0.000000    -0.707107     0.000000     0.000000     0.000000
   25    -1.000000     0.000000     1.000000     0.000000     0.000000     0.375000     0.375000    -0.375000
   26    -1.000000   120.000000    -0.577350    -0.577350    -0.577350     0.375000     0.375000    -0.375000
   27    -1.000000   120.000000     0.577350     0.577350     0.577350     0.375000     0.375000    -0.375000
   28     1.000000    90.000000     0.000000     0.000000    -1.000000     0.375000     0.375000    -0.375000
   29     1.000000   180.000000     0.000000     0.707107     0.707107     0.375000     0.375000    -0.375000
   30     1.000000    90.000000     0.000000     1.000000     0.000000     0.375000     0.375000    -0.375000
   31    -1.000000   180.000000     0.000000     0.000000     1.000000     0.375000     0.375000    -0.375000
   32    -1.000000   120.000000    -0.577350     0.577350     0.577350     0.375000     0.375000    -0.375000
   33    -1.000000   120.000000    -0.577350     0.577350    -0.577350     0.375000     0.375000    -0.375000
   34     1.000000    90.000000     0.000000     0.000000     1.000000     0.375000     0.375000    -0.375000
   35     1.000000    90.000000    -1.000000     0.000000     0.000000     0.375000     0.375000    -0.375000
   36     1.000000   180.000000     0.707107     0.000000     0.707107     0.375000     0.375000    -0.375000
   37    -1.000000   120.000000     0.577350    -0.577350     0.577350     0.375000     0.375000    -0.375000
   38    -1.000000   120.000000    -0.577350    -0.577350     0.577350     0.375000     0.375000    -0.375000
   39    -1.000000   180.000000     1.000000     0.000000     0.000000     0.375000     0.375000    -0.375000
   40     1.000000    90.000000     0.000000    -1.000000     0.000000     0.375000     0.375000    -0.375000
   41     1.000000   180.000000     0.707107     0.707107     0.000000     0.375000     0.375000    -0.375000
   42     1.000000    90.000000     1.000000     0.000000     0.000000     0.375000     0.375000    -0.375000
   43    -1.000000   120.000000     0.577350    -0.577350    -0.577350     0.375000     0.375000    -0.375000
   44    -1.000000   180.000000     0.000000     1.000000     0.000000     0.375000     0.375000    -0.375000
   45    -1.000000   120.000000     0.577350     0.577350    -0.577350     0.375000     0.375000    -0.375000
   46     1.000000   180.000000     0.000000    -0.707107     0.707107     0.375000     0.375000    -0.375000
   47     1.000000   180.000000     0.707107    -0.707107     0.000000     0.375000     0.375000    -0.375000
   48     1.000000   180.000000     0.707107     0.000000    -0.707107     0.375000     0.375000    -0.375000
 
 Subroutine IBZKPT returns following result:
 ===========================================
 
 Found     35 irreducible k-points:
 
 Following reciprocal coordinates:
            Coordinates               Weight
  0.000000  0.000000  0.000000      1.000000
  0.125000  0.000000  0.000000      6.000000
  0.250000  0.000000  0.000000      6.000000
  0.375000  0.000000  0.000000      6.000000
  0.500000  0.000000  0.000000      3.000000
  0.125000  0.125000  0.000000     12.000000
  0.250000  0.125000  0.000000     24.000000
  0.375000  0.125000  0.000000     24.000000
  0.500000  0.125000  0.000000     12.000000
  0.250000  0.250000  0.000000     12.000000
  0.375000  0.250000  0.000000     24.000000
  0.500000  0.250000  0.000000     12.000000
  0.375000  0.375000  0.000000     12.000000
  0.500000  0.375000  0.000000     12.000000
  0.500000  0.500000  0.000000      3.000000
  0.125000  0.125000  0.125000      8.000000
  0.250000  0.125000  0.125000     24.000000
  0.375000  0.125000  0.125000     24.000000
  0.500000  0.125000  0.125000     12.000000
  0.250000  0.250000  0.125000     24.000000
  0.375000  0.250000  0.125000     48.000000
  0.500000  0.250000  0.125000     24.000000
  0.375000  0.375000  0.125000     24.000000
  0.500000  0.375000  0.125000     24.000000
  0.500000  0.500000  0.125000      6.000000
  0.250000  0.250000  0.250000      8.000000
  0.375000  0.250000  0.250000     24.000000
  0.500000  0.250000  0.250000     12.000000
  0.375000  0.375000  0.250000     24.000000
  0.500000  0.375000  0.250000     24.000000
  0.500000  0.500000  0.250000      6.000000
  0.375000  0.375000  0.375000      8.000000
  0.500000  0.375000  0.375000     12.000000
  0.500000  0.500000  0.375000      6.000000
  0.500000  0.500000  0.500000      1.000000
 
 Following cartesian coordinates:
            Coordinates               Weight
  0.000000  0.000000  0.000000      1.000000
  0.017489  0.000000  0.000000      6.000000
  0.034978  0.000000  0.000000      6.000000
  0.052466  0.000000  0.000000      6.000000
  0.069955  0.000000  0.000000      3.000000
  0.017489  0.017489  0.000000     12.000000
  0.034978  0.017489  0.000000     24.000000
  0.052466  0.017489  0.000000     24.000000
  0.069955  0.017489  0.000000     12.000000
  0.034978  0.034978  0.000000     12.000000
  0.052466  0.034978  0.000000     24.000000
  0.069955  0.034978  0.000000     12.000000
  0.052466  0.052466  0.000000     12.000000
  0.069955  0.052466  0.000000     12.000000
  0.069955  0.069955  0.000000      3.000000
  0.017489  0.017489  0.017489      8.000000
  0.034978  0.017489  0.017489     24.000000
  0.052466  0.017489  0.017489     24.000000
  0.069955  0.017489  0.017489     12.000000
  0.034978  0.034978  0.017489     24.000000
  0.052466  0.034978  0.017489     48.000000
  0.069955  0.034978  0.017489     24.000000
  0.052466  0.052466  0.017489     24.000000
  0.069955  0.052466  0.017489     24.000000
  0.069955  0.069955  0.017489      6.000000
  0.034978  0.034978  0.034978      8.000000
  0.052466  0.034978  0.034978     24.000000
  0.069955  0.034978  0.034978     12.000000
  0.052466  0.052466  0.034978     24.000000
  0.069955  0.052466  0.034978     24.000000
  0.069955  0.069955  0.034978      6.000000
  0.052466  0.052466  0.052466      8.000000
  0.069955  0.052466  0.052466     12.000000
  0.069955  0.069955  0.052466      6.000000
  0.069955  0.069955  0.069955      1.000000
 
 
 Subroutine IBZKPT_HF returns following result:
 ==============================================
 
 Found    512 k-points in 1st BZ
 the following    512 k-points will be used (e.g. in the exchange kernel)
 Following reciprocal coordinates:   # in IRBZ
  0.000000  0.000000  0.000000    0.00195312   1 t-inv F
  0.125000  0.000000  0.000000    0.00195312   2 t-inv F
  0.250000  0.000000  0.000000    0.00195312   3 t-inv F
  0.375000  0.000000  0.000000    0.00195312   4 t-inv F
  0.500000  0.000000  0.000000    0.00195312   5 t-inv F
  0.125000  0.125000  0.000000    0.00195312   6 t-inv F
  0.250000  0.125000  0.000000    0.00195312   7 t-inv F
  0.375000  0.125000  0.000000    0.00195312   8 t-inv F
  0.500000  0.125000  0.000000    0.00195312   9 t-inv F
  0.250000  0.250000  0.000000    0.00195312  10 t-inv F
  0.375000  0.250000  0.000000    0.00195312  11 t-inv F
  0.500000  0.250000  0.000000    0.00195312  12 t-inv F
  0.375000  0.375000  0.000000    0.00195312  13 t-inv F
  0.500000  0.375000  0.000000    0.00195312  14 t-inv F
  0.500000  0.500000  0.000000    0.00195312  15 t-inv F
  0.125000  0.125000  0.125000    0.00195312  16 t-inv F
  0.250000  0.125000  0.125000    0.00195312  17 t-inv F
  0.375000  0.125000  0.125000    0.00195312  18 t-inv F
  0.500000  0.125000  0.125000    0.00195312  19 t-inv F
  0.250000  0.250000  0.125000    0.00195312  20 t-inv F
  0.375000  0.250000  0.125000    0.00195312  21 t-inv F
  0.500000  0.250000  0.125000    0.00195312  22 t-inv F
  0.375000  0.375000  0.125000    0.00195312  23 t-inv F
  0.500000  0.375000  0.125000    0.00195312  24 t-inv F
  0.500000  0.500000  0.125000    0.00195312  25 t-inv F
  0.250000  0.250000  0.250000    0.00195312  26 t-inv F
  0.375000  0.250000  0.250000    0.00195312  27 t-inv F
  0.500000  0.250000  0.250000    0.00195312  28 t-inv F
  0.375000  0.375000  0.250000    0.00195312  29 t-inv F
  0.500000  0.375000  0.250000    0.00195312  30 t-inv F
  0.500000  0.500000  0.250000    0.00195312  31 t-inv F
  0.375000  0.375000  0.375000    0.00195312  32 t-inv F
  0.500000  0.375000  0.375000    0.00195312  33 t-inv F
  0.500000  0.500000  0.375000    0.00195312  34 t-inv F
  0.500000  0.500000  0.500000    0.00195312  35 t-inv F
  0.000000  0.125000  0.000000    0.00195312   2 t-inv F
  0.000000  0.000000  0.125000    0.00195312   2 t-inv F
  0.000000 -0.125000  0.000000    0.00195312   2 t-inv F
  0.000000  0.000000 -0.125000    0.00195312   2 t-inv F
 -0.125000  0.000000  0.000000    0.00195312   2 t-inv F
  0.000000  0.250000  0.000000    0.00195312   3 t-inv F
  0.000000  0.000000  0.250000    0.00195312   3 t-inv F
  0.000000 -0.250000  0.000000    0.00195312   3 t-inv F
  0.000000  0.000000 -0.250000    0.00195312   3 t-inv F
 -0.250000  0.000000  0.000000    0.00195312   3 t-inv F
  0.000000  0.375000  0.000000    0.00195312   4 t-inv F
  0.000000  0.000000  0.375000    0.00195312   4 t-inv F
  0.000000 -0.375000  0.000000    0.00195312   4 t-inv F
  0.000000  0.000000 -0.375000    0.00195312   4 t-inv F
 -0.375000  0.000000  0.000000    0.00195312   4 t-inv F
  0.000000  0.500000  0.000000    0.00195312   5 t-inv F
  0.000000  0.000000  0.500000    0.00195312   5 t-inv F
  0.000000  0.125000  0.125000    0.00195312   6 t-inv F
  0.125000  0.000000  0.125000    0.00195312   6 t-inv F
  0.125000 -0.125000  0.000000    0.00195312   6 t-inv F
  0.125000  0.000000 -0.125000    0.00195312   6 t-inv F
  0.000000 -0.125000 -0.125000    0.00195312   6 t-inv F
 -0.125000 -0.125000  0.000000    0.00195312   6 t-inv F
  0.000000 -0.125000  0.125000    0.00195312   6 t-inv F
 -0.125000  0.000000  0.125000    0.00195312   6 t-inv F
 -0.125000  0.125000  0.000000    0.00195312   6 t-inv F
 -0.125000  0.000000 -0.125000    0.00195312   6 t-inv F
  0.000000  0.125000 -0.125000    0.00195312   6 t-inv F
  0.000000  0.250000  0.125000    0.00195312   7 t-inv F
  0.125000  0.000000  0.250000    0.00195312   7 t-inv F
  0.125000 -0.250000  0.000000    0.00195312   7 t-inv F
  0.250000  0.000000 -0.125000    0.00195312   7 t-inv F
  0.000000 -0.125000 -0.250000    0.00195312   7 t-inv F
 -0.250000 -0.125000  0.000000    0.00195312   7 t-inv F
  0.000000 -0.250000  0.125000    0.00195312   7 t-inv F
 -0.125000  0.000000  0.250000    0.00195312   7 t-inv F
 -0.125000  0.250000  0.000000    0.00195312   7 t-inv F
 -0.250000  0.000000 -0.125000    0.00195312   7 t-inv F
  0.000000  0.125000 -0.250000    0.00195312   7 t-inv F
  0.000000 -0.250000 -0.125000    0.00195312   7 t-inv F
  0.125000  0.000000 -0.250000    0.00195312   7 t-inv F
  0.250000 -0.125000  0.000000    0.00195312   7 t-inv F
  0.000000 -0.125000  0.250000    0.00195312   7 t-inv F
 -0.125000 -0.250000  0.000000    0.00195312   7 t-inv F
 -0.250000  0.000000  0.125000    0.00195312   7 t-inv F
 -0.125000  0.000000 -0.250000    0.00195312   7 t-inv F
 -0.250000  0.125000  0.000000    0.00195312   7 t-inv F
  0.000000  0.250000 -0.125000    0.00195312   7 t-inv F
  0.250000  0.000000  0.125000    0.00195312   7 t-inv F
  0.125000  0.250000  0.000000    0.00195312   7 t-inv F
  0.000000  0.125000  0.250000    0.00195312   7 t-inv F
  0.000000  0.375000  0.125000    0.00195312   8 t-inv F
  0.125000  0.000000  0.375000    0.00195312   8 t-inv F
  0.125000 -0.375000  0.000000    0.00195312   8 t-inv F
  0.375000  0.000000 -0.125000    0.00195312   8 t-inv F
  0.000000 -0.125000 -0.375000    0.00195312   8 t-inv F
 -0.375000 -0.125000  0.000000    0.00195312   8 t-inv F
  0.000000 -0.375000  0.125000    0.00195312   8 t-inv F
 -0.125000  0.000000  0.375000    0.00195312   8 t-inv F
 -0.125000  0.375000  0.000000    0.00195312   8 t-inv F
 -0.375000  0.000000 -0.125000    0.00195312   8 t-inv F
  0.000000  0.125000 -0.375000    0.00195312   8 t-inv F
  0.000000 -0.375000 -0.125000    0.00195312   8 t-inv F
  0.125000  0.000000 -0.375000    0.00195312   8 t-inv F
  0.375000 -0.125000  0.000000    0.00195312   8 t-inv F
  0.000000 -0.125000  0.375000    0.00195312   8 t-inv F
 -0.125000 -0.375000  0.000000    0.00195312   8 t-inv F
 -0.375000  0.000000  0.125000    0.00195312   8 t-inv F
 -0.125000  0.000000 -0.375000    0.00195312   8 t-inv F
 -0.375000  0.125000  0.000000    0.00195312   8 t-inv F
  0.000000  0.375000 -0.125000    0.00195312   8 t-inv F
  0.375000  0.000000  0.125000    0.00195312   8 t-inv F
  0.125000  0.375000  0.000000    0.00195312   8 t-inv F
  0.000000  0.125000  0.375000    0.00195312   8 t-inv F
  0.000000  0.500000  0.125000    0.00195312   9 t-inv F
  0.125000  0.000000  0.500000    0.00195312   9 t-inv F
  0.125000 -0.500000  0.000000    0.00195312   9 t-inv F
  0.500000  0.000000 -0.125000    0.00195312   9 t-inv F
  0.000000 -0.125000 -0.500000    0.00195312   9 t-inv F
 -0.500000 -0.125000  0.000000    0.00195312   9 t-inv F
 -0.125000  0.000000  0.500000    0.00195312   9 t-inv F
 -0.125000  0.500000  0.000000    0.00195312   9 t-inv F
  0.000000  0.125000 -0.500000    0.00195312   9 t-inv F
  0.000000 -0.500000 -0.125000    0.00195312   9 t-inv F
 -0.500000  0.000000  0.125000    0.00195312   9 t-inv F
  0.000000  0.250000  0.250000    0.00195312  10 t-inv F
  0.250000  0.000000  0.250000    0.00195312  10 t-inv F
  0.250000 -0.250000  0.000000    0.00195312  10 t-inv F
  0.250000  0.000000 -0.250000    0.00195312  10 t-inv F
  0.000000 -0.250000 -0.250000    0.00195312  10 t-inv F
 -0.250000 -0.250000  0.000000    0.00195312  10 t-inv F
  0.000000 -0.250000  0.250000    0.00195312  10 t-inv F
 -0.250000  0.000000  0.250000    0.00195312  10 t-inv F
 -0.250000  0.250000  0.000000    0.00195312  10 t-inv F
 -0.250000  0.000000 -0.250000    0.00195312  10 t-inv F
  0.000000  0.250000 -0.250000    0.00195312  10 t-inv F
  0.000000  0.375000  0.250000    0.00195312  11 t-inv F
  0.250000  0.000000  0.375000    0.00195312  11 t-inv F
  0.250000 -0.375000  0.000000    0.00195312  11 t-inv F
  0.375000  0.000000 -0.250000    0.00195312  11 t-inv F
  0.000000 -0.250000 -0.375000    0.00195312  11 t-inv F
 -0.375000 -0.250000  0.000000    0.00195312  11 t-inv F
  0.000000 -0.375000  0.250000    0.00195312  11 t-inv F
 -0.250000  0.000000  0.375000    0.00195312  11 t-inv F
 -0.250000  0.375000  0.000000    0.00195312  11 t-inv F
 -0.375000  0.000000 -0.250000    0.00195312  11 t-inv F
  0.000000  0.250000 -0.375000    0.00195312  11 t-inv F
  0.000000 -0.375000 -0.250000    0.00195312  11 t-inv F
  0.250000  0.000000 -0.375000    0.00195312  11 t-inv F
  0.375000 -0.250000  0.000000    0.00195312  11 t-inv F
  0.000000 -0.250000  0.375000    0.00195312  11 t-inv F
 -0.250000 -0.375000  0.000000    0.00195312  11 t-inv F
 -0.375000  0.000000  0.250000    0.00195312  11 t-inv F
 -0.250000  0.000000 -0.375000    0.00195312  11 t-inv F
 -0.375000  0.250000  0.000000    0.00195312  11 t-inv F
  0.000000  0.375000 -0.250000    0.00195312  11 t-inv F
  0.375000  0.000000  0.250000    0.00195312  11 t-inv F
  0.250000  0.375000  0.000000    0.00195312  11 t-inv F
  0.000000  0.250000  0.375000    0.00195312  11 t-inv F
  0.000000  0.500000  0.250000    0.00195312  12 t-inv F
  0.250000  0.000000  0.500000    0.00195312  12 t-inv F
  0.250000 -0.500000  0.000000    0.00195312  12 t-inv F
  0.500000  0.000000 -0.250000    0.00195312  12 t-inv F
  0.000000 -0.250000 -0.500000    0.00195312  12 t-inv F
 -0.500000 -0.250000  0.000000    0.00195312  12 t-inv F
 -0.250000  0.000000  0.500000    0.00195312  12 t-inv F
 -0.250000  0.500000  0.000000    0.00195312  12 t-inv F
  0.000000  0.250000 -0.500000    0.00195312  12 t-inv F
  0.000000 -0.500000 -0.250000    0.00195312  12 t-inv F
 -0.500000  0.000000  0.250000    0.00195312  12 t-inv F
  0.000000  0.375000  0.375000    0.00195312  13 t-inv F
  0.375000  0.000000  0.375000    0.00195312  13 t-inv F
  0.375000 -0.375000  0.000000    0.00195312  13 t-inv F
  0.375000  0.000000 -0.375000    0.00195312  13 t-inv F
  0.000000 -0.375000 -0.375000    0.00195312  13 t-inv F
 -0.375000 -0.375000  0.000000    0.00195312  13 t-inv F
  0.000000 -0.375000  0.375000    0.00195312  13 t-inv F
 -0.375000  0.000000  0.375000    0.00195312  13 t-inv F
 -0.375000  0.375000  0.000000    0.00195312  13 t-inv F
 -0.375000  0.000000 -0.375000    0.00195312  13 t-inv F
  0.000000  0.375000 -0.375000    0.00195312  13 t-inv F
  0.000000  0.500000  0.375000    0.00195312  14 t-inv F
  0.375000  0.000000  0.500000    0.00195312  14 t-inv F
  0.375000 -0.500000  0.000000    0.00195312  14 t-inv F
  0.500000  0.000000 -0.375000    0.00195312  14 t-inv F
  0.000000 -0.375000 -0.500000    0.00195312  14 t-inv F
 -0.500000 -0.375000  0.000000    0.00195312  14 t-inv F
 -0.375000  0.000000  0.500000    0.00195312  14 t-inv F
 -0.375000  0.500000  0.000000    0.00195312  14 t-inv F
  0.000000  0.375000 -0.500000    0.00195312  14 t-inv F
  0.000000 -0.500000 -0.375000    0.00195312  14 t-inv F
 -0.500000  0.000000  0.375000    0.00195312  14 t-inv F
  0.000000  0.500000  0.500000    0.00195312  15 t-inv F
  0.500000  0.000000  0.500000    0.00195312  15 t-inv F
  0.125000 -0.125000 -0.125000    0.00195312  16 t-inv F
 -0.125000 -0.125000  0.125000    0.00195312  16 t-inv F
 -0.125000  0.125000 -0.125000    0.00195312  16 t-inv F
 -0.125000 -0.125000 -0.125000    0.00195312  16 t-inv F
 -0.125000  0.125000  0.125000    0.00195312  16 t-inv F
  0.125000  0.125000 -0.125000    0.00195312  16 t-inv F
  0.125000 -0.125000  0.125000    0.00195312  16 t-inv F
  0.125000  0.250000  0.125000    0.00195312  17 t-inv F
  0.125000  0.125000  0.250000    0.00195312  17 t-inv F
  0.125000 -0.250000 -0.125000    0.00195312  17 t-inv F
  0.250000 -0.125000 -0.125000    0.00195312  17 t-inv F
  0.125000 -0.125000 -0.250000    0.00195312  17 t-inv F
 -0.250000 -0.125000  0.125000    0.00195312  17 t-inv F
 -0.125000 -0.250000  0.125000    0.00195312  17 t-inv F
 -0.125000 -0.125000  0.250000    0.00195312  17 t-inv F
 -0.125000  0.250000 -0.125000    0.00195312  17 t-inv F
 -0.250000  0.125000 -0.125000    0.00195312  17 t-inv F
 -0.125000  0.125000 -0.250000    0.00195312  17 t-inv F
 -0.250000 -0.125000 -0.125000    0.00195312  17 t-inv F
 -0.125000 -0.250000 -0.125000    0.00195312  17 t-inv F
 -0.125000 -0.125000 -0.250000    0.00195312  17 t-inv F
 -0.125000  0.250000  0.125000    0.00195312  17 t-inv F
 -0.250000  0.125000  0.125000    0.00195312  17 t-inv F
 -0.125000  0.125000  0.250000    0.00195312  17 t-inv F
  0.250000  0.125000 -0.125000    0.00195312  17 t-inv F
  0.125000  0.250000 -0.125000    0.00195312  17 t-inv F
  0.125000  0.125000 -0.250000    0.00195312  17 t-inv F
  0.125000 -0.250000  0.125000    0.00195312  17 t-inv F
  0.250000 -0.125000  0.125000    0.00195312  17 t-inv F
  0.125000 -0.125000  0.250000    0.00195312  17 t-inv F
  0.125000  0.375000  0.125000    0.00195312  18 t-inv F
  0.125000  0.125000  0.375000    0.00195312  18 t-inv F
  0.125000 -0.375000 -0.125000    0.00195312  18 t-inv F
  0.375000 -0.125000 -0.125000    0.00195312  18 t-inv F
  0.125000 -0.125000 -0.375000    0.00195312  18 t-inv F
 -0.375000 -0.125000  0.125000    0.00195312  18 t-inv F
 -0.125000 -0.375000  0.125000    0.00195312  18 t-inv F
 -0.125000 -0.125000  0.375000    0.00195312  18 t-inv F
 -0.125000  0.375000 -0.125000    0.00195312  18 t-inv F
 -0.375000  0.125000 -0.125000    0.00195312  18 t-inv F
 -0.125000  0.125000 -0.375000    0.00195312  18 t-inv F
 -0.375000 -0.125000 -0.125000    0.00195312  18 t-inv F
 -0.125000 -0.375000 -0.125000    0.00195312  18 t-inv F
 -0.125000 -0.125000 -0.375000    0.00195312  18 t-inv F
 -0.125000  0.375000  0.125000    0.00195312  18 t-inv F
 -0.375000  0.125000  0.125000    0.00195312  18 t-inv F
 -0.125000  0.125000  0.375000    0.00195312  18 t-inv F
  0.375000  0.125000 -0.125000    0.00195312  18 t-inv F
  0.125000  0.375000 -0.125000    0.00195312  18 t-inv F
  0.125000  0.125000 -0.375000    0.00195312  18 t-inv F
  0.125000 -0.375000  0.125000    0.00195312  18 t-inv F
  0.375000 -0.125000  0.125000    0.00195312  18 t-inv F
  0.125000 -0.125000  0.375000    0.00195312  18 t-inv F
  0.125000  0.500000  0.125000    0.00195312  19 t-inv F
  0.125000  0.125000  0.500000    0.00195312  19 t-inv F
  0.125000 -0.500000 -0.125000    0.00195312  19 t-inv F
  0.500000 -0.125000 -0.125000    0.00195312  19 t-inv F
  0.125000 -0.125000 -0.500000    0.00195312  19 t-inv F
 -0.500000 -0.125000  0.125000    0.00195312  19 t-inv F
 -0.125000 -0.500000  0.125000    0.00195312  19 t-inv F
 -0.125000 -0.125000  0.500000    0.00195312  19 t-inv F
 -0.125000  0.500000 -0.125000    0.00195312  19 t-inv F
 -0.500000  0.125000 -0.125000    0.00195312  19 t-inv F
 -0.125000  0.125000 -0.500000    0.00195312  19 t-inv F
  0.125000  0.250000  0.250000    0.00195312  20 t-inv F
  0.250000  0.125000  0.250000    0.00195312  20 t-inv F
  0.250000 -0.250000 -0.125000    0.00195312  20 t-inv F
  0.250000 -0.125000 -0.250000    0.00195312  20 t-inv F
  0.125000 -0.250000 -0.250000    0.00195312  20 t-inv F
 -0.250000 -0.250000  0.125000    0.00195312  20 t-inv F
 -0.125000 -0.250000  0.250000    0.00195312  20 t-inv F
 -0.250000 -0.125000  0.250000    0.00195312  20 t-inv F
 -0.250000  0.250000 -0.125000    0.00195312  20 t-inv F
 -0.250000  0.125000 -0.250000    0.00195312  20 t-inv F
 -0.125000  0.250000 -0.250000    0.00195312  20 t-inv F
 -0.250000 -0.250000 -0.125000    0.00195312  20 t-inv F
 -0.125000 -0.250000 -0.250000    0.00195312  20 t-inv F
 -0.250000 -0.125000 -0.250000    0.00195312  20 t-inv F
 -0.250000  0.250000  0.125000    0.00195312  20 t-inv F
 -0.250000  0.125000  0.250000    0.00195312  20 t-inv F
 -0.125000  0.250000  0.250000    0.00195312  20 t-inv F
  0.250000  0.250000 -0.125000    0.00195312  20 t-inv F
  0.125000  0.250000 -0.250000    0.00195312  20 t-inv F
  0.250000  0.125000 -0.250000    0.00195312  20 t-inv F
  0.250000 -0.250000  0.125000    0.00195312  20 t-inv F
  0.250000 -0.125000  0.250000    0.00195312  20 t-inv F
  0.125000 -0.250000  0.250000    0.00195312  20 t-inv F
  0.125000  0.375000  0.250000    0.00195312  21 t-inv F
  0.250000  0.125000  0.375000    0.00195312  21 t-inv F
  0.250000 -0.375000 -0.125000    0.00195312  21 t-inv F
  0.375000 -0.125000 -0.250000    0.00195312  21 t-inv F
  0.125000 -0.250000 -0.375000    0.00195312  21 t-inv F
 -0.375000 -0.250000  0.125000    0.00195312  21 t-inv F
 -0.125000 -0.375000  0.250000    0.00195312  21 t-inv F
 -0.250000 -0.125000  0.375000    0.00195312  21 t-inv F
 -0.250000  0.375000 -0.125000    0.00195312  21 t-inv F
 -0.375000  0.125000 -0.250000    0.00195312  21 t-inv F
 -0.125000  0.250000 -0.375000    0.00195312  21 t-inv F
  0.125000 -0.375000 -0.250000    0.00195312  21 t-inv F
  0.250000 -0.125000 -0.375000    0.00195312  21 t-inv F
  0.375000 -0.250000 -0.125000    0.00195312  21 t-inv F
 -0.125000 -0.250000  0.375000    0.00195312  21 t-inv F
 -0.250000 -0.375000  0.125000    0.00195312  21 t-inv F
 -0.375000 -0.125000  0.250000    0.00195312  21 t-inv F
 -0.250000  0.125000 -0.375000    0.00195312  21 t-inv F
 -0.375000  0.250000 -0.125000    0.00195312  21 t-inv F
 -0.125000  0.375000 -0.250000    0.00195312  21 t-inv F
  0.375000  0.125000  0.250000    0.00195312  21 t-inv F
  0.250000  0.375000  0.125000    0.00195312  21 t-inv F
  0.125000  0.250000  0.375000    0.00195312  21 t-inv F
 -0.375000 -0.250000 -0.125000    0.00195312  21 t-inv F
 -0.125000 -0.375000 -0.250000    0.00195312  21 t-inv F
 -0.250000 -0.125000 -0.375000    0.00195312  21 t-inv F
 -0.250000  0.375000  0.125000    0.00195312  21 t-inv F
 -0.375000  0.125000  0.250000    0.00195312  21 t-inv F
 -0.125000  0.250000  0.375000    0.00195312  21 t-inv F
  0.375000  0.250000 -0.125000    0.00195312  21 t-inv F
  0.125000  0.375000 -0.250000    0.00195312  21 t-inv F
  0.250000  0.125000 -0.375000    0.00195312  21 t-inv F
  0.250000 -0.375000  0.125000    0.00195312  21 t-inv F
  0.375000 -0.125000  0.250000    0.00195312  21 t-inv F
  0.125000 -0.250000  0.375000    0.00195312  21 t-inv F
 -0.125000  0.375000  0.250000    0.00195312  21 t-inv F
 -0.250000  0.125000  0.375000    0.00195312  21 t-inv F
 -0.375000  0.250000  0.125000    0.00195312  21 t-inv F
  0.125000  0.250000 -0.375000    0.00195312  21 t-inv F
  0.250000  0.375000 -0.125000    0.00195312  21 t-inv F
  0.375000  0.125000 -0.250000    0.00195312  21 t-inv F
  0.250000 -0.125000  0.375000    0.00195312  21 t-inv F
  0.375000 -0.250000  0.125000    0.00195312  21 t-inv F
  0.125000 -0.375000  0.250000    0.00195312  21 t-inv F
 -0.375000 -0.125000 -0.250000    0.00195312  21 t-inv F
 -0.250000 -0.375000 -0.125000    0.00195312  21 t-inv F
 -0.125000 -0.250000 -0.375000    0.00195312  21 t-inv F
  0.125000  0.500000  0.250000    0.00195312  22 t-inv F
  0.250000  0.125000  0.500000    0.00195312  22 t-inv F
  0.250000 -0.500000 -0.125000    0.00195312  22 t-inv F
  0.500000 -0.125000 -0.250000    0.00195312  22 t-inv F
  0.125000 -0.250000 -0.500000    0.00195312  22 t-inv F
 -0.500000 -0.250000  0.125000    0.00195312  22 t-inv F
 -0.125000 -0.500000  0.250000    0.00195312  22 t-inv F
 -0.250000 -0.125000  0.500000    0.00195312  22 t-inv F
 -0.250000  0.500000 -0.125000    0.00195312  22 t-inv F
 -0.500000  0.125000 -0.250000    0.00195312  22 t-inv F
 -0.125000  0.250000 -0.500000    0.00195312  22 t-inv F
  0.125000 -0.500000 -0.250000    0.00195312  22 t-inv F
  0.250000 -0.125000 -0.500000    0.00195312  22 t-inv F
  0.500000 -0.250000 -0.125000    0.00195312  22 t-inv F
 -0.125000 -0.250000  0.500000    0.00195312  22 t-inv F
 -0.250000 -0.500000  0.125000    0.00195312  22 t-inv F
 -0.500000 -0.125000  0.250000    0.00195312  22 t-inv F
 -0.250000  0.125000 -0.500000    0.00195312  22 t-inv F
 -0.500000  0.250000 -0.125000    0.00195312  22 t-inv F
 -0.125000  0.500000 -0.250000    0.00195312  22 t-inv F
  0.500000  0.125000  0.250000    0.00195312  22 t-inv F
  0.250000  0.500000  0.125000    0.00195312  22 t-inv F
  0.125000  0.250000  0.500000    0.00195312  22 t-inv F
  0.125000  0.375000  0.375000    0.00195312  23 t-inv F
  0.375000  0.125000  0.375000    0.00195312  23 t-inv F
  0.375000 -0.375000 -0.125000    0.00195312  23 t-inv F
  0.375000 -0.125000 -0.375000    0.00195312  23 t-inv F
  0.125000 -0.375000 -0.375000    0.00195312  23 t-inv F
 -0.375000 -0.375000  0.125000    0.00195312  23 t-inv F
 -0.125000 -0.375000  0.375000    0.00195312  23 t-inv F
 -0.375000 -0.125000  0.375000    0.00195312  23 t-inv F
 -0.375000  0.375000 -0.125000    0.00195312  23 t-inv F
 -0.375000  0.125000 -0.375000    0.00195312  23 t-inv F
 -0.125000  0.375000 -0.375000    0.00195312  23 t-inv F
 -0.375000 -0.375000 -0.125000    0.00195312  23 t-inv F
 -0.125000 -0.375000 -0.375000    0.00195312  23 t-inv F
 -0.375000 -0.125000 -0.375000    0.00195312  23 t-inv F
 -0.375000  0.375000  0.125000    0.00195312  23 t-inv F
 -0.375000  0.125000  0.375000    0.00195312  23 t-inv F
 -0.125000  0.375000  0.375000    0.00195312  23 t-inv F
  0.375000  0.375000 -0.125000    0.00195312  23 t-inv F
  0.125000  0.375000 -0.375000    0.00195312  23 t-inv F
  0.375000  0.125000 -0.375000    0.00195312  23 t-inv F
  0.375000 -0.375000  0.125000    0.00195312  23 t-inv F
  0.375000 -0.125000  0.375000    0.00195312  23 t-inv F
  0.125000 -0.375000  0.375000    0.00195312  23 t-inv F
  0.125000  0.500000  0.375000    0.00195312  24 t-inv F
  0.375000  0.125000  0.500000    0.00195312  24 t-inv F
  0.375000 -0.500000 -0.125000    0.00195312  24 t-inv F
  0.500000 -0.125000 -0.375000    0.00195312  24 t-inv F
  0.125000 -0.375000 -0.500000    0.00195312  24 t-inv F
 -0.500000 -0.375000  0.125000    0.00195312  24 t-inv F
 -0.125000 -0.500000  0.375000    0.00195312  24 t-inv F
 -0.375000 -0.125000  0.500000    0.00195312  24 t-inv F
 -0.375000  0.500000 -0.125000    0.00195312  24 t-inv F
 -0.500000  0.125000 -0.375000    0.00195312  24 t-inv F
 -0.125000  0.375000 -0.500000    0.00195312  24 t-inv F
  0.125000 -0.500000 -0.375000    0.00195312  24 t-inv F
  0.375000 -0.125000 -0.500000    0.00195312  24 t-inv F
  0.500000 -0.375000 -0.125000    0.00195312  24 t-inv F
 -0.125000 -0.375000  0.500000    0.00195312  24 t-inv F
 -0.375000 -0.500000  0.125000    0.00195312  24 t-inv F
 -0.500000 -0.125000  0.375000    0.00195312  24 t-inv F
 -0.375000  0.125000 -0.500000    0.00195312  24 t-inv F
 -0.500000  0.375000 -0.125000    0.00195312  24 t-inv F
 -0.125000  0.500000 -0.375000    0.00195312  24 t-inv F
  0.500000  0.125000  0.375000    0.00195312  24 t-inv F
  0.375000  0.500000  0.125000    0.00195312  24 t-inv F
  0.125000  0.375000  0.500000    0.00195312  24 t-inv F
  0.125000  0.500000  0.500000    0.00195312  25 t-inv F
  0.500000  0.125000  0.500000    0.00195312  25 t-inv F
  0.500000 -0.500000 -0.125000    0.00195312  25 t-inv F
  0.500000 -0.125000 -0.500000    0.00195312  25 t-inv F
 -0.125000 -0.500000  0.500000    0.00195312  25 t-inv F
  0.250000 -0.250000 -0.250000    0.00195312  26 t-inv F
 -0.250000 -0.250000  0.250000    0.00195312  26 t-inv F
 -0.250000  0.250000 -0.250000    0.00195312  26 t-inv F
 -0.250000 -0.250000 -0.250000    0.00195312  26 t-inv F
 -0.250000  0.250000  0.250000    0.00195312  26 t-inv F
  0.250000  0.250000 -0.250000    0.00195312  26 t-inv F
  0.250000 -0.250000  0.250000    0.00195312  26 t-inv F
  0.250000  0.375000  0.250000    0.00195312  27 t-inv F
  0.250000  0.250000  0.375000    0.00195312  27 t-inv F
  0.250000 -0.375000 -0.250000    0.00195312  27 t-inv F
  0.375000 -0.250000 -0.250000    0.00195312  27 t-inv F
  0.250000 -0.250000 -0.375000    0.00195312  27 t-inv F
 -0.375000 -0.250000  0.250000    0.00195312  27 t-inv F
 -0.250000 -0.375000  0.250000    0.00195312  27 t-inv F
 -0.250000 -0.250000  0.375000    0.00195312  27 t-inv F
 -0.250000  0.375000 -0.250000    0.00195312  27 t-inv F
 -0.375000  0.250000 -0.250000    0.00195312  27 t-inv F
 -0.250000  0.250000 -0.375000    0.00195312  27 t-inv F
 -0.375000 -0.250000 -0.250000    0.00195312  27 t-inv F
 -0.250000 -0.375000 -0.250000    0.00195312  27 t-inv F
 -0.250000 -0.250000 -0.375000    0.00195312  27 t-inv F
 -0.250000  0.375000  0.250000    0.00195312  27 t-inv F
 -0.375000  0.250000  0.250000    0.00195312  27 t-inv F
 -0.250000  0.250000  0.375000    0.00195312  27 t-inv F
  0.375000  0.250000 -0.250000    0.00195312  27 t-inv F
  0.250000  0.375000 -0.250000    0.00195312  27 t-inv F
  0.250000  0.250000 -0.375000    0.00195312  27 t-inv F
  0.250000 -0.375000  0.250000    0.00195312  27 t-inv F
  0.375000 -0.250000  0.250000    0.00195312  27 t-inv F
  0.250000 -0.250000  0.375000    0.00195312  27 t-inv F
  0.250000  0.500000  0.250000    0.00195312  28 t-inv F
  0.250000  0.250000  0.500000    0.00195312  28 t-inv F
  0.250000 -0.500000 -0.250000    0.00195312  28 t-inv F
  0.500000 -0.250000 -0.250000    0.00195312  28 t-inv F
  0.250000 -0.250000 -0.500000    0.00195312  28 t-inv F
 -0.500000 -0.250000  0.250000    0.00195312  28 t-inv F
 -0.250000 -0.500000  0.250000    0.00195312  28 t-inv F
 -0.250000 -0.250000  0.500000    0.00195312  28 t-inv F
 -0.250000  0.500000 -0.250000    0.00195312  28 t-inv F
 -0.500000  0.250000 -0.250000    0.00195312  28 t-inv F
 -0.250000  0.250000 -0.500000    0.00195312  28 t-inv F
  0.250000  0.375000  0.375000    0.00195312  29 t-inv F
  0.375000  0.250000  0.375000    0.00195312  29 t-inv F
  0.375000 -0.375000 -0.250000    0.00195312  29 t-inv F
  0.375000 -0.250000 -0.375000    0.00195312  29 t-inv F
  0.250000 -0.375000 -0.375000    0.00195312  29 t-inv F
 -0.375000 -0.375000  0.250000    0.00195312  29 t-inv F
 -0.250000 -0.375000  0.375000    0.00195312  29 t-inv F
 -0.375000 -0.250000  0.375000    0.00195312  29 t-inv F
 -0.375000  0.375000 -0.250000    0.00195312  29 t-inv F
 -0.375000  0.250000 -0.375000    0.00195312  29 t-inv F
 -0.250000  0.375000 -0.375000    0.00195312  29 t-inv F
 -0.375000 -0.375000 -0.250000    0.00195312  29 t-inv F
 -0.250000 -0.375000 -0.375000    0.00195312  29 t-inv F
 -0.375000 -0.250000 -0.375000    0.00195312  29 t-inv F
 -0.375000  0.375000  0.250000    0.00195312  29 t-inv F
 -0.375000  0.250000  0.375000    0.00195312  29 t-inv F
 -0.250000  0.375000  0.375000    0.00195312  29 t-inv F
  0.375000  0.375000 -0.250000    0.00195312  29 t-inv F
  0.250000  0.375000 -0.375000    0.00195312  29 t-inv F
  0.375000  0.250000 -0.375000    0.00195312  29 t-inv F
  0.375000 -0.375000  0.250000    0.00195312  29 t-inv F
  0.375000 -0.250000  0.375000    0.00195312  29 t-inv F
  0.250000 -0.375000  0.375000    0.00195312  29 t-inv F
  0.250000  0.500000  0.375000    0.00195312  30 t-inv F
  0.375000  0.250000  0.500000    0.00195312  30 t-inv F
  0.375000 -0.500000 -0.250000    0.00195312  30 t-inv F
  0.500000 -0.250000 -0.375000    0.00195312  30 t-inv F
  0.250000 -0.375000 -0.500000    0.00195312  30 t-inv F
 -0.500000 -0.375000  0.250000    0.00195312  30 t-inv F
 -0.250000 -0.500000  0.375000    0.00195312  30 t-inv F
 -0.375000 -0.250000  0.500000    0.00195312  30 t-inv F
 -0.375000  0.500000 -0.250000    0.00195312  30 t-inv F
 -0.500000  0.250000 -0.375000    0.00195312  30 t-inv F
 -0.250000  0.375000 -0.500000    0.00195312  30 t-inv F
  0.250000 -0.500000 -0.375000    0.00195312  30 t-inv F
  0.375000 -0.250000 -0.500000    0.00195312  30 t-inv F
  0.500000 -0.375000 -0.250000    0.00195312  30 t-inv F
 -0.250000 -0.375000  0.500000    0.00195312  30 t-inv F
 -0.375000 -0.500000  0.250000    0.00195312  30 t-inv F
 -0.500000 -0.250000  0.375000    0.00195312  30 t-inv F
 -0.375000  0.250000 -0.500000    0.00195312  30 t-inv F
 -0.500000  0.375000 -0.250000    0.00195312  30 t-inv F
 -0.250000  0.500000 -0.375000    0.00195312  30 t-inv F
  0.500000  0.250000  0.375000    0.00195312  30 t-inv F
  0.375000  0.500000  0.250000    0.00195312  30 t-inv F
  0.250000  0.375000  0.500000    0.00195312  30 t-inv F
  0.250000  0.500000  0.500000    0.00195312  31 t-inv F
  0.500000  0.250000  0.500000    0.00195312  31 t-inv F
  0.500000 -0.500000 -0.250000    0.00195312  31 t-inv F
  0.500000 -0.250000 -0.500000    0.00195312  31 t-inv F
 -0.250000 -0.500000  0.500000    0.00195312  31 t-inv F
  0.375000 -0.375000 -0.375000    0.00195312  32 t-inv F
 -0.375000 -0.375000  0.375000    0.00195312  32 t-inv F
 -0.375000  0.375000 -0.375000    0.00195312  32 t-inv F
 -0.375000 -0.375000 -0.375000    0.00195312  32 t-inv F
 -0.375000  0.375000  0.375000    0.00195312  32 t-inv F
  0.375000  0.375000 -0.375000    0.00195312  32 t-inv F
  0.375000 -0.375000  0.375000    0.00195312  32 t-inv F
  0.375000  0.500000  0.375000    0.00195312  33 t-inv F
  0.375000  0.375000  0.500000    0.00195312  33 t-inv F
  0.375000 -0.500000 -0.375000    0.00195312  33 t-inv F
  0.500000 -0.375000 -0.375000    0.00195312  33 t-inv F
  0.375000 -0.375000 -0.500000    0.00195312  33 t-inv F
 -0.500000 -0.375000  0.375000    0.00195312  33 t-inv F
 -0.375000 -0.500000  0.375000    0.00195312  33 t-inv F
 -0.375000 -0.375000  0.500000    0.00195312  33 t-inv F
 -0.375000  0.500000 -0.375000    0.00195312  33 t-inv F
 -0.500000  0.375000 -0.375000    0.00195312  33 t-inv F
 -0.375000  0.375000 -0.500000    0.00195312  33 t-inv F
  0.375000  0.500000  0.500000    0.00195312  34 t-inv F
  0.500000  0.375000  0.500000    0.00195312  34 t-inv F
  0.500000 -0.500000 -0.375000    0.00195312  34 t-inv F
  0.500000 -0.375000 -0.500000    0.00195312  34 t-inv F
 -0.375000 -0.500000  0.500000    0.00195312  34 t-inv F


--------------------------------------------------------------------------------------------------------




 Dimension of arrays:
   k-points           NKPTS =     35   k-points in BZ     NKDIM =     35   number of bands    NBANDS=    192
   number of dos      NEDOS =    301   number of ions     NIONS =     64
   non local maximal  LDIM  =      4   non local SUM 2l+1 LMDIM =      8
   total plane-waves  NPLWV = 110592
   max r-space proj   IRMAX =      1   max aug-charges    IRDMAX=  28790
   dimension x,y,z NGX =    48 NGY =   48 NGZ =   48
   dimension x,y,z NGXF=    96 NGYF=   96 NGZF=   96
   support grid    NGXF=   192 NGYF=  192 NGZF=  192
   ions per type =              64
   NGX,Y,Z   is equivalent  to a cutoff of  11.16, 11.16, 11.16 a.u.
   NGXF,Y,Z  is equivalent  to a cutoff of  22.33, 22.33, 22.33 a.u.

 SYSTEM =  unknown system                          
 POSCAR =  generated by phonopy                    

 Startparameter for this run:
   NWRITE =      2    write-flag & timer
   PREC   = accura    normal or accurate (medium, high low for compatibility)
   ISTART =      0    job   : 0-new  1-cont  2-samecut
   ICHARG =      2    charge: 1-file 2-atom 10-const
   ISPIN  =      1    spin polarized calculation?
   LNONCOLLINEAR =      F non collinear calculations
   LSORBIT =      F    spin-orbit coupling
   INIWAV =      1    electr: 0-lowe 1-rand  2-diag
   LASPH  =      F    aspherical Exc in radial PAW
   METAGGA=      F    non-selfconsistent MetaGGA calc.

 Electronic Relaxation 1
   ENCUT  =  400.0 eV  29.40 Ry    5.42 a.u.  11.66 11.66 11.66*2*pi/ulx,y,z
   ENINI  =  400.0     initial cutoff
   ENAUG  =  644.9 eV  augmentation charge cutoff
   NELM   =     60;   NELMIN=  2; NELMDL= -5     # of ELM steps 
   EDIFF  = 0.1E-07   stopping-criterion for ELM
   LREAL  =      F    real-space projection
   NLSPLINE    = F    spline interpolate recip. space projectors
   LCOMPAT=      F    compatible to vasp.4.4
   GGA_COMPAT  = T    GGA compatible to vasp.4.4-vasp.4.6
   LMAXPAW     = -100 max onsite density
   LMAXMIX     =    2 max onsite mixed and CHGCAR
   VOSKOWN=      0    Vosko Wilk Nusair interpolation
   ROPT   =    0.00000
 Ionic relaxation
   EDIFFG = 0.1E-06   stopping-criterion for IOM
   NSW    =      1    number of steps for IOM
   NBLOCK =      1;   KBLOCK =      1    inner block; outer block 
   IBRION =      8    ionic relax: 0-MD 1-quasi-New 2-CG
   NFREE  =      0    steps in history (QN), initial steepest desc. (CG)
   ISIF   =      2    stress and relaxation
   IWAVPR =     11    prediction:  0-non 1-charg 2-wave 3-comb
   ISYM   =      2    0-nonsym 1-usesym 2-fastsym
   LCORR  =      T    Harris-Foulkes like correction to forces

   POTIM  = 0.5000    time-step for ionic-motion
   TEIN   =    0.0    initial temperature
   TEBEG  =    0.0;   TEEND  =   0.0 temperature during run
   SMASS  =  -3.00    Nose mass-parameter (am)
   estimated Nose-frequenzy (Omega)   =  0.10E-29 period in steps =****** mass=  -0.117E-26a.u.
   SCALEE = 1.0000    scale energy and forces
   NPACO  =    256;   APACO  = 16.0  distance and # of slots for P.C.
   PSTRESS=    0.0 pullay stress

  Mass of Ions in am
   POMASS =  12.01
  Ionic Valenz
   ZVAL   =   4.00
  Atomic Wigner-Seitz radii
   RWIGS  =  -1.00
  virtual crystal weights 
   VCA    =   1.00
   NELECT =     256.0000    total number of electrons
   NUPDOWN=      -1.0000    fix difference up-down

 DOS related values:
   EMIN   =  10.00;   EMAX   =-10.00  energy-range for DOS
   EFERMI =   0.00
   ISMEAR =     0;   SIGMA  =   0.06  broadening in eV -4-tet -1-fermi 0-gaus

 Electronic relaxation 2 (details)
   IALGO  =     38    algorithm
   LDIAG  =      T    sub-space diagonalisation (order eigenvalues)
   LSUBROT=      F    optimize rotation matrix (better conditioning)
   TURBO    =      0    0=normal 1=particle mesh
   IRESTART =      0    0=no restart 2=restart with 2 vectors
   NREBOOT  =      0    no. of reboots
   NMIN     =      0    reboot dimension
   EREF     =   0.00    reference energy to select bands
   IMIX   =      4    mixing-type and parameters
     AMIX     =   0.40;   BMIX     =  1.00
     AMIX_MAG =   1.60;   BMIX_MAG =  1.00
     AMIN     =   0.10
     WC   =   100.;   INIMIX=   1;  MIXPRE=   1;  MAXMIX= -45

 Intra band minimization:
   WEIMIN = 0.0010     energy-eigenvalue tresh-hold
   EBREAK =  0.13E-10  absolut break condition
   DEPER  =   0.30     relativ break condition  

   TIME   =   0.40     timestep for ELM

  volume/ion in A,a.u.               =       5.71        38.50
  Fermi-wavevector in a.u.,A,eV,Ry     =   1.454361  2.748344 28.778575  2.115166
  Thomas-Fermi vector in A             =   2.571520
 
 Write flags
   LWAVE        =      F    write WAVECAR
   LDOWNSAMPLE  =      F    k-point downsampling of WAVECAR
   LCHARG       =      F    write CHGCAR
   LVTOT        =      F    write LOCPOT, total local potential
   LVHAR        =      F    write LOCPOT, Hartree potential only
   LELF         =      F    write electronic localiz. function (ELF)
   LORBIT       =      0    0 simple, 1 ext, 2 COOP (PROOUT), +10 PAW based schemes


 Dipole corrections
   LMONO  =      F    monopole corrections only (constant potential shift)
   LDIPOL =      F    correct potential (dipole corrections)
   IDIPOL =      0    1-x, 2-y, 3-z, 4-all directions 
   EPSILON=  1.0000000 bulk dielectric constant

 Exchange correlation treatment:
   GGA     =    --    GGA type
   LEXCH   =     8    internal setting for exchange type
   VOSKOWN=      0    Vosko Wilk Nusair interpolation
   LHFCALC =     F    Hartree Fock is set to
   LHFONE  =     F    Hartree Fock one center treatment
   AEXX    =    0.0000 exact exchange contribution

 Linear response parameters
   LEPSILON=     F    determine dielectric tensor
   LRPA    =     F    only Hartree local field effects (RPA)
   LNABLA  =     F    use nabla operator in PAW spheres
   LVEL    =     F    velocity operator in full k-point grid
   LINTERFAST=   F  fast interpolation
   KINTER  =     0    interpolate to denser k-point grid
   CSHIFT  =0.1000    complex shift for real part using Kramers Kronig
   OMEGAMAX=  -1.0    maximum frequency
   DEG_THRESHOLD= 0.2000000E-02 threshold for treating states as degnerate
   RTIME   =   -0.100 relaxation time in fs
  (WPLASMAI=    0.000 imaginary part of plasma frequency in eV, 0.658/RTIME)
   DFIELD  = 0.0000000 0.0000000 0.0000000 field for delta impulse in time
 
 Orbital magnetization related:
   ORBITALMAG=     F  switch on orbital magnetization
   LCHIMAG   =     F  perturbation theory with respect to B field
   DQ        =  0.001000  dq finite difference perturbation B field
   LLRAUG    =     F  two centre corrections for induced B field



--------------------------------------------------------------------------------------------------------


 linear response using symmetry
 charge density and potential will be updated during run
 non-spin polarized calculation
 Variant of blocked Davidson
 Davidson routine will perform the subspace rotation
 perform sub-space diagonalisation
    after iterative eigenvector-optimisation
 modified Broyden-mixing scheme, WC =      100.0
 initial mixing is a Kerker type mixing with AMIX =  0.4000 and BMIX =      1.0000
 Hartree-type preconditioning will be used
 using additional bands           64
 reciprocal scheme for non local part
 calculate Harris-corrections to forces 
   (improved forces if not selfconsistent)
 use gradient corrections 
 use of overlap-Matrix (Vanderbilt PP)
 Gauss-broadening in eV      SIGMA  =   0.06


--------------------------------------------------------------------------------------------------------


  energy-cutoff  :      400.00
  volume of cell :      365.13
      direct lattice vectors                 reciprocal lattice vectors
     7.147420000  0.000000000  0.000000000     0.139910625  0.000000000  0.000000000
     0.000000000  7.147420000  0.000000000     0.000000000  0.139910625  0.000000000
     0.000000000  0.000000000  7.147420000     0.000000000  0.000000000  0.139910625

  length of vectors
     7.147420000  7.147420000  7.147420000     0.139910625  0.139910625  0.139910625


 
 k-points in units of 2pi/SCALE and weight: kpt_density=3000                        
   0.00000000  0.00000000  0.00000000       0.002
   0.01748883  0.00000000  0.00000000       0.012
   0.03497766  0.00000000  0.00000000       0.012
   0.05246648  0.00000000  0.00000000       0.012
   0.06995531  0.00000000  0.00000000       0.006
   0.01748883  0.01748883  0.00000000       0.023
   0.03497766  0.01748883  0.00000000       0.047
   0.05246648  0.01748883  0.00000000       0.047
   0.06995531  0.01748883  0.00000000       0.023
   0.03497766  0.03497766  0.00000000       0.023
   0.05246648  0.03497766  0.00000000       0.047
   0.06995531  0.03497766  0.00000000       0.023
   0.05246648  0.05246648  0.00000000       0.023
   0.06995531  0.05246648  0.00000000       0.023
   0.06995531  0.06995531  0.00000000       0.006
   0.01748883  0.01748883  0.01748883       0.016
   0.03497766  0.01748883  0.01748883       0.047
   0.05246648  0.01748883  0.01748883       0.047
   0.06995531  0.01748883  0.01748883       0.023
   0.03497766  0.03497766  0.01748883       0.047
   0.05246648  0.03497766  0.01748883       0.094
   0.06995531  0.03497766  0.01748883       0.047
   0.05246648  0.05246648  0.01748883       0.047
   0.06995531  0.05246648  0.01748883       0.047
   0.06995531  0.06995531  0.01748883       0.012
   0.03497766  0.03497766  0.03497766       0.016
   0.05246648  0.03497766  0.03497766       0.047
   0.06995531  0.03497766  0.03497766       0.023
   0.05246648  0.05246648  0.03497766       0.047
   0.06995531  0.05246648  0.03497766       0.047
   0.06995531  0.06995531  0.03497766       0.012
   0.05246648  0.05246648  0.05246648       0.016
   0.06995531  0.05246648  0.05246648       0.023
   0.06995531  0.06995531  0.05246648       0.012
   0.06995531  0.06995531  0.06995531       0.002
 
 k-points in reciprocal lattice and weights: kpt_density=3000                        
   0.00000000  0.00000000  0.00000000       0.002
   0.12500000  0.00000000  0.00000000       0.012
   0.25000000  0.00000000  0.00000000       0.012
   0.37500000  0.00000000  0.00000000       0.012
   0.50000000  0.00000000  0.00000000       0.006
   0.12500000  0.12500000  0.00000000       0.023
   0.25000000  0.12500000  0.00000000       0.047
   0.37500000  0.12500000  0.00000000       0.047
   0.50000000  0.12500000  0.00000000       0.023
   0.25000000  0.25000000  0.00000000       0.023
   0.37500000  0.25000000  0.00000000       0.047
   0.50000000  0.25000000  0.00000000       0.023
   0.37500000  0.37500000  0.00000000       0.023
   0.50000000  0.37500000  0.00000000       0.023
   0.50000000  0.50000000  0.00000000       0.006
   0.12500000  0.12500000  0.12500000       0.016
   0.25000000  0.12500000  0.12500000       0.047
   0.37500000  0.12500000  0.12500000       0.047
   0.50000000  0.12500000  0.12500000       0.023
   0.25000000  0.25000000  0.12500000       0.047
   0.37500000  0.25000000  0.12500000       0.094
   0.50000000  0.25000000  0.12500000       0.047
   0.37500000  0.37500000  0.12500000       0.047
   0.50000000  0.37500000  0.12500000       0.047
   0.50000000  0.50000000  0.12500000       0.012
   0.25000000  0.25000000  0.25000000       0.016
   0.37500000  0.25000000  0.25000000       0.047
   0.50000000  0.25000000  0.25000000       0.023
   0.37500000  0.37500000  0.25000000       0.047
   0.50000000  0.37500000  0.25000000       0.047
   0.50000000  0.50000000  0.25000000       0.012
   0.37500000  0.37500000  0.37500000       0.016
   0.50000000  0.37500000  0.37500000       0.023
   0.50000000  0.50000000  0.37500000       0.012
   0.50000000  0.50000000  0.50000000       0.002
 
 position of ions in fractional coordinates (direct lattice) 
   0.12500000  0.37500000  0.12500000
   0.62500000  0.37500000  0.12500000
   0.12500000  0.87500000  0.12500000
   0.62500000  0.87500000  0.12500000
   0.12500000  0.37500000  0.62500000
   0.62500000  0.37500000  0.62500000
   0.12500000  0.87500000  0.62500000
   0.62500000  0.87500000  0.62500000
   0.00000000  0.00000000  0.25000000
   0.50000000  0.00000000  0.25000000
   0.00000000  0.50000000  0.25000000
   0.50000000  0.50000000  0.25000000
   0.00000000  0.00000000  0.75000000
   0.50000000  0.00000000  0.75000000
   0.00000000  0.50000000  0.75000000
   0.50000000  0.50000000  0.75000000
   0.12500000  0.12500000  0.37500000
   0.62500000  0.12500000  0.37500000
   0.12500000  0.62500000  0.37500000
   0.62500000  0.62500000  0.37500000
   0.12500000  0.12500000  0.87500000
   0.62500000  0.12500000  0.87500000
   0.12500000  0.62500000  0.87500000
   0.62500000  0.62500000  0.87500000
   0.00000000  0.25000000  0.00000000
   0.50000000  0.25000000  0.00000000
   0.00000000  0.75000000  0.00000000
   0.50000000  0.75000000  0.00000000
   0.00000000  0.25000000  0.50000000
   0.50000000  0.25000000  0.50000000
   0.00000000  0.75000000  0.50000000
   0.50000000  0.75000000  0.50000000
   0.37500000  0.37500000  0.37500000
   0.87500000  0.37500000  0.37500000
   0.37500000  0.87500000  0.37500000
   0.87500000  0.87500000  0.37500000
   0.37500000  0.37500000  0.87500000
   0.87500000  0.37500000  0.87500000
   0.37500000  0.87500000  0.87500000
   0.87500000  0.87500000  0.87500000
   0.25000000  0.00000000  0.00000000
   0.75000000  0.00000000  0.00000000
   0.25000000  0.50000000  0.00000000
   0.75000000  0.50000000  0.00000000
   0.25000000  0.00000000  0.50000000
   0.75000000  0.00000000  0.50000000
   0.25000000  0.50000000  0.50000000
   0.75000000  0.50000000  0.50000000
   0.37500000  0.12500000  0.12500000
   0.87500000  0.12500000  0.12500000
   0.37500000  0.62500000  0.12500000
   0.87500000  0.62500000  0.12500000
   0.37500000  0.12500000  0.62500000
   0.87500000  0.12500000  0.62500000
   0.37500000  0.62500000  0.62500000
   0.87500000  0.62500000  0.62500000
   0.25000000  0.25000000  0.25000000
   0.75000000  0.25000000  0.25000000
   0.25000000  0.75000000  0.25000000
   0.75000000  0.75000000  0.25000000
   0.25000000  0.25000000  0.75000000
   0.75000000  0.25000000  0.75000000
   0.25000000  0.75000000  0.75000000
   0.75000000  0.75000000  0.75000000
 
 position of ions in cartesian coordinates  (Angst):
   0.89342750  2.68028250  0.89342750
   4.46713750  2.68028250  0.89342750
   0.89342750  6.25399250  0.89342750
   4.46713750  6.25399250  0.89342750
   0.89342750  2.68028250  4.46713750
   4.46713750  2.68028250  4.46713750
   0.89342750  6.25399250  4.46713750
   4.46713750  6.25399250  4.46713750
   0.00000000  0.00000000  1.78685500
   3.57371000  0.00000000  1.78685500
   0.00000000  3.57371000  1.78685500
   3.57371000  3.57371000  1.78685500
   0.00000000  0.00000000  5.36056500
   3.57371000  0.00000000  5.36056500
   0.00000000  3.57371000  5.36056500
   3.57371000  3.57371000  5.36056500
   0.89342750  0.89342750  2.68028250
   4.46713750  0.89342750  2.68028250
   0.89342750  4.46713750  2.68028250
   4.46713750  4.46713750  2.68028250
   0.89342750  0.89342750  6.25399250
   4.46713750  0.89342750  6.25399250
   0.89342750  4.46713750  6.25399250
   4.46713750  4.46713750  6.25399250
   0.00000000  1.78685500  0.00000000
   3.57371000  1.78685500  0.00000000
   0.00000000  5.36056500  0.00000000
   3.57371000  5.36056500  0.00000000
   0.00000000  1.78685500  3.57371000
   3.57371000  1.78685500  3.57371000
   0.00000000  5.36056500  3.57371000
   3.57371000  5.36056500  3.57371000
   2.68028250  2.68028250  2.68028250
   6.25399250  2.68028250  2.68028250
   2.68028250  6.25399250  2.68028250
   6.25399250  6.25399250  2.68028250
   2.68028250  2.68028250  6.25399250
   6.25399250  2.68028250  6.25399250
   2.68028250  6.25399250  6.25399250
   6.25399250  6.25399250  6.25399250
   1.78685500  0.00000000  0.00000000
   5.36056500  0.00000000  0.00000000
   1.78685500  3.57371000  0.00000000
   5.36056500  3.57371000  0.00000000
   1.78685500  0.00000000  3.57371000
   5.36056500  0.00000000  3.57371000
   1.78685500  3.57371000  3.57371000
   5.36056500  3.57371000  3.57371000
   2.68028250  0.89342750  0.89342750
   6.25399250  0.89342750  0.89342750
   2.68028250  4.46713750  0.89342750
   6.25399250  4.46713750  0.89342750
   2.68028250  0.89342750  4.46713750
   6.25399250  0.89342750  4.46713750
   2.68028250  4.46713750  4.46713750
   6.25399250  4.46713750  4.46713750
   1.78685500  1.78685500  1.78685500
   5.36056500  1.78685500  1.78685500
   1.78685500  5.36056500  1.78685500
   5.36056500  5.36056500  1.78685500
   1.78685500  1.78685500  5.36056500
   5.36056500  1.78685500  5.36056500
   1.78685500  5.36056500  5.36056500
   5.36056500  5.36056500  5.36056500
 


--------------------------------------------------------------------------------------------------------


 k-point  1 :   0.0000 0.0000 0.0000  plane waves:    6619
 k-point  2 :   0.1250 0.0000 0.0000  plane waves:    6651
 k-point  3 :   0.2500 0.0000 0.0000  plane waves:    6655
 k-point  4 :   0.3750 0.0000 0.0000  plane waves:    6624
 k-point  5 :   0.5000 0.0000 0.0000  plane waves:    6568
 k-point  6 :   0.1250 0.1250 0.0000  plane waves:    6655
 k-point  7 :   0.2500 0.1250 0.0000  plane waves:    6656
 k-point  8 :   0.3750 0.1250 0.0000  plane waves:    6624
 k-point  9 :   0.5000 0.1250 0.0000  plane waves:    6626
 k-point 10 :   0.2500 0.2500 0.0000  plane waves:    6640
 k-point 11 :   0.3750 0.2500 0.0000  plane waves:    6646
 k-point 12 :   0.5000 0.2500 0.0000  plane waves:    6630
 k-point 13 :   0.3750 0.3750 0.0000  plane waves:    6636
 k-point 14 :   0.5000 0.3750 0.0000  plane waves:    6628
 k-point 15 :   0.5000 0.5000 0.0000  plane waves:    6632
 k-point 16 :   0.1250 0.1250 0.1250  plane waves:    6658
 k-point 17 :   0.2500 0.1250 0.1250  plane waves:    6665
 k-point 18 :   0.3750 0.1250 0.1250  plane waves:    6629
 k-point 19 :   0.5000 0.1250 0.1250  plane waves:    6634
 k-point 20 :   0.2500 0.2500 0.1250  plane waves:    6628
 k-point 21 :   0.3750 0.2500 0.1250  plane waves:    6634
 k-point 22 :   0.5000 0.2500 0.1250  plane waves:    6630
 k-point 23 :   0.3750 0.3750 0.1250  plane waves:    6623
 k-point 24 :   0.5000 0.3750 0.1250  plane waves:    6614
 k-point 25 :   0.5000 0.5000 0.1250  plane waves:    6612
 k-point 26 :   0.2500 0.2500 0.2500  plane waves:    6637
 k-point 27 :   0.3750 0.2500 0.2500  plane waves:    6623
 k-point 28 :   0.5000 0.2500 0.2500  plane waves:    6608
 k-point 29 :   0.3750 0.3750 0.2500  plane waves:    6636
 k-point 30 :   0.5000 0.3750 0.2500  plane waves:    6636
 k-point 31 :   0.5000 0.5000 0.2500  plane waves:    6632
 k-point 32 :   0.3750 0.3750 0.3750  plane waves:    6641
 k-point 33 :   0.5000 0.3750 0.3750  plane waves:    6648
 k-point 34 :   0.5000 0.5000 0.3750  plane waves:    6656
 k-point 35 :   0.5000 0.5000 0.5000  plane waves:    6704

 maximum and minimum number of plane-waves per node :      6704     6568

 maximum number of plane-waves:      6704
 maximum index in each direction: 
   IXMAX=   11   IYMAX=   11   IZMAX=   11
   IXMIN=  -12   IYMIN=  -12   IZMIN=  -12


 serial   3D FFT for wavefunctions
 parallel 3D FFT for charge:
    minimum data exchange during FFTs selected (reduces bandwidth)


 total amount of memory used by VASP MPI-rank0    86772. kBytes
=======================================================================

   base      :      30000. kBytes
   nonl-proj :      21934. kBytes
   fftplans  :       4537. kBytes
   grid      :       5806. kBytes
   one-center:        196. kBytes
   wavefun   :      24299. kBytes
 
     INWAV:  cpu time    0.0004: real time    0.0005
 Broyden mixing: mesh for mixing (old mesh)
   NGX = 23   NGY = 23   NGZ = 23
  (NGX  = 96   NGY  = 96   NGZ  = 96)
  gives a total of  12167 points

 initial charge density was supplied:
 charge density of overlapping atoms calculated
 number of electron     256.0000000 magnetization 
 keeping initial charge density in first step


--------------------------------------------------------------------------------------------------------


 Maximum index for augmentation-charges         1101 (set IRDMAX)


--------------------------------------------------------------------------------------------------------


 First call to EWALD:  gamma=   0.248
 Maximum number of real-space cells 3x 3x 3
 Maximum number of reciprocal cells 3x 3x 3

    FEWALD:  cpu time    0.0091: real time    0.0091


--------------------------------------- Iteration      1(   1)  ---------------------------------------


    POTLOK:  cpu time    0.0645: real time    0.1316
    SETDIJ:  cpu time    0.0449: real time    0.0450
     EDDAV:  cpu time   24.2059: real time   24.2197
       DOS:  cpu time    0.0074: real time    0.0074
    --------------------------------------------
      LOOP:  cpu time   24.3227: real time   24.4039

 eigenvalue-minimisations  : 13440
 total energy-change (2. order) : 0.5061158E+03  (-0.1137138E+05)
 number of electron     256.0000000 magnetization 
 augmentation part      256.0000000 magnetization 

 Free energy of the ion-electron system (eV)
  ---------------------------------------------------
  alpha Z        PSCENC =       914.03733045
  Ewald energy   TEWEN  =    -11113.15822455
  -Hartree energ DENC   =      -567.74745993
  -exchange      EXHF   =         0.00000000
  -V(xc)+E(xc)   XCENC  =       913.89076582
  PAW double counting   =      2421.21235816    -2494.84305711
  entropy T*S    EENTRO =        -0.01308046
  eigenvalues    EBANDS =      1016.59487778
  atomic energy  EATOM  =      9416.14232778
  Solvation  Ediel_sol  =         0.00000000
  ---------------------------------------------------
  free energy    TOTEN  =       506.11583792 eV

  energy without entropy =      506.12891839  energy(sigma->0) =      506.12237816


--------------------------------------------------------------------------------------------------------




--------------------------------------- Iteration      1(   2)  ---------------------------------------


     EDDAV:  cpu time   29.3768: real time   29.3788
       DOS:  cpu time    0.0045: real time    0.0045
    --------------------------------------------
      LOOP:  cpu time   29.3813: real time   29.3832

 eigenvalue-minimisations  : 17696
 total energy-change (2. order) :-0.1066547E+04  (-0.1016804E+04)
 number of electron     256.0000000 magnetization 
 augmentation part      256.0000000 magnetization 

 Free energy of the ion-electron system (eV)
  ---------------------------------------------------
  alpha Z        PSCENC =       914.03733045
  Ewald energy   TEWEN  =    -11113.15822455
  -Hartree energ DENC   =      -567.74745993
  -exchange      EXHF   =         0.00000000
  -V(xc)+E(xc)   XCENC  =       913.89076582
  PAW double counting   =      2421.21235816    -2494.84305711
  entropy T*S    EENTRO =        -0.00000000
  eigenvalues    EBANDS =       -49.96557928
  atomic energy  EATOM  =      9416.14232778
  Solvation  Ediel_sol  =         0.00000000
  ---------------------------------------------------
  free energy    TOTEN  =      -560.43153867 eV

  energy without entropy =     -560.43153867  energy(sigma->0) =     -560.43153867


--------------------------------------------------------------------------------------------------------




--------------------------------------- Iteration      1(   3)  ---------------------------------------


     EDDAV:  cpu time   30.7695: real time   30.7716
       DOS:  cpu time    0.0054: real time    0.0054
    --------------------------------------------
      LOOP:  cpu time   30.7750: real time   30.7771

 eigenvalue-minimisations  : 17824
 total energy-change (2. order) :-0.4102275E+02  (-0.4077679E+02)
 number of electron     256.0000000 magnetization 
 augmentation part      256.0000000 magnetization 

 Free energy of the ion-electron system (eV)
  ---------------------------------------------------
  alpha Z        PSCENC =       914.03733045
  Ewald energy   TEWEN  =    -11113.15822455
  -Hartree energ DENC   =      -567.74745993
  -exchange      EXHF   =         0.00000000
  -V(xc)+E(xc)   XCENC  =       913.89076582
  PAW double counting   =      2421.21235816    -2494.84305711
  entropy T*S    EENTRO =        -0.00000000
  eigenvalues    EBANDS =       -90.98832493
  atomic energy  EATOM  =      9416.14232778
  Solvation  Ediel_sol  =         0.00000000
  ---------------------------------------------------
  free energy    TOTEN  =      -601.45428432 eV

  energy without entropy =     -601.45428432  energy(sigma->0) =     -601.45428432


--------------------------------------------------------------------------------------------------------




--------------------------------------- Iteration      1(   4)  ---------------------------------------


     EDDAV:  cpu time   30.4755: real time   30.4775
       DOS:  cpu time    0.0049: real time    0.0049
    --------------------------------------------
      LOOP:  cpu time   30.4805: real time   30.4824

 eigenvalue-minimisations  : 17824
 total energy-change (2. order) :-0.4421585E+00  (-0.4412009E+00)
 number of electron     256.0000000 magnetization 
 augmentation part      256.0000000 magnetization 

 Free energy of the ion-electron system (eV)
  ---------------------------------------------------
  alpha Z        PSCENC =       914.03733045
  Ewald energy   TEWEN  =    -11113.15822455
  -Hartree energ DENC   =      -567.74745993
  -exchange      EXHF   =         0.00000000
  -V(xc)+E(xc)   XCENC  =       913.89076582
  PAW double counting   =      2421.21235816    -2494.84305711
  entropy T*S    EENTRO =        -0.00000000
  eigenvalues    EBANDS =       -91.43048338
  atomic energy  EATOM  =      9416.14232778
  Solvation  Ediel_sol  =         0.00000000
  ---------------------------------------------------
  free energy    TOTEN  =      -601.89644278 eV

  energy without entropy =     -601.89644278  energy(sigma->0) =     -601.89644278


--------------------------------------------------------------------------------------------------------




--------------------------------------- Iteration      1(   5)  ---------------------------------------


     EDDAV:  cpu time   29.2420: real time   29.2441
       DOS:  cpu time    0.0039: real time    0.0039
    CHARGE:  cpu time    0.7283: real time    0.7285
    MIXING:  cpu time    0.0041: real time    0.0041
    --------------------------------------------
      LOOP:  cpu time   29.9783: real time   29.9805

 eigenvalue-minimisations  : 16896
 total energy-change (2. order) :-0.9470176E-02  (-0.9466014E-02)
 number of electron     255.9999993 magnetization 
 augmentation part        6.2756936 magnetization 

 Broyden mixing:
  rms(total) = 0.26690E+01    rms(broyden)= 0.26685E+01
  rms(prec ) = 0.39090E+01
  weight for this iteration     100.00

 Free energy of the ion-electron system (eV)
  ---------------------------------------------------
  alpha Z        PSCENC =       914.03733045
  Ewald energy   TEWEN  =    -11113.15822455
  -Hartree energ DENC   =      -567.74745993
  -exchange      EXHF   =         0.00000000
  -V(xc)+E(xc)   XCENC  =       913.89076582
  PAW double counting   =      2421.21235816    -2494.84305711
  entropy T*S    EENTRO =        -0.00000000
  eigenvalues    EBANDS =       -91.43995356
  atomic energy  EATOM  =      9416.14232778
  Solvation  Ediel_sol  =         0.00000000
  ---------------------------------------------------
  free energy    TOTEN  =      -601.90591295 eV

  energy without entropy =     -601.90591295  energy(sigma->0) =     -601.90591295


--------------------------------------------------------------------------------------------------------




--------------------------------------- Iteration      1(   6)  ---------------------------------------


    POTLOK:  cpu time    0.0580: real time    0.0586
    SETDIJ:  cpu time    0.0402: real time    0.0402
     EDDAV:  cpu time   27.6294: real time   27.6309
       DOS:  cpu time    0.0037: real time    0.0037
    CHARGE:  cpu time    0.7231: real time    0.7231
    MIXING:  cpu time    0.0042: real time    0.0042
    --------------------------------------------
      LOOP:  cpu time   28.4587: real time   28.4608

 eigenvalue-minimisations  : 15776
 total energy-change (2. order) : 0.1492830E+02  (-0.9869762E+00)
 number of electron     255.9999993 magnetization 
 augmentation part        6.1301718 magnetization 

 Broyden mixing:
  rms(total) = 0.14643E+01    rms(broyden)= 0.14642E+01
  rms(prec ) = 0.21253E+01
  weight for this iteration     100.00

 eigenvalues of (default mixing * dielectric matrix)
[...]
      4.467137  0.893428  6.253993    -0.025620   -0.027774    0.018484  
      0.893428  4.467137  6.253993    -0.030228    0.220713   -0.018484  
      4.467137  4.467137  6.253993    -0.030228   -0.027774    0.024356  
      0.000000  1.786855  0.000000    -0.022243    0.117513    0.054094  
      3.573710  1.786855  0.000000    -0.022243    0.019832    0.015302  
      0.000000  5.360565  0.000000    -0.039920    0.117513   -0.015302  
      3.573710  5.360565  0.000000    -0.039920    0.019832   -0.054094  
      0.000000  1.786855  3.573710     0.039920   -0.019832    0.054094  
      3.573710  1.786855  3.573710     0.039920   -0.117513    0.015302  
      0.000000  5.360565  3.573710     0.022243   -0.019832   -0.015302  
      3.573710  5.360565  3.573710     0.022243   -0.117513   -0.054094  
      2.680283  2.680283  2.680283     0.025617   -0.050353    0.042891  
      6.253993  2.680283  2.680283     0.025617   -0.142586    0.065621  
      2.680283  6.253993  2.680283     0.030231   -0.050353   -0.065621  
      6.253993  6.253993  2.680283     0.030231   -0.142586   -0.042891  
      2.680283  2.680283  6.253993    -0.030231    0.142586    0.042891  
      6.253993  2.680283  6.253993    -0.030231    0.050353    0.065621  
      2.680283  6.253993  6.253993    -0.025617    0.142586   -0.065621  
      6.253993  6.253993  6.253993    -0.025617    0.050353   -0.042891  
      1.786855  0.000000  0.000000    -0.019967    0.187776   -0.074162  
      5.360565  0.000000  0.000000    -0.019967   -0.050431   -0.004765  
      1.786855  3.573710  0.000000    -0.042196    0.187776    0.004765  
      5.360565  3.573710  0.000000    -0.042196   -0.050431    0.074162  
      1.786855  0.000000  3.573710     0.042196    0.050431   -0.074162  
      5.360565  0.000000  3.573710     0.042196   -0.187776   -0.004765  
      1.786855  3.573710  3.573710     0.019967    0.050431    0.004765  
      5.360565  3.573710  3.573710     0.019967   -0.187776    0.074162  
      2.680283  0.893428  0.893428     0.007786    0.041688   -0.014301  
      6.253993  0.893428  0.893428     0.007786   -0.050545    0.008429  
      2.680283  4.467137  0.893428     0.003179    0.041688   -0.008429  
      6.253993  4.467137  0.893428     0.003179   -0.050545    0.014301  
      2.680283  0.893428  4.467137    -0.003179    0.050545   -0.014301  
      6.253993  0.893428  4.467137    -0.003179   -0.041688    0.008429  
      2.680283  4.467137  4.467137    -0.007786    0.050545   -0.008429  
      6.253993  4.467137  4.467137    -0.007786   -0.041688    0.014301  
      1.786855  1.786855  1.786855     0.017662    0.052952   -0.000000  
      5.360565  1.786855  1.786855     0.017662   -0.185255    0.069397  
      1.786855  5.360565  1.786855    -0.000016    0.052952   -0.069397  
      5.360565  5.360565  1.786855    -0.000016   -0.185255    0.000000  
      1.786855  1.786855  5.360565     0.000016    0.185255   -0.000000  
      5.360565  1.786855  5.360565     0.000016   -0.052952    0.069397  
      1.786855  5.360565  5.360565    -0.017662    0.185255   -0.069397  
      5.360565  5.360565  5.360565    -0.017662   -0.052952    0.000000  
 
 190 f/i=    0.000004 THz     0.000027 2PiTHz    0.000144 cm-1     0.000018 meV
             X         Y         Z           dx          dy          dz
      0.893428  2.680283  0.893428    -0.000089    0.000241    0.125000  
      4.467137  2.680283  0.893428    -0.000089    0.000241    0.125000  
      0.893428  6.253993  0.893428    -0.000089    0.000241    0.125000  
      4.467137  6.253993  0.893428    -0.000089    0.000241    0.125000  
      0.893428  2.680283  4.467137    -0.000089    0.000241    0.125000  
      4.467137  2.680283  4.467137    -0.000089    0.000241    0.125000  
      0.893428  6.253993  4.467137    -0.000089    0.000241    0.125000  
      4.467137  6.253993  4.467137    -0.000089    0.000241    0.125000  
      0.000000  0.000000  1.786855    -0.000089    0.000241    0.125000  
      3.573710  0.000000  1.786855    -0.000089    0.000241    0.125000  
      0.000000  3.573710  1.786855    -0.000089    0.000241    0.125000  
      3.573710  3.573710  1.786855    -0.000089    0.000241    0.125000  
      0.000000  0.000000  5.360565    -0.000089    0.000241    0.125000  
      3.573710  0.000000  5.360565    -0.000089    0.000241    0.125000  
      0.000000  3.573710  5.360565    -0.000089    0.000241    0.125000  
      3.573710  3.573710  5.360565    -0.000089    0.000241    0.125000  
      0.893428  0.893428  2.680283    -0.000089    0.000241    0.125000  
      4.467137  0.893428  2.680283    -0.000089    0.000241    0.125000  
      0.893428  4.467137  2.680283    -0.000089    0.000241    0.125000  
      4.467137  4.467137  2.680283    -0.000089    0.000241    0.125000  
      0.893428  0.893428  6.253993    -0.000089    0.000241    0.125000  
      4.467137  0.893428  6.253993    -0.000089    0.000241    0.125000  
      0.893428  4.467137  6.253993    -0.000089    0.000241    0.125000  
      4.467137  4.467137  6.253993    -0.000089    0.000241    0.125000  
      0.000000  1.786855  0.000000    -0.000089    0.000241    0.125000  
      3.573710  1.786855  0.000000    -0.000089    0.000241    0.125000  
      0.000000  5.360565  0.000000    -0.000089    0.000241    0.125000  
      3.573710  5.360565  0.000000    -0.000089    0.000241    0.125000  
      0.000000  1.786855  3.573710    -0.000089    0.000241    0.125000  
      3.573710  1.786855  3.573710    -0.000089    0.000241    0.125000  
      0.000000  5.360565  3.573710    -0.000089    0.000241    0.125000  
      3.573710  5.360565  3.573710    -0.000089    0.000241    0.125000  
      2.680283  2.680283  2.680283    -0.000089    0.000241    0.125000  
      6.253993  2.680283  2.680283    -0.000089    0.000241    0.125000  
      2.680283  6.253993  2.680283    -0.000089    0.000241    0.125000  
      6.253993  6.253993  2.680283    -0.000089    0.000241    0.125000  
      2.680283  2.680283  6.253993    -0.000089    0.000241    0.125000  
      6.253993  2.680283  6.253993    -0.000089    0.000241    0.125000  
      2.680283  6.253993  6.253993    -0.000089    0.000241    0.125000  
      6.253993  6.253993  6.253993    -0.000089    0.000241    0.125000  
      1.786855  0.000000  0.000000    -0.000089    0.000241    0.125000  
      5.360565  0.000000  0.000000    -0.000089    0.000241    0.125000  
      1.786855  3.573710  0.000000    -0.000089    0.000241    0.125000  
      5.360565  3.573710  0.000000    -0.000089    0.000241    0.125000  
      1.786855  0.000000  3.573710    -0.000089    0.000241    0.125000  
      5.360565  0.000000  3.573710    -0.000089    0.000241    0.125000  
      1.786855  3.573710  3.573710    -0.000089    0.000241    0.125000  
      5.360565  3.573710  3.573710    -0.000089    0.000241    0.125000  
      2.680283  0.893428  0.893428    -0.000089    0.000241    0.125000  
      6.253993  0.893428  0.893428    -0.000089    0.000241    0.125000  
      2.680283  4.467137  0.893428    -0.000089    0.000241    0.125000  
      6.253993  4.467137  0.893428    -0.000089    0.000241    0.125000  
      2.680283  0.893428  4.467137    -0.000089    0.000241    0.125000  
      6.253993  0.893428  4.467137    -0.000089    0.000241    0.125000  
      2.680283  4.467137  4.467137    -0.000089    0.000241    0.125000  
      6.253993  4.467137  4.467137    -0.000089    0.000241    0.125000  
      1.786855  1.786855  1.786855    -0.000089    0.000241    0.125000  
      5.360565  1.786855  1.786855    -0.000089    0.000241    0.125000  
      1.786855  5.360565  1.786855    -0.000089    0.000241    0.125000  
      5.360565  5.360565  1.786855    -0.000089    0.000241    0.125000  
      1.786855  1.786855  5.360565    -0.000089    0.000241    0.125000  
      5.360565  1.786855  5.360565    -0.000089    0.000241    0.125000  
      1.786855  5.360565  5.360565    -0.000089    0.000241    0.125000  
      5.360565  5.360565  5.360565    -0.000089    0.000241    0.125000  
 
 191 f/i=    0.000004 THz     0.000027 2PiTHz    0.000144 cm-1     0.000018 meV
             X         Y         Z           dx          dy          dz
      0.893428  2.680283  0.893428    -0.119227   -0.037548   -0.000013  
      4.467137  2.680283  0.893428    -0.119227   -0.037548   -0.000013  
      0.893428  6.253993  0.893428    -0.119227   -0.037548   -0.000013  
      4.467137  6.253993  0.893428    -0.119227   -0.037548   -0.000013  
      0.893428  2.680283  4.467137    -0.119227   -0.037548   -0.000013  
      4.467137  2.680283  4.467137    -0.119227   -0.037548   -0.000013  
      0.893428  6.253993  4.467137    -0.119227   -0.037548   -0.000013  
      4.467137  6.253993  4.467137    -0.119227   -0.037548   -0.000013  
      0.000000  0.000000  1.786855    -0.119227   -0.037548   -0.000013  
      3.573710  0.000000  1.786855    -0.119227   -0.037548   -0.000013  
      0.000000  3.573710  1.786855    -0.119227   -0.037548   -0.000013  
      3.573710  3.573710  1.786855    -0.119227   -0.037548   -0.000013  
      0.000000  0.000000  5.360565    -0.119227   -0.037548   -0.000013  
      3.573710  0.000000  5.360565    -0.119227   -0.037548   -0.000013  
      0.000000  3.573710  5.360565    -0.119227   -0.037548   -0.000013  
      3.573710  3.573710  5.360565    -0.119227   -0.037548   -0.000013  
      0.893428  0.893428  2.680283    -0.119227   -0.037548   -0.000013  
      4.467137  0.893428  2.680283    -0.119227   -0.037548   -0.000013  
      0.893428  4.467137  2.680283    -0.119227   -0.037548   -0.000013  
      4.467137  4.467137  2.680283    -0.119227   -0.037548   -0.000013  
      0.893428  0.893428  6.253993    -0.119227   -0.037548   -0.000013  
      4.467137  0.893428  6.253993    -0.119227   -0.037548   -0.000013  
      0.893428  4.467137  6.253993    -0.119227   -0.037548   -0.000013  
      4.467137  4.467137  6.253993    -0.119227   -0.037548   -0.000013  
      0.000000  1.786855  0.000000    -0.119227   -0.037548   -0.000013  
      3.573710  1.786855  0.000000    -0.119227   -0.037548   -0.000013  
      0.000000  5.360565  0.000000    -0.119227   -0.037548   -0.000013  
      3.573710  5.360565  0.000000    -0.119227   -0.037548   -0.000013  
      0.000000  1.786855  3.573710    -0.119227   -0.037548   -0.000013  
      3.573710  1.786855  3.573710    -0.119227   -0.037548   -0.000013  
      0.000000  5.360565  3.573710    -0.119227   -0.037548   -0.000013  
      3.573710  5.360565  3.573710    -0.119227   -0.037548   -0.000013  
      2.680283  2.680283  2.680283    -0.119227   -0.037548   -0.000013  
      6.253993  2.680283  2.680283    -0.119227   -0.037548   -0.000013  
      2.680283  6.253993  2.680283    -0.119227   -0.037548   -0.000013  
      6.253993  6.253993  2.680283    -0.119227   -0.037548   -0.000013  
      2.680283  2.680283  6.253993    -0.119227   -0.037548   -0.000013  
      6.253993  2.680283  6.253993    -0.119227   -0.037548   -0.000013  
      2.680283  6.253993  6.253993    -0.119227   -0.037548   -0.000013  
      6.253993  6.253993  6.253993    -0.119227   -0.037548   -0.000013  
      1.786855  0.000000  0.000000    -0.119227   -0.037548   -0.000013  
      5.360565  0.000000  0.000000    -0.119227   -0.037548   -0.000013  
      1.786855  3.573710  0.000000    -0.119227   -0.037548   -0.000013  
      5.360565  3.573710  0.000000    -0.119227   -0.037548   -0.000013  
      1.786855  0.000000  3.573710    -0.119227   -0.037548   -0.000013  
      5.360565  0.000000  3.573710    -0.119227   -0.037548   -0.000013  
      1.786855  3.573710  3.573710    -0.119227   -0.037548   -0.000013  
      5.360565  3.573710  3.573710    -0.119227   -0.037548   -0.000013  
      2.680283  0.893428  0.893428    -0.119227   -0.037548   -0.000013  
      6.253993  0.893428  0.893428    -0.119227   -0.037548   -0.000013  
      2.680283  4.467137  0.893428    -0.119227   -0.037548   -0.000013  
      6.253993  4.467137  0.893428    -0.119227   -0.037548   -0.000013  
      2.680283  0.893428  4.467137    -0.119227   -0.037548   -0.000013  
      6.253993  0.893428  4.467137    -0.119227   -0.037548   -0.000013  
      2.680283  4.467137  4.467137    -0.119227   -0.037548   -0.000013  
      6.253993  4.467137  4.467137    -0.119227   -0.037548   -0.000013  
      1.786855  1.786855  1.786855    -0.119227   -0.037548   -0.000013  
      5.360565  1.786855  1.786855    -0.119227   -0.037548   -0.000013  
      1.786855  5.360565  1.786855    -0.119227   -0.037548   -0.000013  
      5.360565  5.360565  1.786855    -0.119227   -0.037548   -0.000013  
      1.786855  1.786855  5.360565    -0.119227   -0.037548   -0.000013  
      5.360565  1.786855  5.360565    -0.119227   -0.037548   -0.000013  
      1.786855  5.360565  5.360565    -0.119227   -0.037548   -0.000013  
      5.360565  5.360565  5.360565    -0.119227   -0.037548   -0.000013  
 
 192 f/i=    0.000005 THz     0.000031 2PiTHz    0.000162 cm-1     0.000020 meV
             X         Y         Z           dx          dy          dz
      0.893428  2.680283  0.893428    -0.037548    0.119227   -0.000257  
      4.467137  2.680283  0.893428    -0.037548    0.119227   -0.000257  
      0.893428  6.253993  0.893428    -0.037548    0.119227   -0.000257  
      4.467137  6.253993  0.893428    -0.037548    0.119227   -0.000257  
      0.893428  2.680283  4.467137    -0.037548    0.119227   -0.000257  
      4.467137  2.680283  4.467137    -0.037548    0.119227   -0.000257  
      0.893428  6.253993  4.467137    -0.037548    0.119227   -0.000257  
      4.467137  6.253993  4.467137    -0.037548    0.119227   -0.000257  
      0.000000  0.000000  1.786855    -0.037548    0.119227   -0.000257  
      3.573710  0.000000  1.786855    -0.037548    0.119227   -0.000257  
      0.000000  3.573710  1.786855    -0.037548    0.119227   -0.000257  
      3.573710  3.573710  1.786855    -0.037548    0.119227   -0.000257  
      0.000000  0.000000  5.360565    -0.037548    0.119227   -0.000257  
      3.573710  0.000000  5.360565    -0.037548    0.119227   -0.000257  
      0.000000  3.573710  5.360565    -0.037548    0.119227   -0.000257  
      3.573710  3.573710  5.360565    -0.037548    0.119227   -0.000257  
      0.893428  0.893428  2.680283    -0.037548    0.119227   -0.000257  
      4.467137  0.893428  2.680283    -0.037548    0.119227   -0.000257  
      0.893428  4.467137  2.680283    -0.037548    0.119227   -0.000257  
      4.467137  4.467137  2.680283    -0.037548    0.119227   -0.000257  
      0.893428  0.893428  6.253993    -0.037548    0.119227   -0.000257  
      4.467137  0.893428  6.253993    -0.037548    0.119227   -0.000257  
      0.893428  4.467137  6.253993    -0.037548    0.119227   -0.000257  
      4.467137  4.467137  6.253993    -0.037548    0.119227   -0.000257  
      0.000000  1.786855  0.000000    -0.037548    0.119227   -0.000257  
      3.573710  1.786855  0.000000    -0.037548    0.119227   -0.000257  
      0.000000  5.360565  0.000000    -0.037548    0.119227   -0.000257  
      3.573710  5.360565  0.000000    -0.037548    0.119227   -0.000257  
      0.000000  1.786855  3.573710    -0.037548    0.119227   -0.000257  
      3.573710  1.786855  3.573710    -0.037548    0.119227   -0.000257  
      0.000000  5.360565  3.573710    -0.037548    0.119227   -0.000257  
      3.573710  5.360565  3.573710    -0.037548    0.119227   -0.000257  
      2.680283  2.680283  2.680283    -0.037548    0.119227   -0.000257  
      6.253993  2.680283  2.680283    -0.037548    0.119227   -0.000257  
      2.680283  6.253993  2.680283    -0.037548    0.119227   -0.000257  
      6.253993  6.253993  2.680283    -0.037548    0.119227   -0.000257  
      2.680283  2.680283  6.253993    -0.037548    0.119227   -0.000257  
      6.253993  2.680283  6.253993    -0.037548    0.119227   -0.000257  
      2.680283  6.253993  6.253993    -0.037548    0.119227   -0.000257  
      6.253993  6.253993  6.253993    -0.037548    0.119227   -0.000257  
      1.786855  0.000000  0.000000    -0.037548    0.119227   -0.000257  
      5.360565  0.000000  0.000000    -0.037548    0.119227   -0.000257  
      1.786855  3.573710  0.000000    -0.037548    0.119227   -0.000257  
      5.360565  3.573710  0.000000    -0.037548    0.119227   -0.000257  
      1.786855  0.000000  3.573710    -0.037548    0.119227   -0.000257  
      5.360565  0.000000  3.573710    -0.037548    0.119227   -0.000257  
      1.786855  3.573710  3.573710    -0.037548    0.119227   -0.000257  
      5.360565  3.573710  3.573710    -0.037548    0.119227   -0.000257  
      2.680283  0.893428  0.893428    -0.037548    0.119227   -0.000257  
      6.253993  0.893428  0.893428    -0.037548    0.119227   -0.000257  
      2.680283  4.467137  0.893428    -0.037548    0.119227   -0.000257  
      6.253993  4.467137  0.893428    -0.037548    0.119227   -0.000257  
      2.680283  0.893428  4.467137    -0.037548    0.119227   -0.000257  
      6.253993  0.893428  4.467137    -0.037548    0.119227   -0.000257  
      2.680283  4.467137  4.467137    -0.037548    0.119227   -0.000257  
      6.253993  4.467137  4.467137    -0.037548    0.119227   -0.000257  
      1.786855  1.786855  1.786855    -0.037548    0.119227   -0.000257  
      5.360565  1.786855  1.786855    -0.037548    0.119227   -0.000257  
      1.786855  5.360565  1.786855    -0.037548    0.119227   -0.000257  
      5.360565  5.360565  1.786855    -0.037548    0.119227   -0.000257  
      1.786855  1.786855  5.360565    -0.037548    0.119227   -0.000257  
      5.360565  1.786855  5.360565    -0.037548    0.119227   -0.000257  
      1.786855  5.360565  5.360565    -0.037548    0.119227   -0.000257  
      5.360565  5.360565  5.360565    -0.037548    0.119227   -0.000257  
 


--------------------------------------------------------------------------------------------------------



 ELASTIC MODULI CONTR FROM IONIC RELAXATION (kBar)
 Direction    XX          YY          ZZ          XY          YZ          ZX
 --------------------------------------------------------------------------------
 XX          -0.0000     -0.0000     -0.0000      0.0000      0.0000     -0.0000
 YY          -0.0000     -0.0000     -0.0000      0.0000      0.0000     -0.0000
 ZZ          -0.0000     -0.0000     -0.0000      0.0000      0.0000     -0.0000
 XY           0.0000      0.0000      0.0000    -39.7710     -0.0000     -0.0000
 YZ           0.0000      0.0000      0.0000     -0.0000    -39.7710     -0.0000
 ZX          -0.0000     -0.0000     -0.0000     -0.0000     -0.0000    -39.7710
 --------------------------------------------------------------------------------



--------------------------------------------------------------------------------------------------------


     LOOP+:  cpu time 1678.4590: real time 1678.8506
    4ORBIT:  cpu time    0.0000: real time    0.0000

 total amount of memory used by VASP MPI-rank0    86772. kBytes
=======================================================================

   base      :      30000. kBytes
   nonl-proj :      21934. kBytes
   fftplans  :       4537. kBytes
   grid      :       5806. kBytes
   one-center:        196. kBytes
   wavefun   :      24299. kBytes
 
  
  
 General timing and accounting informations for this job:
 ========================================================
  
                  Total CPU time used (sec):     1692.173
                            User time (sec):     1683.449
                          System time (sec):        8.724
                         Elapsed time (sec):     1692.951
  
                   Maximum memory used (kb):      542888.
                   Average memory used (kb):           0.
  
                          Minor page faults:        39367
                          Major page faults:           35
                 Voluntary context switches:          851
