# Thermal properties / unit cell (natom)

unit:
  temperature:   K
  free_energy:   kJ/mol
  entropy:       J/K/mol
  heat_capacity: J/K/mol

natom: 8    
cutoff_frequency:    0.000
num_modes: 2654208
num_integrated_modes: 2654208

zero_point_energy:     138.1822411
high_T_entropy:        433.7629486

thermal_properties:
- temperature:         0.0000000
  free_energy:       138.1822411
  entropy:             0.0000000
  heat_capacity:       0.0000000
  energy:            138.1822411

- temperature:         2.0000000
  free_energy:       138.1822411
  entropy:             0.0000000
  heat_capacity:       0.0000000
  energy:            138.1822411

- temperature:         4.0000000
  free_energy:       138.1822411
  entropy:             0.0000083
  heat_capacity:       0.0000522
  energy:            138.1822411

- temperature:         6.0000000
  free_energy:       138.1822410
  entropy:             0.0000686
  heat_capacity:       0.0002970
  energy:            138.1822414

- temperature:         8.0000000
  free_energy:       138.1822407
  entropy:             0.0002125
  heat_capacity:       0.0007669
  energy:            138.1822424

- temperature:        10.0000000
  free_energy:       138.1822401
  entropy:             0.0004586
  heat_capacity:       0.0015212
  energy:            138.1822447

- temperature:        12.0000000
  free_energy:       138.1822388
  entropy:             0.0008286
  heat_capacity:       0.0026385
  energy:            138.1822488

- temperature:        14.0000000
  free_energy:       138.1822367
  entropy:             0.0013462
  heat_capacity:       0.0041968
  energy:            138.1822555

- temperature:        16.0000000
  free_energy:       138.1822333
  entropy:             0.0020360
  heat_capacity:       0.0062735
  energy:            138.1822659

- temperature:        18.0000000
  free_energy:       138.1822284
  entropy:             0.0029230
  heat_capacity:       0.0089459
  energy:            138.1822810

- temperature:        20.0000000
  free_energy:       138.1822215
  entropy:             0.0040325
  heat_capacity:       0.0122920
  energy:            138.1823021

- temperature:        22.0000000
  free_energy:       138.1822121
  entropy:             0.0053900
  heat_capacity:       0.0163911
  energy:            138.1823307

- temperature:        24.0000000
  free_energy:       138.1821997
  entropy:             0.0070213
  heat_capacity:       0.0213239
  energy:            138.1823683

- temperature:        26.0000000
  free_energy:       138.1821838
  entropy:             0.0089527
  heat_capacity:       0.0271726
  energy:            138.1824166

- temperature:        28.0000000
  free_energy:       138.1821637
  entropy:             0.0112106
  heat_capacity:       0.0340215
  energy:            138.1824776

- temperature:        30.0000000
  free_energy:       138.1821387
  entropy:             0.0138220
  heat_capacity:       0.0419570
  energy:            138.1825534

- temperature:        32.0000000
  free_energy:       138.1821082
  entropy:             0.0168141
  heat_capacity:       0.0510679
  energy:            138.1826462

- temperature:        34.0000000
  free_energy:       138.1820712
  entropy:             0.0202148
  heat_capacity:       0.0614458
  energy:            138.1827585

- temperature:        36.0000000
  free_energy:       138.1820270
  entropy:             0.0240526
  heat_capacity:       0.0731857
  energy:            138.1828929

- temperature:        38.0000000
  free_energy:       138.1819747
  entropy:             0.0283563
  heat_capacity:       0.0863862
  energy:            138.1830522

- temperature:        40.0000000
  free_energy:       138.1819133
  entropy:             0.0331559
  heat_capacity:       0.1011502
  energy:            138.1832395

- temperature:        42.0000000
  free_energy:       138.1818417
  entropy:             0.0384817
  heat_capacity:       0.1175857
  energy:            138.1834580

- temperature:        44.0000000
  free_energy:       138.1817590
  entropy:             0.0443651
  heat_capacity:       0.1358064
  energy:            138.1837110

- temperature:        46.0000000
  free_energy:       138.1816639
  entropy:             0.0508387
  heat_capacity:       0.1559324
  energy:            138.1840025

- temperature:        48.0000000
  free_energy:       138.1815552
  entropy:             0.0579359
  heat_capacity:       0.1780916
  energy:            138.1843361

- temperature:        50.0000000
  free_energy:       138.1814317
  entropy:             0.0656915
  heat_capacity:       0.2024198
  energy:            138.1847163

- temperature:        52.0000000
  free_energy:       138.1812920
  entropy:             0.0741418
  heat_capacity:       0.2290618
  energy:            138.1851473

- temperature:        54.0000000
  free_energy:       138.1811346
  entropy:             0.0833245
  heat_capacity:       0.2581721
  energy:            138.1856342

- temperature:        56.0000000
  free_energy:       138.1809582
  entropy:             0.0932791
  heat_capacity:       0.2899150
  energy:            138.1861818

- temperature:        58.0000000
  free_energy:       138.1807610
  entropy:             0.1040468
  heat_capacity:       0.3244653
  energy:            138.1867957

- temperature:        60.0000000
  free_energy:       138.1805414
  entropy:             0.1156707
  heat_capacity:       0.3620077
  energy:            138.1874816

- temperature:        62.0000000
  free_energy:       138.1802977
  entropy:             0.1281960
  heat_capacity:       0.4027371
  energy:            138.1882458

- temperature:        64.0000000
  free_energy:       138.1800280
  entropy:             0.1416698
  heat_capacity:       0.4468579
  energy:            138.1890949

- temperature:        66.0000000
  free_energy:       138.1797303
  entropy:             0.1561414
  heat_capacity:       0.4945832
  energy:            138.1900357

- temperature:        68.0000000
  free_energy:       138.1794027
  entropy:             0.1716620
  heat_capacity:       0.5461338
  energy:            138.1910757

- temperature:        70.0000000
  free_energy:       138.1790430
  entropy:             0.1882850
  heat_capacity:       0.6017374
  energy:            138.1922229

- temperature:        72.0000000
  free_energy:       138.1786488
  entropy:             0.2060657
  heat_capacity:       0.6616269
  energy:            138.1934855

- temperature:        74.0000000
  free_energy:       138.1782179
  entropy:             0.2250614
  heat_capacity:       0.7260393
  energy:            138.1948724

- temperature:        76.0000000
  free_energy:       138.1777477
  entropy:             0.2453311
  heat_capacity:       0.7952143
  energy:            138.1963929

- temperature:        78.0000000
  free_energy:       138.1772357
  entropy:             0.2669353
  heat_capacity:       0.8693924
  energy:            138.1980566

- temperature:        80.0000000
  free_energy:       138.1766790
  entropy:             0.2899362
  heat_capacity:       0.9488137
  energy:            138.1998739

- temperature:        82.0000000
  free_energy:       138.1760750
  entropy:             0.3143973
  heat_capacity:       1.0337165
  energy:            138.2018555

- temperature:        84.0000000
  free_energy:       138.1754204
  entropy:             0.3403831
  heat_capacity:       1.1243357
  energy:            138.2040126

- temperature:        86.0000000
  free_energy:       138.1747124
  entropy:             0.3679591
  heat_capacity:       1.2209015
  energy:            138.2063568

- temperature:        88.0000000
  free_energy:       138.1739475
  entropy:             0.3971914
  heat_capacity:       1.3236383
  energy:            138.2089003

- temperature:        90.0000000
  free_energy:       138.1731225
  entropy:             0.4281467
  heat_capacity:       1.4327633
  energy:            138.2116557

- temperature:        92.0000000
  free_energy:       138.1722337
  entropy:             0.4608921
  heat_capacity:       1.5484860
  energy:            138.2146358

- temperature:        94.0000000
  free_energy:       138.1712776
  entropy:             0.4954946
  heat_capacity:       1.6710069
  energy:            138.2178541

- temperature:        96.0000000
  free_energy:       138.1702505
  entropy:             0.5320211
  heat_capacity:       1.8005170
  energy:            138.2213245

- temperature:        98.0000000
  free_energy:       138.1691482
  entropy:             0.5705382
  heat_capacity:       1.9371970
  energy:            138.2250610

- temperature:       100.0000000
  free_energy:       138.1679669
  entropy:             0.6111123
  heat_capacity:       2.0812173
  energy:            138.2290782

- temperature:       102.0000000
  free_energy:       138.1667024
  entropy:             0.6538086
  heat_capacity:       2.2327372
  energy:            138.2333909

- temperature:       104.0000000
  free_energy:       138.1653502
  entropy:             0.6986920
  heat_capacity:       2.3919049
  energy:            138.2380142

- temperature:       106.0000000
  free_energy:       138.1639061
  entropy:             0.7458260
  heat_capacity:       2.5588573
  energy:            138.2429637

- temperature:       108.0000000
  free_energy:       138.1623654
  entropy:             0.7952733
  heat_capacity:       2.7337202
  energy:            138.2482549

- temperature:       110.0000000
  free_energy:       138.1607234
  entropy:             0.8470951
  heat_capacity:       2.9166079
  energy:            138.2539039

- temperature:       112.0000000
  free_energy:       138.1589754
  entropy:             0.9013515
  heat_capacity:       3.1076239
  energy:            138.2599268

- temperature:       114.0000000
  free_energy:       138.1571164
  entropy:             0.9581010
  heat_capacity:       3.3068607
  energy:            138.2663399

- temperature:       116.0000000
  free_energy:       138.1551413
  entropy:             1.0174005
  heat_capacity:       3.5144002
  energy:            138.2731597

- temperature:       118.0000000
  free_energy:       138.1530450
  entropy:             1.0793054
  heat_capacity:       3.7303139
  energy:            138.2804031

- temperature:       120.0000000
  free_energy:       138.1508223
  entropy:             1.1438694
  heat_capacity:       3.9546635
  energy:            138.2880866

- temperature:       122.0000000
  free_energy:       138.1484677
  entropy:             1.2111445
  heat_capacity:       4.1875008
  energy:            138.2962274

- temperature:       124.0000000
  free_energy:       138.1459759
  entropy:             1.2811809
  heat_capacity:       4.4288685
  energy:            138.3048423

- temperature:       126.0000000
  free_energy:       138.1433411
  entropy:             1.3540271
  heat_capacity:       4.6788002
  energy:            138.3139485

- temperature:       128.0000000
  free_energy:       138.1405579
  entropy:             1.4297295
  heat_capacity:       4.9373211
  energy:            138.3235632

- temperature:       130.0000000
  free_energy:       138.1376203
  entropy:             1.5083330
  heat_capacity:       5.2044482
  energy:            138.3337036

- temperature:       132.0000000
  free_energy:       138.1345226
  entropy:             1.5898804
  heat_capacity:       5.4801907
  energy:            138.3443868

- temperature:       134.0000000
  free_energy:       138.1312588
  entropy:             1.6744127
  heat_capacity:       5.7645505
  energy:            138.3556301

- temperature:       136.0000000
  free_energy:       138.1278229
  entropy:             1.7619692
  heat_capacity:       6.0575222
  energy:            138.3674507

- temperature:       138.0000000
  free_energy:       138.1242089
  entropy:             1.8525873
  heat_capacity:       6.3590940
  energy:            138.3798659

- temperature:       140.0000000
  free_energy:       138.1204105
  entropy:             1.9463023
  heat_capacity:       6.6692473
  energy:            138.3928928

- temperature:       142.0000000
  free_energy:       138.1164216
  entropy:             2.0431481
  heat_capacity:       6.9879578
  energy:            138.4065486

- temperature:       144.0000000
  free_energy:       138.1122358
  entropy:             2.1431566
  heat_capacity:       7.3151951
  energy:            138.4208503

- temperature:       146.0000000
  free_energy:       138.1078468
  entropy:             2.2463578
  heat_capacity:       7.6509234
  energy:            138.4358150

- temperature:       148.0000000
  free_energy:       138.1032482
  entropy:             2.3527801
  heat_capacity:       7.9951016
  energy:            138.4514597

- temperature:       150.0000000
  free_energy:       138.0984335
  entropy:             2.4624502
  heat_capacity:       8.3476837
  energy:            138.4678010

- temperature:       152.0000000
  free_energy:       138.0933962
  entropy:             2.5753930
  heat_capacity:       8.7086187
  energy:            138.4848560

- temperature:       154.0000000
  free_energy:       138.0881297
  entropy:             2.6916318
  heat_capacity:       9.0778510
  energy:            138.5026411

- temperature:       156.0000000
  free_energy:       138.0826275
  entropy:             2.8111883
  heat_capacity:       9.4553209
  energy:            138.5211729

- temperature:       158.0000000
  free_energy:       138.0768828
  entropy:             2.9340824
  heat_capacity:       9.8409642
  energy:            138.5404678

- temperature:       160.0000000
  free_energy:       138.0708889
  entropy:             3.0603325
  heat_capacity:      10.2347128
  energy:            138.5605421

- temperature:       162.0000000
  free_energy:       138.0646392
  entropy:             3.1899555
  heat_capacity:      10.6364946
  energy:            138.5814120

- temperature:       164.0000000
  free_energy:       138.0581268
  entropy:             3.3229669
  heat_capacity:      11.0462338
  energy:            138.6030934

- temperature:       166.0000000
  free_energy:       138.0513451
  entropy:             3.4593803
  heat_capacity:      11.4638513
  energy:            138.6256022

- temperature:       168.0000000
  free_energy:       138.0442870
  entropy:             3.5992081
  heat_capacity:      11.8892641
  energy:            138.6489540

- temperature:       170.0000000
  free_energy:       138.0369459
  entropy:             3.7424614
  heat_capacity:      12.3223863
  energy:            138.6731644

- temperature:       172.0000000
  free_energy:       138.0293149
  entropy:             3.8891496
  heat_capacity:      12.7631286
  energy:            138.6982486

- temperature:       174.0000000
  free_energy:       138.0213870
  entropy:             4.0392808
  heat_capacity:      13.2113986
  energy:            138.7242219

- temperature:       176.0000000
  free_energy:       138.0131555
  entropy:             4.1928619
  heat_capacity:      13.6671011
  energy:            138.7510992

- temperature:       178.0000000
  free_energy:       138.0046133
  entropy:             4.3498983
  heat_capacity:      14.1301379
  energy:            138.7788952

- temperature:       180.0000000
  free_energy:       137.9957536
  entropy:             4.5103943
  heat_capacity:      14.6004082
  energy:            138.8076246

- temperature:       182.0000000
  free_energy:       137.9865694
  entropy:             4.6743526
  heat_capacity:      15.0778085
  energy:            138.8373016

- temperature:       184.0000000
  free_energy:       137.9770539
  entropy:             4.8417750
  heat_capacity:      15.5622329
  energy:            138.8679405

- temperature:       186.0000000
  free_energy:       137.9672000
  entropy:             5.0126620
  heat_capacity:      16.0535729
  energy:            138.8995551

- temperature:       188.0000000
  free_energy:       137.9570009
  entropy:             5.1870127
  heat_capacity:      16.5517179
  energy:            138.9321593

- temperature:       190.0000000
  free_energy:       137.9464496
  entropy:             5.3648254
  heat_capacity:      17.0565551
  energy:            138.9657665

- temperature:       192.0000000
  free_energy:       137.9355393
  entropy:             5.5460969
  heat_capacity:      17.5679694
  energy:            139.0003899

- temperature:       194.0000000
  free_energy:       137.9242630
  entropy:             5.7308232
  heat_capacity:      18.0858440
  energy:            139.0360426

- temperature:       196.0000000
  free_energy:       137.9126137
  entropy:             5.9189990
  heat_capacity:      18.6100600
  energy:            139.0727375

- temperature:       198.0000000
  free_energy:       137.9005847
  entropy:             6.1106181
  heat_capacity:      19.1404968
  energy:            139.1104870

- temperature:       200.0000000
  free_energy:       137.8881689
  entropy:             6.3056731
  heat_capacity:      19.6770322
  energy:            139.1493036

- temperature:       202.0000000
  free_energy:       137.8753597
  entropy:             6.5041558
  heat_capacity:      20.2195424
  energy:            139.1891991

- temperature:       204.0000000
  free_energy:       137.8621500
  entropy:             6.7060568
  heat_capacity:      20.7679021
  energy:            139.2301856

- temperature:       206.0000000
  free_energy:       137.8485332
  entropy:             6.9113660
  heat_capacity:      21.3219849
  energy:            139.2722746

- temperature:       208.0000000
  free_energy:       137.8345023
  entropy:             7.1200720
  heat_capacity:      21.8816628
  energy:            139.3154773

- temperature:       210.0000000
  free_energy:       137.8200506
  entropy:             7.3321630
  heat_capacity:      22.4468069
  energy:            139.3598049

- temperature:       212.0000000
  free_energy:       137.8051714
  entropy:             7.5476258
  heat_capacity:      23.0172874
  energy:            139.4052681

- temperature:       214.0000000
  free_energy:       137.7898579
  entropy:             7.7664467
  heat_capacity:      23.5929732
  energy:            139.4518775

- temperature:       216.0000000
  free_energy:       137.7741034
  entropy:             7.9886109
  heat_capacity:      24.1737329
  energy:            139.4996434

- temperature:       218.0000000
  free_energy:       137.7579012
  entropy:             8.2141031
  heat_capacity:      24.7594340
  energy:            139.5485757

- temperature:       220.0000000
  free_energy:       137.7412448
  entropy:             8.4429069
  heat_capacity:      25.3499435
  energy:            139.5986843

- temperature:       222.0000000
  free_energy:       137.7241274
  entropy:             8.6750054
  heat_capacity:      25.9451281
  energy:            139.6499786

- temperature:       224.0000000
  free_energy:       137.7065426
  entropy:             8.9103807
  heat_capacity:      26.5448540
  energy:            139.7024678

- temperature:       226.0000000
  free_energy:       137.6884837
  entropy:             9.1490143
  heat_capacity:      27.1489871
  energy:            139.7561610

- temperature:       228.0000000
  free_energy:       137.6699444
  entropy:             9.3908872
  heat_capacity:      27.7573930
  energy:            139.8110666

- temperature:       230.0000000
  free_energy:       137.6509180
  entropy:             9.6359794
  heat_capacity:      28.3699375
  energy:            139.8671933

- temperature:       232.0000000
  free_energy:       137.6313983
  entropy:             9.8842705
  heat_capacity:      28.9864862
  energy:            139.9245491

- temperature:       234.0000000
  free_energy:       137.6113788
  entropy:            10.1357393
  heat_capacity:      29.6069050
  energy:            139.9831418

- temperature:       236.0000000
  free_energy:       137.5908532
  entropy:            10.3903641
  heat_capacity:      30.2310598
  energy:            140.0429792

- temperature:       238.0000000
  free_energy:       137.5698153
  entropy:            10.6481226
  heat_capacity:      30.8588169
  energy:            140.1040685

- temperature:       240.0000000
  free_energy:       137.5482587
  entropy:            10.9089920
  heat_capacity:      31.4900429
  energy:            140.1664167

- temperature:       242.0000000
  free_energy:       137.5261772
  entropy:            11.1729488
  heat_capacity:      32.1246052
  energy:            140.2300308

- temperature:       244.0000000
  free_energy:       137.5035648
  entropy:            11.4399691
  heat_capacity:      32.7623713
  energy:            140.2949173

- temperature:       246.0000000
  free_energy:       137.4804153
  entropy:            11.7100286
  heat_capacity:      33.4032096
  energy:            140.3610824

- temperature:       248.0000000
  free_energy:       137.4567227
  entropy:            11.9831024
  heat_capacity:      34.0469893
  energy:            140.4285321

- temperature:       250.0000000
  free_energy:       137.4324809
  entropy:            12.2591651
  heat_capacity:      34.6935801
  energy:            140.4972722

- temperature:       252.0000000
  free_energy:       137.4076841
  entropy:            12.5381910
  heat_capacity:      35.3428528
  energy:            140.5673082

- temperature:       254.0000000
  free_energy:       137.3823262
  entropy:            12.8201540
  heat_capacity:      35.9946791
  energy:            140.6386453

- temperature:       256.0000000
  free_energy:       137.3564015
  entropy:            13.1050274
  heat_capacity:      36.6489316
  energy:            140.7112885

- temperature:       258.0000000
  free_energy:       137.3299042
  entropy:            13.3927845
  heat_capacity:      37.3054842
  energy:            140.7852426

- temperature:       260.0000000
  free_energy:       137.3028285
  entropy:            13.6833979
  heat_capacity:      37.9642117
  energy:            140.8605119

- temperature:       262.0000000
  free_energy:       137.2751687
  entropy:            13.9768400
  heat_capacity:      38.6249901
  energy:            140.9371008

- temperature:       264.0000000
  free_energy:       137.2469193
  entropy:            14.2730830
  heat_capacity:      39.2876968
  energy:            141.0150132

- temperature:       266.0000000
  free_energy:       137.2180745
  entropy:            14.5720987
  heat_capacity:      39.9522105
  energy:            141.0942528

- temperature:       268.0000000
  free_energy:       137.1886290
  entropy:            14.8738586
  heat_capacity:      40.6184111
  energy:            141.1748231

- temperature:       270.0000000
  free_energy:       137.1585773
  entropy:            15.1783341
  heat_capacity:      41.2861800
  energy:            141.2567275

- temperature:       272.0000000
  free_energy:       137.1279139
  entropy:            15.4854961
  heat_capacity:      41.9554000
  energy:            141.3399688

- temperature:       274.0000000
  free_energy:       137.0966335
  entropy:            15.7953155
  heat_capacity:      42.6259554
  energy:            141.4245500

- temperature:       276.0000000
  free_energy:       137.0647309
  entropy:            16.1077630
  heat_capacity:      43.2977321
  energy:            141.5104735

- temperature:       278.0000000
  free_energy:       137.0322007
  entropy:            16.4228090
  heat_capacity:      43.9706174
  energy:            141.5977416

- temperature:       280.0000000
  free_energy:       136.9990379
  entropy:            16.7404238
  heat_capacity:      44.6445003
  energy:            141.6863566

- temperature:       282.0000000
  free_energy:       136.9652374
  entropy:            17.0605776
  heat_capacity:      45.3192715
  energy:            141.7763202

- temperature:       284.0000000
  free_energy:       136.9307940
  entropy:            17.3832403
  heat_capacity:      45.9948232
  energy:            141.8676342

- temperature:       286.0000000
  free_energy:       136.8957027
  entropy:            17.7083819
  heat_capacity:      46.6710493
  energy:            141.9603000

- temperature:       288.0000000
  free_energy:       136.8599588
  entropy:            18.0359722
  heat_capacity:      47.3478456
  energy:            142.0543188

- temperature:       290.0000000
  free_energy:       136.8235572
  entropy:            18.3659808
  heat_capacity:      48.0251092
  energy:            142.1496917

- temperature:       292.0000000
  free_energy:       136.7864933
  entropy:            18.6983773
  heat_capacity:      48.7027395
  energy:            142.2464195

- temperature:       294.0000000
  free_energy:       136.7487622
  entropy:            19.0331314
  heat_capacity:      49.3806371
  energy:            142.3445028

- temperature:       296.0000000
  free_energy:       136.7103592
  entropy:            19.3702126
  heat_capacity:      50.0587048
  energy:            142.4439421

- temperature:       298.0000000
  free_energy:       136.6712798
  entropy:            19.7095902
  heat_capacity:      50.7368469
  energy:            142.5447377

- temperature:       300.0000000
  free_energy:       136.6315193
  entropy:            20.0512339
  heat_capacity:      51.4149698
  energy:            142.6468895

- temperature:       302.0000000
  free_energy:       136.5910734
  entropy:            20.3951130
  heat_capacity:      52.0929813
  energy:            142.7503975

- temperature:       304.0000000
  free_energy:       136.5499374
  entropy:            20.7411970
  heat_capacity:      52.7707912
  energy:            142.8552613

- temperature:       306.0000000
  free_energy:       136.5081071
  entropy:            21.0894553
  heat_capacity:      53.4483113
  energy:            142.9614805

- temperature:       308.0000000
  free_energy:       136.4655782
  entropy:            21.4398576
  heat_capacity:      54.1254550
  energy:            143.0690543

- temperature:       310.0000000
  free_energy:       136.4223463
  entropy:            21.7923732
  heat_capacity:      54.8021374
  energy:            143.1779820

- temperature:       312.0000000
  free_energy:       136.3784073
  entropy:            22.1469718
  heat_capacity:      55.4782756
  energy:            143.2882625

- temperature:       314.0000000
  free_energy:       136.3337570
  entropy:            22.5036230
  heat_capacity:      56.1537886
  energy:            143.3998946

- temperature:       316.0000000
  free_energy:       136.2883914
  entropy:            22.8622966
  heat_capacity:      56.8285968
  energy:            143.5128772

- temperature:       318.0000000
  free_energy:       136.2423065
  entropy:            23.2229623
  heat_capacity:      57.5026230
  energy:            143.6272085

- temperature:       320.0000000
  free_energy:       136.1954983
  entropy:            23.5855900
  heat_capacity:      58.1757912
  energy:            143.7428871

- temperature:       322.0000000
  free_energy:       136.1479629
  entropy:            23.9501497
  heat_capacity:      58.8480275
  energy:            143.8599111

- temperature:       324.0000000
  free_energy:       136.0996964
  entropy:            24.3166114
  heat_capacity:      59.5192597
  energy:            143.9782785

- temperature:       326.0000000
  free_energy:       136.0506952
  entropy:            24.6849454
  heat_capacity:      60.1894174
  energy:            144.0979874

- temperature:       328.0000000
  free_energy:       136.0009554
  entropy:            25.0551220
  heat_capacity:      60.8584319
  energy:            144.2190354

- temperature:       330.0000000
  free_energy:       135.9504735
  entropy:            25.4271116
  heat_capacity:      61.5262362
  energy:            144.3414203

- temperature:       332.0000000
  free_energy:       135.8992458
  entropy:            25.8008848
  heat_capacity:      62.1927652
  energy:            144.4651395

- temperature:       334.0000000
  free_energy:       135.8472688
  entropy:            26.1764123
  heat_capacity:      62.8579553
  energy:            144.5901905

- temperature:       336.0000000
  free_energy:       135.7945390
  entropy:            26.5536650
  heat_capacity:      63.5217447
  energy:            144.7165704

- temperature:       338.0000000
  free_energy:       135.7410530
  entropy:            26.9326139
  heat_capacity:      64.1840733
  energy:            144.8442765

- temperature:       340.0000000
  free_energy:       135.6868074
  entropy:            27.3132303
  heat_capacity:      64.8448825
  energy:            144.9733057

- temperature:       342.0000000
  free_energy:       135.6317990
  entropy:            27.6954854
  heat_capacity:      65.5041155
  energy:            145.1036550

- temperature:       344.0000000
  free_energy:       135.5760244
  entropy:            28.0793508
  heat_capacity:      66.1617171
  energy:            145.2353211

- temperature:       346.0000000
  free_energy:       135.5194805
  entropy:            28.4647983
  heat_capacity:      66.8176337
  energy:            145.3683007

- temperature:       348.0000000
  free_energy:       135.4621642
  entropy:            28.8517997
  heat_capacity:      67.4718131
  energy:            145.5025904

- temperature:       350.0000000
  free_energy:       135.4040723
  entropy:            29.2403271
  heat_capacity:      68.1242051
  energy:            145.6381868

- temperature:       352.0000000
  free_energy:       135.3452019
  entropy:            29.6303528
  heat_capacity:      68.7747605
  energy:            145.7750860

- temperature:       354.0000000
  free_energy:       135.2855499
  entropy:            30.0218493
  heat_capacity:      69.4234320
  energy:            145.9132845

- temperature:       356.0000000
  free_energy:       135.2251135
  entropy:            30.4147893