<?xml version="1.0" encoding="ISO-8859-1"?>
<modeling>
 <generator>
  <i name="program" type="string">vasp </i>
  <i name="version" type="string">5.4.4.18Apr17-6-g9f103f2a35  </i>
  <i name="subversion" type="string">(build Mar 12 2022 03:36:41) complex            parallel </i>
  <i name="platform" type="string">IFC19.0.3.199_CrayMPICH7.7.19 </i>
  <i name="date" type="string">2022 12 01 </i>
  <i name="time" type="string">06:18:41 </i>
 </generator>
 <incar>
  <i type="string" name="PREC">accurate</i>
  <i type="int" name="IALGO">    38</i>
  <i type="logical" name="ADDGRID"> T  </i>
  <i type="int" name="IBRION">     8</i>
  <i name="EDIFF">      0.00000001</i>
  <i type="logical" name="LREAL"> F  </i>
  <i type="int" name="ISMEAR">     0</i>
  <i name="SIGMA">      0.06000000</i>
  <i type="logical" name="LWAVE"> F  </i>
  <i type="logical" name="LCHARG"> F  </i>
  <v type="int" name="KPOINT_BSE">    -1     0     0     0</v>
 </incar>
 <structure name="primitive_cell" >
  <crystal>
   <varray name="basis" >
    <v>       1.78685500       1.78685500       0.00000000 </v>
    <v>       1.78685500       0.00000000      -1.78685500 </v>
    <v>       0.00000000       1.78685500      -1.78685500 </v>
   </varray>
   <i name="volume">     11.41032280 </i>
   <varray name="rec_basis" >
    <v>       0.27982125       0.27982125       0.27982125 </v>
    <v>       0.27982125      -0.27982125      -0.27982125 </v>
    <v>      -0.27982125       0.27982125      -0.27982125 </v>
   </varray>
  </crystal>
  <varray name="positions" >
   <v>       0.25000000       0.25000000       0.25000000 </v>
   <v>      -0.50000000      -0.50000000      -0.50000000 </v>
  </varray>
 </structure>
 <varray name="primitive_index" >
  <v type="int" >        1 </v>
  <v type="int" >       11 </v>
 </varray>
 <kpoints>
  <generation param="Gamma">
   <v type="int" name="divisions">       8        8        8 </v>
   <v name="usershift">      0.00000000       0.00000000       0.00000000 </v>
   <v name="genvec1">      0.12500000       0.00000000       0.00000000 </v>
   <v name="genvec2">      0.00000000       0.12500000       0.00000000 </v>
   <v name="genvec3">      0.00000000       0.00000000       0.12500000 </v>
   <v name="shift">      0.00000000       0.00000000       0.00000000 </v>
  </generation>
  <varray name="kpointlist" >
   <v>       0.00000000       0.00000000       0.00000000 </v>
   <v>       0.12500000       0.00000000       0.00000000 </v>
   <v>       0.25000000       0.00000000       0.00000000 </v>
   <v>       0.37500000       0.00000000       0.00000000 </v>
   <v>       0.50000000       0.00000000       0.00000000 </v>
   <v>       0.12500000       0.12500000       0.00000000 </v>
   <v>       0.25000000       0.12500000       0.00000000 </v>
   <v>       0.37500000       0.12500000       0.00000000 </v>
   <v>       0.50000000       0.12500000       0.00000000 </v>
   <v>       0.25000000       0.25000000       0.00000000 </v>
   <v>       0.37500000       0.25000000       0.00000000 </v>
   <v>       0.50000000       0.25000000       0.00000000 </v>
   <v>       0.37500000       0.37500000       0.00000000 </v>
   <v>       0.50000000       0.37500000       0.00000000 </v>
   <v>       0.50000000       0.50000000       0.00000000 </v>
   <v>       0.12500000       0.12500000       0.12500000 </v>
   <v>       0.25000000       0.12500000       0.12500000 </v>
   <v>       0.37500000       0.12500000       0.12500000 </v>
   <v>       0.50000000       0.12500000       0.12500000 </v>
   <v>       0.25000000       0.25000000       0.12500000 </v>
   <v>       0.37500000       0.25000000       0.12500000 </v>
   <v>       0.50000000       0.25000000       0.12500000 </v>
   <v>       0.37500000       0.37500000       0.12500000 </v>
   <v>       0.50000000       0.37500000       0.12500000 </v>
   <v>       0.50000000       0.50000000       0.12500000 </v>
   <v>       0.25000000       0.25000000       0.25000000 </v>
   <v>       0.37500000       0.25000000       0.25000000 </v>
   <v>       0.50000000       0.25000000       0.25000000 </v>
   <v>       0.37500000       0.37500000       0.25000000 </v>
   <v>       0.50000000       0.37500000       0.25000000 </v>
   <v>       0.50000000       0.50000000       0.25000000 </v>
   <v>       0.37500000       0.37500000       0.37500000 </v>
   <v>       0.50000000       0.37500000       0.37500000 </v>
   <v>       0.50000000       0.50000000       0.37500000 </v>
   <v>       0.50000000       0.50000000       0.50000000 </v>
  </varray>
  <varray name="weights" >
   <v>       0.00195312 </v>
   <v>       0.01171875 </v>
   <v>       0.01171875 </v>
   <v>       0.01171875 </v>
   <v>       0.00585938 </v>
   <v>       0.02343750 </v>
   <v>       0.04687500 </v>
   <v>       0.04687500 </v>
   <v>       0.02343750 </v>
   <v>       0.02343750 </v>
   <v>       0.04687500 </v>
   <v>       0.02343750 </v>
   <v>       0.02343750 </v>
   <v>       0.02343750 </v>
   <v>       0.00585938 </v>
   <v>       0.01562500 </v>
   <v>       0.04687500 </v>
   <v>       0.04687500 </v>
   <v>       0.02343750 </v>
   <v>       0.04687500 </v>
   <v>       0.09375000 </v>
   <v>       0.04687500 </v>
   <v>       0.04687500 </v>
   <v>       0.04687500 </v>
   <v>       0.01171875 </v>
   <v>       0.01562500 </v>
   <v>       0.04687500 </v>
   <v>       0.02343750 </v>
   <v>       0.04687500 </v>
   <v>       0.04687500 </v>
   <v>       0.01171875 </v>
   <v>       0.01562500 </v>
   <v>       0.02343750 </v>
   <v>       0.01171875 </v>
   <v>       0.00195312 </v>
  </varray>
 </kpoints>
 <parameters>
  <separator name="general" >
   <i type="string" name="SYSTEM">unknown system</i>
   <i type="logical" name="LCOMPAT"> F  </i>
  </separator>
  <separator name="electronic" >
   <i type="string" name="PREC">accura</i>
   <i name="ENMAX">    400.00000000</i>
   <i name="ENAUG">    644.87300000</i>
   <i name="EDIFF">      0.00000001</i>
   <i type="int" name="IALGO">    38</i>
   <i type="int" name="IWAVPR">    11</i>
   <i type="int" name="NBANDS">   192</i>
   <i name="NELECT">    256.00000000</i>
   <i type="int" name="TURBO">     0</i>
   <i type="int" name="IRESTART">     0</i>
   <i type="int" name="NREBOOT">     0</i>
   <i type="int" name="NMIN">     0</i>
   <i name="EREF">      0.00000000</i>
   <separator name="electronic smearing" >
    <i type="int" name="ISMEAR">     0</i>
    <i name="SIGMA">      0.06000000</i>
    <i name="KSPACING">      0.50000000</i>
    <i type="logical" name="KGAMMA"> T  </i>
   </separator>
   <separator name="electronic projectors" >
    <i type="logical" name="LREAL"> F  </i>
    <v name="ROPT">      0.00000000</v>
    <i type="int" name="LMAXPAW">  -100</i>
    <i type="int" name="LMAXMIX">     2</i>
    <i type="logical" name="NLSPLINE"> F  </i>
   </separator>
   <separator name="electronic startup" >
    <i type="int" name="ISTART">     0</i>
    <i type="int" name="ICHARG">     2</i>
    <i type="int" name="INIWAV">     1</i>
   </separator>
   <separator name="electronic spin" >
    <i type="int" name="ISPIN">     1</i>
    <i type="logical" name="LNONCOLLINEAR"> F  </i>
    <v name="MAGMOM">      1.00000000      1.00000000      1.00000000      1.00000000      1.00000000      1.00000000      1.00000000      1.00000000      1.00000000      1.00000000      1.00000000      1.00000000      1.00000000      1.00000000      1.00000000      1.00000000      1.00000000      1.00000000      1.00000000      1.00000000
      1.00000000      1.00000000      1.00000000      1.00000000      1.00000000      1.00000000      1.00000000      1.00000000      1.00000000      1.00000000      1.00000000      1.00000000      1.00000000      1.00000000      1.00000000      1.00000000      1.00000000      1.00000000      1.00000000      1.00000000
      1.00000000      1.00000000      1.00000000      1.00000000      1.00000000      1.00000000      1.00000000      1.00000000      1.00000000      1.00000000      1.00000000      1.00000000      1.00000000      1.00000000      1.00000000      1.00000000      1.00000000      1.00000000      1.00000000      1.00000000
      1.00000000      1.00000000      1.00000000      1.00000000</v>
    <i name="NUPDOWN">     -1.00000000</i>
    <i type="logical" name="LSORBIT"> F  </i>
    <v name="SAXIS">      0.00000000      0.00000000      1.00000000</v>
    <i type="logical" name="LSPIRAL"> F  </i>
    <v name="QSPIRAL">      0.00000000      0.00000000      0.00000000</v>
    <i type="logical" name="LZEROZ"> F  </i>
   </separator>
   <separator name="electronic exchange-correlation" >
    <i type="logical" name="LASPH"> F  </i>
    <i type="logical" name="LMETAGGA"> F  </i>
   </separator>
   <separator name="electronic convergence" >
    <i type="int" name="NELM">    60</i>
    <i type="int" name="NELMDL">    -5</i>
    <i type="int" name="NELMIN">     2</i>
    <i name="ENINI">    400.00000000</i>
    <separator name="electronic convergence detail" >
     <i type="logical" name="LDIAG"> T  </i>
     <i type="logical" name="LSUBROT"> F  </i>
     <i name="WEIMIN">      0.00100000</i>
     <i name="EBREAK">      0.00000000</i>
     <i name="DEPER">      0.30000000</i>
     <i type="int" name="NRMM">     4</i>
     <i name="TIME">      0.40000000</i>
    </separator>
   </separator>
   <separator name="electronic mixer" >
    <i name="AMIX">      0.40000000</i>
    <i name="BMIX">      1.00000000</i>
    <i name="AMIN">      0.10000000</i>
    <i name="AMIX_MAG">      1.60000000</i>
    <i name="BMIX_MAG">      1.00000000</i>
    <separator name="electronic mixer details" >
     <i type="int" name="IMIX">     4</i>
     <i type="logical" name="MIXFIRST"> F  </i>
     <i type="int" name="MAXMIX">   -45</i>
     <i name="WC">    100.00000000</i>
     <i type="int" name="INIMIX">     1</i>
     <i type="int" name="MIXPRE">     1</i>
     <i type="int" name="MREMOVE">     5</i>
    </separator>
   </separator>
   <separator name="electronic dipolcorrection" >
    <i type="logical" name="LDIPOL"> F  </i>
    <i type="logical" name="LMONO"> F  </i>
    <i type="int" name="IDIPOL">     0</i>
    <i name="EPSILON">      1.00000000</i>
    <v name="DIPOL">   -100.00000000   -100.00000000   -100.00000000</v>
    <i name="EFIELD">      0.00000000</i>
   </separator>
  </separator>
  <separator name="grids" >
   <i type="int" name="NGX">    48</i>
   <i type="int" name="NGY">    48</i>
   <i type="int" name="NGZ">    48</i>
   <i type="int" name="NGXF">    96</i>
   <i type="int" name="NGYF">    96</i>
   <i type="int" name="NGZF">    96</i>
   <i type="logical" name="ADDGRID"> T  </i>
  </separator>
  <separator name="ionic" >
   <i type="int" name="NSW">     1</i>
   <i type="int" name="IBRION">     8</i>
   <i type="int" name="MDALGO">     0</i>
   <i type="int" name="ISIF">     2</i>
   <i name="PSTRESS">      0.00000000</i>
   <i name="EDIFFG">      0.00000010</i>
   <i type="int" name="NFREE">     0</i>
   <i name="POTIM">      0.50000000</i>
   <i name="SMASS">     -3.00000000</i>
   <i name="SCALEE">      1.00000000</i>
  </separator>
  <separator name="ionic md" >
   <i name="TEBEG">      0.00010000</i>
   <i name="TEEND">      0.00010000</i>
   <i type="int" name="NBLOCK">     1</i>
   <i type="int" name="KBLOCK">     1</i>
   <i type="int" name="NPACO">   256</i>
   <i name="APACO">     16.00000000</i>
  </separator>
  <separator name="symmetry" >
   <i type="int" name="ISYM">     2</i>
   <i name="SYMPREC">      0.00001000</i>
  </separator>
  <separator name="dos" >
   <i type="int" name="LORBIT">     0</i>
   <v name="RWIGS">     -1.00000000</v>
   <i type="int" name="NEDOS">   301</i>
   <i name="EMIN">     10.00000000</i>
   <i name="EMAX">    -10.00000000</i>
   <i name="EFERMI">      0.00000000</i>
  </separator>
  <separator name="writing" >
   <i type="int" name="NWRITE">     2</i>
   <i type="logical" name="LWAVE"> F  </i>
   <i type="logical" name="LDOWNSAMPLE"> F  </i>
   <i type="logical" name="LCHARG"> F  </i>
   <i type="logical" name="LPARD"> F  </i>
   <i type="logical" name="LVTOT"> F  </i>
   <i type="logical" name="LVHAR"> F  </i>
   <i type="logical" name="LELF"> F  </i>
   <i type="logical" name="LOPTICS"> F  </i>
   <v name="STM">      0.00000000      0.00000000      0.00000000      0.00000000      0.00000000      0.00000000      0.00000000</v>
  </separator>
  <separator name="performance" >
   <i type="int" name="NPAR">    32</i>
   <i type="int" name="NSIM">     4</i>
   <i type="int" name="NBLK">    -1</i>
   <i type="logical" name="LPLANE"> T  </i>
   <i type="logical" name="LSCALAPACK"> T  </i>
   <i type="logical" name="LSCAAWARE"> F  </i>
   <i type="logical" name="LSCALU"> F  </i>
   <i type="logical" name="LASYNC"> F  </i>
   <i type="logical" name="LORBITALREAL"> F  </i>
  </separator>
  <separator name="miscellaneous" >
   <i type="int" name="IDIOT">     3</i>
   <i type="int" name="ISPECIAL">     0</i>
   <i type="logical" name="LMUSIC"> F  </i>
   <v name="POMASS">     12.01100000</v>
   <v name="DARWINR">      0.00000000</v>
   <v name="DARWINV">      1.00000000</v>
   <i type="logical" name="LCORR"> T  </i>
  </separator>
  <i type="logical" name="GGA_COMPAT"> T  </i>
  <i type="logical" name="LBERRY"> F  </i>
  <i type="int" name="ICORELEVEL">     0</i>
  <i type="logical" name="LDAU"> F  </i>
  <i type="int" name="I_CONSTRAINED_M">     0</i>
  <separator name="electronic exchange-correlation" >
   <i type="string" name="GGA">--</i>
   <i type="int" name="VOSKOWN">     0</i>
   <i type="logical" name="LHFCALC"> F  </i>
   <i type="string" name="PRECFOCK"></i>
   <i type="logical" name="LSYMGRAD"> F  </i>
   <i type="logical" name="LHFONE"> F  </i>
   <i type="logical" name="LRHFCALC"> F  </i>
   <i type="logical" name="LTHOMAS"> F  </i>
   <i type="logical" name="LMODELHF"> F  </i>
   <i name="ENCUT4O">     -1.00000000</i>
   <i type="int" name="EXXOEP">     0</i>
   <i type="int" name="FOURORBIT">     0</i>
   <i name="AEXX">      0.00000000</i>
   <i name="HFALPHA">      0.00000000</i>
   <i name="MCALPHA">      0.00000000</i>
   <i name="ALDAX">      1.00000000</i>
   <i name="AGGAX">      1.00000000</i>
   <i name="ALDAC">      1.00000000</i>
   <i name="AGGAC">      1.00000000</i>
   <i type="int" name="NKREDX">     1</i>
   <i type="int" name="NKREDY">     1</i>
   <i type="int" name="NKREDZ">     1</i>
   <i type="logical" name="SHIFTRED"> F  </i>
   <i type="logical" name="ODDONLY"> F  </i>
   <i type="logical" name="EVENONLY"> F  </i>
   <i type="int" name="LMAXFOCK">     0</i>
   <i type="int" name="NMAXFOCKAE">     0</i>
   <i type="logical" name="LFOCKAEDFT"> F  </i>
   <i name="HFSCREEN">      0.00000000</i>
   <i name="HFSCREENC">      0.00000000</i>
   <i type="int" name="NBANDSGWLOW">     0</i>
  </separator>
  <separator name="vdW DFT" >
   <i type="logical" name="LUSE_VDW"> F  </i>
   <i name="Zab_VDW">     -0.84910000</i>
   <i name="PARAM1">      0.12340000</i>
   <i name="PARAM2">      1.00000000</i>
   <i name="PARAM3">      0.00000000</i>
  </separator>
  <separator name="model GW" >
   <i type="int" name="MODEL_GW">     0</i>
   <i name="MODEL_EPS0">      3.42309684</i>
   <i name="MODEL_ALPHA">      1.00000000</i>
  </separator>
  <separator name="linear response parameters" >
   <i type="logical" name="LEPSILON"> F  </i>
   <i type="logical" name="LRPA"> F  </i>
   <i type="logical" name="LNABLA"> F  </i>
   <i type="logical" name="LVEL"> F  </i>
   <i type="int" name="KINTER">     0</i>
   <i name="CSHIFT">      0.10000000</i>
   <i name="OMEGAMAX">     -1.00000000</i>
   <i name="DEG_THRESHOLD">      0.00200000</i>
   <i name="RTIME">     -0.10000000</i>
   <i name="WPLASMAI">      0.00000000</i>
   <v name="DFIELD">      0.00000000      0.00000000      0.00000000</v>
   <v name="WPLASMA">      0.00000000      0.00000000      0.00000000      0.00000000      0.00000000      0.00000000      0.00000000      0.00000000      0.00000000</v>
  </separator>
  <separator name="orbital magnetization" >
   <i type="logical" name="NUCIND"> F  </i>
   <v name="MAGPOS">      0.00000000      0.00000000      0.00000000</v>
   <i type="logical" name="LNICSALL"> T  </i>
   <i type="logical" name="ORBITALMAG"> F  </i>
   <i type="logical" name="LMAGBLOCH"> F  </i>
   <i type="logical" name="LCHIMAG"> F  </i>
   <i type="logical" name="LGAUGE"> T  </i>
   <i type="int" name="MAGATOM">     0</i>
   <v name="MAGDIPOL">      0.00000000      0.00000000      0.00000000</v>
   <v name="AVECCONST">      0.00000000      0.00000000      0.00000000</v>
  </separator>
  <separator name="response functions" >
   <i type="logical" name="LADDER"> F  </i>
   <i type="logical" name="LRPAFORCE"> F  </i>
   <i type="logical" name="LFXC"> F  </i>
   <i type="logical" name="LHARTREE"> T  </i>
   <i type="int" name="IBSE">     0</i>
   <v type="int" name="KPOINT">    -1     0     0     0</v>
   <i type="logical" name="LTCTE"> F  </i>
   <i type="logical" name="LTETE"> F  </i>
   <i type="logical" name="LTRIPLET"> F  </i>
   <i type="logical" name="LFXCEPS"> F  </i>
   <i type="logical" name="LFXHEG"> F  </i>
   <i type="int" name="NATURALO">     2</i>
   <i type="logical" name="L2ORDER"> F  </i>
   <i type="logical" name="LMP2LT"> F  </i>
   <i type="logical" name="LUSEW"> F  </i>
   <i name="ENCUTGW">     -2.00000000</i>
   <i name="ENCUTGWSOFT">     -2.00000000</i>
   <i name="ENCUTLF">     -1.00000000</i>
   <i type="int" name="LMAXMP2">    -1</i>
   <i name="SCISSOR">      0.00000000</i>
   <i type="int" name="NOMEGA">     0</i>
   <i type="int" name="NOMEGAR">     0</i>
   <i type="int" name="NBANDSGW">    -1</i>
   <i type="int" name="NBANDSO">    -1</i>
   <i type="int" name="NBANDSV">    -1</i>
   <i type="int" name="NELM">     1</i>
   <i type="int" name="NELMHF">     1</i>
   <i type="int" name="DIM">     3</i>
   <i type="int" name="ANTIRES">     0</i>
   <i name="OMEGAMAX">    -30.00000000</i>
   <i name="OMEGAMIN">    -30.00000000</i>
   <i name="OMEGATL">   -200.00000000</i>
   <i type="int" name="OMEGAGRID">   140</i>
   <i name="CSHIFT">     -0.10000000</i>
   <i type="logical" name="SELFENERGY"> F  </i>
   <i type="logical" name="LSPECTRAL"> F  </i>
   <i type="logical" name="LSPECTRALGW"> F  </i>
   <i type="logical" name="LSINGLES"> F  </i>
   <i type="logical" name="LFERMIGW"> F  </i>
   <i type="logical" name="ODDONLYGW"> F  </i>
   <i type="logical" name="EVENONLYGW"> F  </i>
   <i type="int" name="NKREDLFX">     1</i>
   <i type="int" name="NKREDLFY">     1</i>
   <i type="int" name="NKREDLFZ">     1</i>
   <i type="int" name="MAXMEM">  2800</i>
   <i type="int" name="TELESCOPE">     0</i>
   <i type="int" name="TAUPAR">     1</i>
   <i type="int" name="OMEGAPAR">    -1</i>
   <i name="LAMBDA">      1.00000000</i>
  </separator>
  <separator name="External order field" >
   <i name="OFIELD_KAPPA">      0.00000000</i>
   <v name="OFIELD_K">      0.00000000      0.00000000      0.00000000</v>
   <i name="OFIELD_Q6_NEAR">      0.00000000</i>
   <i name="OFIELD_Q6_FAR">      0.00000000</i>
   <i name="OFIELD_A">      0.00000000</i>
  </separator>
 </parameters>
 <atominfo>
  <atoms>      64 </atoms>
  <types>       1 </types>
  <array name="atoms" >
   <dimension dim="1">ion</dimension>
   <field type="string">element</field>
   <field type="int">atomtype</field>
   <set>
    <rc><c>C </c><c>   1</c></rc>
    <rc><c>C </c><c>   1</c></rc>
    <rc><c>C </c><c>   1</c></rc>
    <rc><c>C </c><c>   1</c></rc>
    <rc><c>C </c><c>   1</c></rc>
    <rc><c>C </c><c>   1</c></rc>
    <rc><c>C </c><c>   1</c></rc>
    <rc><c>C </c><c>   1</c></rc>
    <rc><c>C </c><c>   1</c></rc>
    <rc><c>C </c><c>   1</c></rc>
    <rc><c>C </c><c>   1</c></rc>
    <rc><c>C </c><c>   1</c></rc>
    <rc><c>C </c><c>   1</c></rc>
    <rc><c>C </c><c>   1</c></rc>
    <rc><c>C </c><c>   1</c></rc>
    <rc><c>C </c><c>   1</c></rc>
    <rc><c>C </c><c>   1</c></rc>
    <rc><c>C </c><c>   1</c></rc>
    <rc><c>C </c><c>   1</c></rc>
    <rc><c>C </c><c>   1</c></rc>
    <rc><c>C </c><c>   1</c></rc>
    <rc><c>C </c><c>   1</c></rc>
    <rc><c>C </c><c>   1</c></rc>
    <rc><c>C </c><c>   1</c></rc>
    <rc><c>C </c><c>   1</c></rc>
    <rc><c>C </c><c>   1</c></rc>
    <rc><c>C </c><c>   1</c></rc>
    <rc><c>C </c><c>   1</c></rc>
    <rc><c>C </c><c>   1</c></rc>
    <rc><c>C </c><c>   1</c></rc>
    <rc><c>C </c><c>   1</c></rc>
    <rc><c>C </c><c>   1</c></rc>
    <rc><c>C </c><c>   1</c></rc>
    <rc><c>C </c><c>   1</c></rc>
    <rc><c>C </c><c>   1</c></rc>
    <rc><c>C </c><c>   1</c></rc>
    <rc><c>C </c><c>   1</c></rc>
    <rc><c>C </c><c>   1</c></rc>
    <rc><c>C </c><c>   1</c></rc>
    <rc><c>C </c><c>   1</c></rc>
    <rc><c>C </c><c>   1</c></rc>
    <rc><c>C </c><c>   1</c></rc>
    <rc><c>C </c><c>   1</c></rc>
    <rc><c>C </c><c>   1</c></rc>
    <rc><c>C </c><c>   1</c></rc>
    <rc><c>C </c><c>   1</c></rc>
    <rc><c>C </c><c>   1</c></rc>
    <rc><c>C </c><c>   1</c></rc>
    <rc><c>C </c><c>   1</c></rc>
    <rc><c>C </c><c>   1</c></rc>
    <rc><c>C </c><c>   1</c></rc>
    <rc><c>C </c><c>   1</c></rc>
    <rc><c>C </c><c>   1</c></rc>
    <rc><c>C </c><c>   1</c></rc>
    <rc><c>C </c><c>   1</c></rc>
    <rc><c>C </c><c>   1</c></rc>
    <rc><c>C </c><c>   1</c></rc>
    <rc><c>C </c><c>   1</c></rc>
    <rc><c>C </c><c>   1</c></rc>
    <rc><c>C </c><c>   1</c></rc>
    <rc><c>C </c><c>   1</c></rc>
    <rc><c>C </c><c>   1</c></rc>
    <rc><c>C </c><c>   1</c></rc>
    <rc><c>C </c><c>   1</c></rc>
   </set>
  </array>
  <array name="atomtypes" >
   <dimension dim="1">type</dimension>
   <field type="int">atomspertype</field>
   <field type="string">element</field>
   <field>mass</field>
   <field>valence</field>
   <field type="string">pseudopotential</field>
   <set>
    <rc><c>  64</c><c>C </c><c>     12.01100000</c><c>      4.00000000</c><c> PAW_PBE C 08Apr2002                    </c></rc>
   </set>
  </array>
 </atominfo>
 <structure name="initialpos" >
  <crystal>
   <varray name="basis" >
    <v>       7.14742000       0.00000000       0.00000000 </v>
    <v>       0.00000000       7.14742000       0.00000000 </v>
    <v>       0.00000000       0.00000000       7.14742000 </v>
   </varray>
   <i name="volume">    365.13032961 </i>
   <varray name="rec_basis" >
    <v>       0.13991063       0.00000000       0.00000000 </v>
    <v>       0.00000000       0.13991063       0.00000000 </v>
    <v>       0.00000000       0.00000000       0.13991063 </v>
   </varray>
  </crystal>
  <varray name="positions" >
   <v>       0.12500000       0.37500000       0.12500000 </v>
   <v>       0.62500000       0.37500000       0.12500000 </v>
   <v>       0.12500000       0.87500000       0.12500000 </v>
   <v>       0.62500000       0.87500000       0.12500000 </v>
   <v>       0.12500000       0.37500000       0.62500000 </v>
   <v>       0.62500000       0.37500000       0.62500000 </v>
   <v>       0.12500000       0.87500000       0.62500000 </v>
   <v>       0.62500000       0.87500000       0.62500000 </v>
   <v>       0.00000000       0.00000000       0.25000000 </v>
   <v>       0.50000000       0.00000000       0.25000000 </v>
   <v>       0.00000000       0.50000000       0.25000000 </v>
   <v>       0.50000000       0.50000000       0.25000000 </v>
   <v>       0.00000000       0.00000000       0.75000000 </v>
   <v>       0.50000000       0.00000000       0.75000000 </v>
   <v>       0.00000000       0.50000000       0.75000000 </v>
   <v>       0.50000000       0.50000000       0.75000000 </v>
   <v>       0.12500000       0.12500000       0.37500000 </v>
   <v>       0.62500000       0.12500000       0.37500000 </v>
   <v>       0.12500000       0.62500000       0.37500000 </v>
   <v>       0.62500000       0.62500000       0.37500000 </v>
   <v>       0.12500000       0.12500000       0.87500000 </v>
   <v>       0.62500000       0.12500000       0.87500000 </v>
   <v>       0.12500000       0.62500000       0.87500000 </v>
   <v>       0.62500000       0.62500000       0.87500000 </v>
   <v>       0.00000000       0.25000000       0.00000000 </v>
   <v>       0.50000000       0.25000000       0.00000000 </v>
   <v>       0.00000000       0.75000000       0.00000000 </v>
   <v>       0.50000000       0.75000000       0.00000000 </v>
   <v>       0.00000000       0.25000000       0.50000000 </v>
   <v>       0.50000000       0.25000000       0.50000000 </v>
   <v>       0.00000000       0.75000000       0.50000000 </v>
   <v>       0.50000000       0.75000000       0.50000000 </v>
   <v>       0.37500000       0.37500000       0.37500000 </v>
   <v>       0.87500000       0.37500000       0.37500000 </v>
   <v>       0.37500000       0.87500000       0.37500000 </v>
   <v>       0.87500000       0.87500000       0.37500000 </v>
   <v>       0.37500000       0.37500000       0.87500000 </v>
   <v>       0.87500000       0.37500000       0.87500000 </v>
   <v>       0.37500000       0.87500000       0.87500000 </v>
   <v>       0.87500000       0.87500000       0.87500000 </v>
   <v>       0.25000000       0.00000000       0.00000000 </v>
   <v>       0.75000000       0.00000000       0.00000000 </v>
   <v>       0.25000000       0.50000000       0.00000000 </v>
   <v>       0.75000000       0.50000000       0.00000000 </v>
   <v>       0.25000000       0.00000000       0.50000000 </v>
   <v>       0.75000000       0.00000000       0.50000000 </v>
   <v>       0.25000000       0.50000000       0.50000000 </v>
   <v>       0.75000000       0.50000000       0.50000000 </v>
   <v>       0.37500000       0.12500000       0.12500000 </v>
   <v>       0.87500000       0.12500000       0.12500000 </v>
   <v>       0.37500000       0.62500000       0.12500000 </v>
   <v>       0.87500000       0.62500000       0.12500000 </v>
   <v>       0.37500000       0.12500000       0.62500000 </v>
   <v>       0.87500000       0.12500000       0.62500000 </v>
   <v>       0.37500000       0.62500000       0.62500000 </v>
   <v>       0.87500000       0.62500000       0.62500000 </v>
   <v>       0.25000000       0.25000000       0.25000000 </v>
   <v>       0.75000000       0.25000000       0.25000000 </v>
   <v>       0.25000000       0.75000000       0.25000000 </v>
   <v>       0.75000000       0.75000000       0.25000000 </v>
   <v>       0.25000000       0.25000000       0.75000000 </v>
   <v>       0.75000000       0.25000000       0.75000000 </v>
   <v>       0.25000000       0.75000000       0.75000000 </v>
   <v>       0.75000000       0.75000000       0.75000000 </v>
  </varray>
 </structure>
 <calculation>
  <scstep>
   <time name="dav">   24.21   24.22</time>
   <time name="total">   24.32   24.40</time>
   <energy>
    <i name="alphaZ">    914.03733045 </i>
    <i name="ewald"> -11113.15822455 </i>
    <i name="hartreedc">   -567.74745993 </i>
    <i name="XCdc">    913.89076582 </i>
    <i name="pawpsdc">   2421.21235816 </i>
    <i name="pawaedc">  -2494.84305711 </i>
    <i name="eentropy">     -0.01308046 </i>
    <i name="bandstr">   1016.59487778 </i>
    <i name="atom">   9416.14232778 </i>
    <i name="e_fr_energy">    506.11583792 </i>
    <i name="e_wo_entrp">    506.12891839 </i>
    <i name="e_0_energy">    506.12237816 </i>
   </energy>
  </scstep>
  <scstep>
   <time name="dav">   29.38   29.38</time>
   <time name="total">   29.38   29.38</time>
   <energy>
    <i name="e_fr_energy">   -560.43153867 </i>
    <i name="e_wo_entrp">   -560.43153867 </i>
    <i name="e_0_energy">   -560.43153867 </i>
   </energy>
  </scstep>
  <scstep>
   <time name="dav">   30.77   30.77</time>
   <time name="total">   30.77   30.78</time>
   <energy>
    <i name="e_fr_energy">   -601.45428432 </i>
    <i name="e_wo_entrp">   -601.45428432 </i>
    <i name="e_0_energy">   -601.45428432 </i>
   </energy>
  </scstep>
  <scstep>
   <time name="dav">   30.48   30.48</time>
   <time name="total">   30.48   30.48</time>
   <energy>
    <i name="e_fr_energy">   -601.89644278 </i>
    <i name="e_wo_entrp">   -601.89644278 </i>
    <i name="e_0_energy">   -601.89644278 </i>
   </energy>
  </scstep>
  <scstep>
   <time name="dav">   29.24   29.24</time>
   <time name="total">   29.98   29.98</time>
   <energy>
    <i name="e_fr_energy">   -601.90591295 </i>
    <i name="e_wo_entrp">   -601.90591295 </i>
    <i name="e_0_energy">   -601.90591295 </i>
   </energy>
  </scstep>
  <scstep>
   <time name="dav">   27.63   27.63</time>
   <time name="total">   28.46   28.46</time>
   <energy>
    <i name="e_fr_energy">   -586.97761524 </i>
    <i name="e_wo_entrp">   -586.97761524 </i>
    <i name="e_0_energy">   -586.97761524 </i>
   </energy>
  </scstep>
  <scstep>
   <time name="dav">   28.46   28.46</time>
   <time name="total">   29.29   29.30</time>
   <energy>
    <i name="e_fr_energy">   -581.93544193 </i>
    <i name="e_wo_entrp">   -581.93544193 </i>
    <i name="e_0_energy">   -581.93544193 </i>
   </energy>
  </scstep>
  <scstep>
   <time name="dav">   28.62   28.62</time>
   <time name="total">   29.46   29.47</time>
   <energy>
    <i name="e_fr_energy">   -581.99565245 </i>
    <i name="e_wo_entrp">   -581.99565245 </i>
    <i name="e_0_energy">   -581.99565245 </i>
   </energy>
  </scstep>
  <scstep>
   <time name="dav">   29.15   29.16</time>
   <time name="total">   29.99   30.00</time>
   <energy>
    <i name="e_fr_energy">   -581.99777534 </i>
    <i name="e_wo_entrp">   -581.99777534 </i>
    <i name="e_0_energy">   -581.99777534 </i>
   </energy>
  </scstep>
  <scstep>
   <time name="dav">   27.90   27.90</time>
   <time name="total">   28.74   28.74</time>
   <energy>
    <i name="e_fr_energy">   -581.99823231 </i>
    <i name="e_wo_entrp">   -581.99823231 </i>
    <i name="e_0_energy">   -581.99823231 </i>
   </energy>
  </scstep>
  <scstep>
   <time name="dav">   29.95   29.95</time>
   <time name="total">   30.79   30.79</time>
   <energy>
    <i name="e_fr_energy">   -581.99823723 </i>
    <i name="e_wo_entrp">   -581.99823723 </i>
    <i name="e_0_energy">   -581.99823723 </i>
   </energy>
  </scstep>
  <scstep>
   <time name="dav">   30.08   30.08</time>
   <time name="total">   30.91   30.91</time>
   <energy>
    <i name="e_fr_energy">   -581.99823726 </i>
    <i name="e_wo_entrp">   -581.99823726 </i>
    <i name="e_0_energy">   -581.99823726 </i>
   </energy>
  </scstep>
  <scstep>
   <time name="dav">   25.53   25.53</time>
   <time name="total">   26.37   26.37</time>
   <energy>
    <i name="e_fr_energy">   -581.99823734 </i>
    <i name="e_wo_entrp">   -581.99823734 </i>
    <i name="e_0_energy">   -581.99823734 </i>
   </energy>
  </scstep>
  <scstep>
   <time name="dav">   22.31   22.32</time>
   <time name="total">   23.17   23.17</time>
   <energy>
    <i name="e_fr_energy">   -581.99823736 </i>
    <i name="e_wo_entrp">   -581.99823736 </i>
    <i name="e_0_energy">   -581.99823736 </i>
   </energy>
  </scstep>
  <scstep>
   <time name="dav">   21.83   21.84</time>
   <time name="total">   21.94   21.95</time>
   <energy>
    <i name="alphaZ">    914.03733045 </i>
    <i name="ewald"> -11113.15822455 </i>
    <i name="hartreedc">   -846.46126639 </i>
    <i name="XCdc">    940.17980268 </i>
    <i name="pawpsdc">   4191.89771475 </i>
    <i name="pawaedc">  -4272.74335866 </i>
    <i name="eentropy">     -0.00000000 </i>
    <i name="bandstr">    188.10743659 </i>
    <i name="atom">   9416.14232778 </i>
    <i name="e_fr_energy">   -581.99823736 </i>
    <i name="e_wo_entrp">   -581.99823736 </i>
    <i name="e_0_energy">   -581.99823736 </i>
   </energy>
  </scstep>
  <structure>
   <crystal>
    <varray name="basis" >
     <v>       7.14742000       0.00000000       0.00000000 </v>
     <v>       0.00000000       7.14742000       0.00000000 </v>
     <v>       0.00000000       0.00000000       7.14742000 </v>
    </varray>
    <i name="volume">    365.13032961 </i>
    <varray name="rec_basis" >
     <v>       0.13991063       0.00000000       0.00000000 </v>
     <v>       0.00000000       0.13991063       0.00000000 </v>
     <v>       0.00000000       0.00000000       0.13991063 </v>
    </varray>
   </crystal>
   <varray name="positions" >
    <v>       0.12500000       0.37500000       0.12500000 </v>
    <v>       0.62500000       0.37500000       0.12500000 </v>
    <v>       0.12500000       0.87500000       0.12500000 </v>
    <v>       0.62500000       0.87500000       0.12500000 </v>
    <v>       0.12500000       0.37500000       0.62500000 </v>
    <v>       0.62500000       0.37500000       0.62500000 </v>
    <v>       0.12500000       0.87500000       0.62500000 </v>
    <v>       0.62500000       0.87500000       0.62500000 </v>
    <v>       0.00000000       0.00000000       0.25000000 </v>
    <v>       0.50000000       0.00000000       0.25000000 </v>
    <v>       0.00000000       0.50000000       0.25000000 </v>
    <v>       0.50000000       0.50000000       0.25000000 </v>
    <v>       0.00000000       0.00000000       0.75000000 </v>
    <v>       0.50000000       0.00000000       0.75000000 </v>
    <v>       0.00000000       0.50000000       0.75000000 </v>
    <v>       0.50000000       0.50000000       0.75000000 </v>
    <v>       0.12500000       0.12500000       0.37500000 </v>
    <v>       0.62500000       0.12500000       0.37500000 </v>
    <v>       0.12500000       0.62500000       0.37500000 </v>
    <v>       0.62500000       0.62500000       0.37500000 </v>
    <v>       0.12500000       0.12500000       0.87500000 </v>
    <v>       0.62500000       0.12500000       0.87500000 </v>
    <v>       0.12500000       0.62500000       0.87500000 </v>
    <v>       0.62500000       0.62500000       0.87500000 </v>
    <v>       0.00000000       0.25000000       0.00000000 </v>
    <v>       0.50000000       0.25000000       0.00000000 </v>
    <v>       0.00000000       0.75000000       0.00000000 </v>
    <v>       0.50000000       0.75000000       0.00000000 </v>
    <v>       0.00000000       0.25000000       0.50000000 </v>
    <v>       0.50000000       0.25000000       0.50000000 </v>
    <v>       0.00000000       0.75000000       0.50000000 </v>
    <v>       0.50000000       0.75000000       0.50000000 </v>
    <v>       0.37500000       0.37500000       0.37500000 </v>
    <v>       0.87500000       0.37500000       0.37500000 </v>
    <v>       0.37500000       0.87500000       0.37500000 </v>
    <v>       0.87500000       0.87500000       0.37500000 </v>
    <v>       0.37500000       0.37500000       0.87500000 </v>
    <v>       0.87500000       0.37500000       0.87500000 </v>
    <v>       0.37500000       0.87500000       0.87500000 </v>
    <v>       0.87500000       0.87500000       0.87500000 </v>
    <v>       0.25000000       0.00000000       0.00000000 </v>
    <v>       0.75000000       0.00000000       0.00000000 </v>
    <v>       0.25000000       0.50000000       0.00000000 </v>
    <v>       0.75000000       0.50000000       0.00000000 </v>
    <v>       0.25000000       0.00000000       0.50000000 </v>
    <v>       0.75000000       0.00000000       0.50000000 </v>
    <v>       0.25000000       0.50000000       0.50000000 </v>
    <v>       0.75000000       0.50000000       0.50000000 </v>
    <v>       0.37500000       0.12500000       0.12500000 </v>
    <v>       0.87500000       0.12500000       0.12500000 </v>
    <v>       0.37500000       0.62500000       0.12500000 </v>
    <v>       0.87500000       0.62500000       0.12500000 </v>
    <v>       0.37500000       0.12500000       0.62500000 </v>
    <v>       0.87500000       0.12500000       0.62500000 </v>
    <v>       0.37500000       0.62500000       0.62500000 </v>
    <v>       0.87500000       0.62500000       0.62500000 </v>
    <v>       0.25000000       0.25000000       0.25000000 </v>
    <v>       0.75000000       0.25000000       0.25000000 </v>
    <v>       0.25000000       0.75000000       0.25000000 </v>
    <v>       0.75000000       0.75000000       0.25000000 </v>
    <v>       0.25000000       0.25000000       0.75000000 </v>
    <v>       0.75000000       0.25000000       0.75000000 </v>
    <v>       0.25000000       0.75000000       0.75000000 </v>
    <v>       0.75000000       0.75000000       0.75000000 </v>
   </varray>
  </structure>
  <varray name="forces" >
   <v>       0.00000000       0.00000000       0.00000000 </v>
   <v>       0.00000000       0.00000000       0.00000000 </v>
   <v>       0.00000000       0.00000000       0.00000000 </v>
   <v>       0.00000000      -0.00000000       0.00000000 </v>
   <v>       0.00000000      -0.00000000       0.00000000 </v>
   <v>      -0.00000000       0.00000000       0.00000000 </v>
   <v>       0.00000000       0.00000000       0.00000000 </v>
   <v>       0.00000000       0.00000000       0.00000000 </v>
   <v>       0.00000000       0.00000000      -0.00000000 </v>
   <v>       0.00000000      -0.00000000      -0.00000000 </v>
   <v>       0.00000000      -0.00000000      -0.00000000 </v>
   <v>      -0.00000000       0.00000000      -0.00000000 </v>
   <v>       0.00000000      -0.00000000      -0.00000000 </v>
   <v>      -0.00000000       0.00000000      -0.00000000 </v>
   <v>      -0.00000000       0.00000000      -0.00000000 </v>
   <v>       0.00000000       0.00000000      -0.00000000 </v>
   <v>      -0.00000000      -0.00000000       0.00000000 </v>
   <v>       0.00000000      -0.00000000       0.00000000 </v>
   <v>       0.00000000      -0.00000000       0.00000000 </v>
   <v>       0.00000000      -0.00000000       0.00000000 </v>
   <v>       0.00000000       0.00000000       0.00000000 </v>
   <v>       0.00000000      -0.00000000       0.00000000 </v>
   <v>       0.00000000      -0.00000000       0.00000000 </v>
   <v>      -0.00000000       0.00000000       0.00000000 </v>
   <v>      -0.00000000      -0.00000000      -0.00000000 </v>
   <v>      -0.00000000       0.00000000      -0.00000000 </v>
   <v>      -0.00000000       0.00000000      -0.00000000 </v>
   <v>      -0.00000000      -0.00000000      -0.00000000 </v>
   <v>      -0.00000000      -0.00000000      -0.00000000 </v>
   <v>      -0.00000000      -0.00000000      -0.00000000 </v>
   <v>      -0.00000000      -0.00000000      -0.00000000 </v>
   <v>      -0.00000000      -0.00000000      -0.00000000 </v>
   <v>      -0.00000000      -0.00000000       0.00000000 </v>
   <v>       0.00000000       0.00000000       0.00000000 </v>
   <v>       0.00000000       0.00000000       0.00000000 </v>
   <v>       0.00000000      -0.00000000       0.00000000 </v>
   <v>       0.00000000       0.00000000       0.00000000 </v>
   <v>       0.00000000      -0.00000000       0.00000000 </v>
   <v>       0.00000000       0.00000000       0.00000000 </v>
   <v>      -0.00000000       0.00000000       0.00000000 </v>
   <v>      -0.00000000      -0.00000000      -0.00000000 </v>
   <v>      -0.00000000      -0.00000000      -0.00000000 </v>
   <v>      -0.00000000      -0.00000000      -0.00000000 </v>
   <v>      -0.00000000      -0.00000000      -0.00000000 </v>
   <v>      -0.00000000      -0.00000000      -0.00000000 </v>
   <v>      -0.00000000      -0.00000000      -0.00000000 </v>
   <v>      -0.00000000      -0.00000000       0.00000000 </v>
   <v>       0.00000000       0.00000000      -0.00000000 </v>
   <v>       0.00000000       0.00000000       0.00000000 </v>
   <v>       0.00000000      -0.00000000       0.00000000 </v>
   <v>       0.00000000       0.00000000       0.00000000 </v>
   <v>       0.00000000       0.00000000       0.00000000 </v>
   <v>       0.00000000       0.00000000       0.00000000 </v>
   <v>       0.00000000       0.00000000       0.00000000 </v>
   <v>       0.00000000       0.00000000       0.00000000 </v>
   <v>       0.00000000       0.00000000       0.00000000 </v>
   <v>      -0.00000000       0.00000000      -0.00000000 </v>
   <v>       0.00000000      -0.00000000      -0.00000000 </v>
   <v>      -0.00000000      -0.00000000      -0.00000000 </v>
   <v>      -0.00000000       0.00000000       0.00000000 </v>
   <v>       0.00000000      -0.00000000      -0.00000000 </v>
   <v>      -0.00000000       0.00000000      -0.00000000 </v>
   <v>      -0.00000000       0.00000000      -0.00000000 </v>
   <v>      -0.00000000      -0.00000000      -0.00000000 </v>
  </varray>
  <varray name="stress" >
   <v>     -43.30656950      -0.00000000       0.00000000 </v>
   <v>       0.00000000     -43.30656950       0.00000000 </v>
   <v>      -0.00000000      -0.00000000     -43.30656950 </v>
  </varray>
  <energy>
   <i name="e_fr_energy">   -581.99823736 </i>
   <i name="e_wo_entrp">   -581.99823736 </i>
   <i name="e_0_energy">     -0.00000000 </i>
  </energy>
  <kpoints>
   <generation param="Gamma">
    <v type="int" name="divisions">       8        8        8 </v>
    <v name="usershift">      0.00000000       0.00000000       0.00000000 </v>
    <v name="genvec1">      0.12500000       0.00000000       0.00000000 </v>
    <v name="genvec2">      0.00000000       0.12500000       0.00000000 </v>
    <v name="genvec3">      0.00000000       0.00000000       0.12500000 </v>
    <v name="shift">      0.00000000       0.00000000       0.00000000 </v>
   </generation>
   <varray name="kpointlist" >
    <v>       0.00000000       0.00000000       0.00000000 </v>
    <v>       0.12500000       0.00000000       0.00000000 </v>
    <v>       0.25000000       0.00000000       0.00000000 </v>
    <v>       0.37500000       0.00000000       0.00000000 </v>
    <v>       0.50000000       0.00000000       0.00000000 </v>
    <v>       0.00000000       0.12500000       0.00000000 </v>
    <v>       0.12500000       0.12500000       0.00000000 </v>
    <v>       0.25000000       0.12500000       0.00000000 </v>
    <v>       0.37500000       0.12500000       0.00000000 </v>
    <v>       0.50000000       0.12500000       0.00000000 </v>
    <v>       0.00000000       0.25000000       0.00000000 </v>
    <v>       0.12500000       0.25000000       0.00000000 </v>
    <v>       0.25000000       0.25000000       0.00000000 </v>
    <v>       0.37500000       0.25000000       0.00000000 </v>
    <v>       0.50000000       0.25000000       0.00000000 </v>
    <v>       0.00000000       0.37500000       0.00000000 </v>
    <v>       0.12500000       0.37500000       0.00000000 </v>
    <v>       0.25000000       0.37500000       0.00000000 </v>
    <v>       0.37500000       0.37500000       0.00000000 </v>
    <v>       0.50000000       0.37500000       0.00000000 </v>
    <v>       0.00000000       0.50000000       0.00000000 </v>
    <v>       0.12500000       0.50000000       0.00000000 </v>
    <v>       0.25000000       0.50000000       0.00000000 </v>
    <v>       0.37500000       0.50000000       0.00000000 </v>
    <v>       0.50000000       0.50000000       0.00000000 </v>
    <v>       0.00000000       0.12500000       0.12500000 </v>
    <v>       0.12500000       0.12500000       0.12500000 </v>
    <v>       0.25000000       0.12500000       0.12500000 </v>
    <v>       0.37500000       0.12500000       0.12500000 </v>
    <v>       0.50000000       0.12500000       0.12500000 </v>
    <v>       0.00000000       0.25000000       0.12500000 </v>
    <v>       0.12500000       0.25000000       0.12500000 </v>
    <v>       0.25000000       0.25000000       0.12500000 </v>
    <v>       0.37500000       0.25000000       0.12500000 </v>
    <v>       0.50000000       0.25000000       0.12500000 </v>
    <v>       0.00000000       0.37500000       0.12500000 </v>
    <v>       0.12500000       0.37500000       0.12500000 </v>
    <v>       0.25000000       0.37500000       0.12500000 </v>
    <v>       0.37500000       0.37500000       0.12500000 </v>
    <v>       0.50000000       0.37500000       0.12500000 </v>
    <v>       0.00000000       0.50000000       0.12500000 </v>
    <v>       0.12500000       0.50000000       0.12500000 </v>
    <v>       0.25000000       0.50000000       0.12500000 </v>
    <v>       0.37500000       0.50000000       0.12500000 </v>
    <v>       0.50000000       0.50000000       0.12500000 </v>
    <v>       0.00000000      -0.37500000       0.12500000 </v>
    <v>       0.12500000      -0.37500000       0.12500000 </v>
    <v>       0.25000000      -0.37500000       0.12500000 </v>
    <v>       0.37500000      -0.37500000       0.12500000 </v>
    <v>       0.50000000      -0.37500000       0.12500000 </v>
    <v>       0.00000000      -0.25000000       0.12500000 </v>
    <v>       0.12500000      -0.25000000       0.12500000 </v>
    <v>       0.25000000      -0.25000000       0.12500000 </v>
    <v>       0.37500000      -0.25000000       0.12500000 </v>
    <v>       0.50000000      -0.25000000       0.12500000 </v>
    <v>       0.00000000      -0.12500000       0.12500000 </v>
    <v>       0.12500000      -0.12500000       0.12500000 </v>
    <v>       0.25000000      -0.12500000       0.12500000 </v>
    <v>       0.37500000      -0.12500000       0.12500000 </v>
    <v>       0.50000000      -0.12500000       0.12500000 </v>
    <v>       0.00000000       0.25000000       0.25000000 </v>
    <v>       0.12500000       0.25000000       0.25000000 </v>
    <v>       0.25000000       0.25000000       0.25000000 </v>
    <v>       0.37500000       0.25000000       0.25000000 </v>
    <v>       0.50000000       0.25000000       0.25000000 </v>
    <v>       0.00000000       0.37500000       0.25000000 </v>
    <v>       0.12500000       0.37500000       0.25000000 </v>
    <v>       0.25000000       0.37500000       0.25000000 </v>
    <v>       0.37500000       0.37500000       0.25000000 </v>
    <v>       0.50000000       0.37500000       0.25000000 </v>
    <v>       0.00000000       0.50000000       0.25000000 </v>
    <v>       0.12500000       0.50000000       0.25000000 </v>
    <v>       0.25000000       0.50000000       0.25000000 </v>
    <v>       0.37500000       0.50000000       0.25000000 </v>
    <v>       0.50000000       0.50000000       0.25000000 </v>
    <v>       0.00000000      -0.37500000       0.25000000 </v>
    <v>       0.12500000      -0.37500000       0.25000000 </v>
    <v>       0.25000000      -0.37500000       0.25000000 </v>
    <v>       0.37500000      -0.37500000       0.25000000 </v>
    <v>       0.50000000      -0.37500000       0.25000000 </v>
    <v>       0.00000000      -0.25000000       0.25000000 </v>
    <v>       0.12500000      -0.25000000       0.25000000 </v>
    <v>       0.25000000      -0.25000000       0.25000000 </v>
    <v>       0.37500000      -0.25000000       0.25000000 </v>
    <v>       0.50000000      -0.25000000       0.25000000 </v>
    <v>       0.00000000       0.37500000       0.37500000 </v>
    <v>       0.12500000       0.37500000       0.37500000 </v>
    <v>       0.25000000       0.37500000       0.37500000 </v>
    <v>       0.37500000       0.37500000       0.37500000 </v>
    <v>       0.50000000       0.37500000       0.37500000 </v>
    <v>       0.00000000       0.50000000       0.37500000 </v>
    <v>       0.12500000       0.50000000       0.37500000 </v>
    <v>       0.25000000       0.50000000       0.37500000 </v>
    <v>       0.37500000       0.50000000       0.37500000 </v>
    <v>       0.50000000       0.50000000       0.37500000 </v>
    <v>       0.00000000      -0.37500000       0.37500000 </v>
    <v>       0.12500000      -0.37500000       0.37500000 </v>
    <v>       0.25000000      -0.37500000       0.37500000 </v>
    <v>       0.37500000      -0.37500000       0.37500000 </v>
    <v>       0.50000000      -0.37500000       0.37500000 </v>
    <v>       0.00000000       0.50000000       0.50000000 </v>
    <v>       0.12500000       0.50000000       0.50000000 </v>
    <v>       0.25000000       0.50000000       0.50000000 </v>
    <v>       0.37500000       0.50000000       0.50000000 </v>
    <v>       0.50000000       0.50000000       0.50000000 </v>
   </varray>
   <varray name="weights" >
    <v>       0.00195312 </v>
    <v>       0.00390625 </v>
    <v>       0.00390625 </v>
    <v>       0.00390625 </v>
    <v>       0.00195312 </v>
    <v>       0.00781250 </v>
    <v>       0.01562500 </v>
    <v>       0.01562500 </v>
    <v>       0.01562500 </v>
    <v>       0.00781250 </v>
    <v>       0.00781250 </v>
    <v>       0.01562500 </v>
    <v>       0.01562500 </v>
    <v>       0.01562500 </v>
    <v>       0.00781250 </v>
    <v>       0.00781250 </v>
    <v>       0.01562500 </v>
    <v>       0.01562500 </v>
    <v>       0.01562500 </v>
    <v>       0.00781250 </v>
    <v>       0.00390625 </v>
    <v>       0.00781250 </v>
    <v>       0.00781250 </v>
    <v>       0.00781250 </v>
    <v>       0.00390625 </v>
    <v>       0.00390625 </v>
    <v>       0.00781250 </v>
    <v>       0.00781250 </v>
    <v>       0.00781250 </v>
    <v>       0.00390625 </v>
    <v>       0.00781250 </v>
    <v>       0.01562500 </v>
    <v>       0.01562500 </v>
    <v>       0.01562500 </v>
    <v>       0.00781250 </v>
    <v>       0.00781250 </v>
    <v>       0.01562500 </v>
    <v>       0.01562500 </v>
    <v>       0.01562500 </v>
    <v>       0.00781250 </v>
    <v>       0.00781250 </v>
    <v>       0.01562500 </v>
    <v>       0.01562500 </v>
    <v>       0.01562500 </v>
    <v>       0.00781250 </v>
    <v>       0.00781250 </v>
    <v>       0.01562500 </v>
    <v>       0.01562500 </v>
    <v>       0.01562500 </v>
    <v>       0.00781250 </v>
    <v>       0.00781250 </v>
    <v>       0.01562500 </v>
    <v>       0.01562500 </v>
    <v>       0.01562500 </v>
    <v>       0.00781250 </v>
    <v>       0.00390625 </v>
    <v>       0.00781250 </v>
    <v>       0.00781250 </v>
    <v>       0.00781250 </v>
    <v>       0.00390625 </v>
    <v>       0.00390625 </v>
    <v>       0.00781250 </v>
    <v>       0.00781250 </v>
    <v>       0.00781250 </v>
    <v>       0.00390625 </v>
    <v>       0.00781250 </v>
    <v>       0.01562500 </v>
    <v>       0.01562500 </v>
    <v>       0.01562500 </v>
    <v>       0.00781250 </v>
    <v>       0.00781250 </v>
    <v>       0.01562500 </v>
    <v>       0.01562500 </v>
    <v>       0.01562500 </v>
    <v>       0.00781250 </v>
    <v>       0.00781250 </v>
    <v>       0.01562500 </v>
    <v>       0.01562500 </v>
    <v>       0.01562500 </v>
    <v>       0.00781250 </v>
    <v>       0.00390625 </v>
    <v>       0.00781250 </v>
    <v>       0.00781250 </v>
    <v>       0.00781250 </v>
    <v>       0.00390625 </v>
    <v>       0.00390625 </v>
    <v>       0.00781250 </v>
    <v>       0.00781250 </v>
    <v>       0.00781250 </v>
    <v>       0.00390625 </v>
    <v>       0.00781250 </v>
    <v>       0.01562500 </v>
    <v>       0.01562500 </v>
    <v>       0.01562500 </v>
    <v>       0.00781250 </v>
    <v>       0.00390625 </v>
    <v>       0.00781250 </v>
    <v>       0.00781250 </v>
    <v>       0.00781250 </v>
    <v>       0.00390625 </v>
    <v>       0.00195312 </v>
    <v>       0.00390625 </v>
    <v>       0.00390625 </v>
    <v>       0.00390625 </v>
    <v>       0.00195312 </v>
   </varray>
  </kpoints>
  <scstep>
   <time name="total">   92.04   92.04</time>
   <energy>
    <i name="e_fr_energy">   -364.57394937 </i>
    <i name="e_wo_entrp">   -364.57394937 </i>
    <i name="e_0_energy">   -364.57394937 </i>
   </energy>
  </scstep>
  <scstep>
   <time name="total">   65.27   65.27</time>
   <energy>
    <i name="e_fr_energy">   -309.96253338 </i>
    <i name="e_wo_entrp">   -309.96253338 </i>
    <i name="e_0_energy">   -309.96253338 </i>
   </energy>
  </scstep>
  <scstep>
   <time name="total">   66.78   66.79</time>
   <energy>
    <i name="e_fr_energy">   -309.57569658 </i>
    <i name="e_wo_entrp">   -309.57569658 </i>
    <i name="e_0_energy">   -309.57569658 </i>
   </energy>
  </scstep>
  <scstep>
   <time name="total">   67.92   67.92</time>
   <energy>
    <i name="e_fr_energy">   -310.24852459 </i>
    <i name="e_wo_entrp">   -310.24852459 </i>
    <i name="e_0_energy">   -310.24852459 </i>
   </energy>
  </scstep>
  <scstep>
   <time name="total">   69.46   69.46</time>
   <energy>
    <i name="e_fr_energy">   -310.46110406 </i>
    <i name="e_wo_entrp">   -310.46110406 </i>
    <i name="e_0_energy">   -310.46110406 </i>
   </energy>
  </scstep>
  <scstep>
   <time name="total">   70.14   70.14</time>
   <energy>
    <i name="e_fr_energy">   -310.42011581 </i>
    <i name="e_wo_entrp">   -310.42011581 </i>
    <i name="e_0_energy">   -310.42011581 </i>
   </energy>
  </scstep>
  <scstep>
   <time name="total">   70.76   70.76</time>
   <energy>
    <i name="e_fr_energy">   -310.39840664 </i>
    <i name="e_wo_entrp">   -310.39840664 </i>
    <i name="e_0_energy">   -310.39840664 </i>
   </energy>
  </scstep>
  <scstep>
   <time name="total">   71.72   71.72</time>
   <energy>
    <i name="e_fr_energy">   -310.39714301 </i>
    <i name="e_wo_entrp">   -310.39714301 </i>
    <i name="e_0_energy">   -310.39714301 </i>
   </energy>
  </scstep>
  <scstep>
   <time name="total">   72.52   72.53</time>
   <energy>
    <i name="e_fr_energy">   -310.39655366 </i>
    <i name="e_wo_entrp">   -310.39655366 </i>
    <i name="e_0_energy">   -310.39655366 </i>
   </energy>
  </scstep>
  <scstep>
   <time name="total">   73.53   73.54</time>
   <energy>
    <i name="e_fr_energy">   -310.39671413 </i>
    <i name="e_wo_entrp">   -310.39671413 </i>
    <i name="e_0_energy">   -310.39671413 </i>
   </energy>
  </scstep>
  <scstep>
   <time name="total">   73.02   73.02</time>
   <energy>
    <i name="e_fr_energy">   -310.39671807 </i>
    <i name="e_wo_entrp">   -310.39671807 </i>
    <i name="e_0_energy">   -310.39671807 </i>
   </energy>
  </scstep>
  <kpoints>
   <generation param="Gamma">
    <v type="int" name="divisions">       8        8        8 </v>
    <v name="usershift">      0.00000000       0.00000000       0.00000000 </v>
    <v name="genvec1">      0.12500000       0.00000000       0.00000000 </v>
    <v name="genvec2">      0.00000000       0.12500000       0.00000000 </v>
    <v name="genvec3">      0.00000000       0.00000000       0.12500000 </v>
    <v name="shift">      0.00000000       0.00000000       0.00000000 </v>
   </generation>
   <varray name="kpointlist" >
    <v>       0.00000000       0.00000000       0.00000000 </v>
    <v>       0.12500000       0.00000000       0.00000000 </v>
    <v>       0.25000000       0.00000000       0.00000000 </v>
    <v>       0.37500000       0.00000000       0.00000000 </v>
    <v>       0.50000000       0.00000000       0.00000000 </v>
    <v>       0.12500000       0.12500000       0.00000000 </v>
    <v>       0.25000000       0.12500000       0.00000000 </v>
    <v>       0.37500000       0.12500000       0.00000000 </v>
    <v>       0.50000000       0.12500000       0.00000000 </v>
    <v>       0.25000000       0.25000000       0.00000000 </v>
    <v>       0.37500000       0.25000000       0.00000000 </v>
    <v>       0.50000000       0.25000000       0.00000000 </v>
    <v>       0.37500000       0.37500000       0.00000000 </v>
    <v>       0.50000000       0.37500000       0.00000000 </v>
    <v>       0.50000000       0.50000000       0.00000000 </v>
    <v>       0.12500000       0.12500000       0.12500000 </v>
    <v>       0.25000000       0.12500000       0.12500000 </v>
    <v>       0.37500000       0.12500000       0.12500000 </v>
    <v>       0.50000000       0.12500000       0.12500000 </v>
    <v>       0.25000000       0.25000000       0.12500000 </v>
    <v>       0.37500000       0.25000000       0.12500000 </v>
    <v>       0.50000000       0.25000000       0.12500000 </v>
    <v>       0.37500000       0.37500000       0.12500000 </v>
    <v>       0.50000000       0.37500000       0.12500000 </v>
    <v>       0.50000000       0.50000000       0.12500000 </v>
    <v>       0.25000000       0.25000000       0.25000000 </v>
    <v>       0.37500000       0.25000000       0.25000000 </v>
    <v>       0.50000000       0.25000000       0.25000000 </v>
    <v>       0.37500000       0.37500000       0.25000000 </v>
    <v>       0.50000000       0.37500000       0.25000000 </v>
    <v>       0.50000000       0.50000000       0.25000000 </v>
    <v>       0.37500000       0.37500000       0.37500000 </v>
    <v>       0.50000000       0.37500000       0.37500000 </v>
    <v>       0.50000000       0.50000000       0.37500000 </v>
    <v>       0.50000000       0.50000000       0.50000000 </v>
   </varray>
   <varray name="weights" >
    <v>       0.00195312 </v>
    <v>       0.01171875 </v>
    <v>       0.01171875 </v>
    <v>       0.01171875 </v>
    <v>       0.00585938 </v>
    <v>       0.02343750 </v>
    <v>       0.04687500 </v>
    <v>       0.04687500 </v>
    <v>       0.02343750 </v>
    <v>       0.02343750 </v>
    <v>       0.04687500 </v>
    <v>       0.02343750 </v>
    <v>       0.02343750 </v>
    <v>       0.02343750 </v>
    <v>       0.00585938 </v>
    <v>       0.01562500 </v>
    <v>       0.04687500 </v>
    <v>       0.04687500 </v>
    <v>       0.02343750 </v>
    <v>       0.04687500 </v>
    <v>       0.09375000 </v>
    <v>       0.04687500 </v>
    <v>       0.04687500 </v>
    <v>       0.04687500 </v>
    <v>       0.01171875 </v>
    <v>       0.01562500 </v>
    <v>       0.04687500 </v>
    <v>       0.02343750 </v>
    <v>       0.04687500 </v>
    <v>       0.04687500 </v>
    <v>       0.01171875 </v>
    <v>       0.01562500 </v>
    <v>       0.02343750 </v>
    <v>       0.01171875 </v>
    <v>       0.00195312 </v>
   </varray>
  </kpoints>
  <dynmat>
   <varray name="hessian" >
    <v>      -3.66182595      -0.00000000      -0.00000000       0.01371892      -0.00000000      -0.00000000       0.00779484      -0.00000000      -0.00000000       0.00975633      -0.00000000       0.00000000       0.00779484      -0.00000000       0.00000000       0.00975633      -0.00000000       0.00000000      -0.04762579      -0.00000000      -0.00000000       0.00439086      -0.00000000      -0.00000000      -0.01306999      -0.00783964       0.00222347       0.00697500      -0.00884357      -0.01800397       0.75900667      -0.17482590      -0.17482590      -0.00551082      -0.00783964      -0.00783964       0.02874176      -0.01800397      -0.01800397      -0.00279579      -0.00257406      -0.00257406      -0.01306999       0.00222347      -0.00783964       0.00697500      -0.01800397      -0.00884357      -0.11573943       0.05985356      -0.05985356      -0.00484370       0.00319295      -0.00319295      -0.11573943       0.05985356       0.05985356      -0.00484370       0.00319295       0.00319295      -0.11573943      -0.05985356      -0.05985356      -0.00484370      -0.00319295      -0.00319295      -0.11573943      -0.05985356       0.05985356      -0.00484370      -0.00319295       0.00319295       0.75900667       0.17482590       0.17482590      -0.00551082       0.00783964       0.00783964      -0.01306999       0.00783964      -0.00222347       0.00697500       0.00884357       0.01800397      -0.01306999      -0.00222347       0.00783964       0.00697500       0.01800397       0.00884357       0.02874176       0.01800397       0.01800397      -0.00279579       0.00257406       0.00257406       0.12674346      -0.05985356       0.13174434       0.12674346      -0.05985356      -0.13174434       0.00695214      -0.00319295      -0.00623232       0.00695214      -0.00319295       0.00623232       0.12674346       0.05985356      -0.13174434       0.12674346       0.05985356       0.13174434       0.00695214       0.00319295       0.00623232       0.00695214       0.00319295      -0.00623232      -0.01306999       0.00783964       0.00222347       0.00697500       0.00884357      -0.01800397       0.75900667       0.17482590      -0.17482590      -0.00551082       0.00783964      -0.00783964       0.02874176       0.01800397      -0.01800397      -0.00279579       0.00257406      -0.00257406      -0.01306999      -0.00222347      -0.00783964       0.00697500       0.01800397      -0.00884357       0.12674346      -0.13174434       0.05985356       0.12674346       0.13174434       0.05985356       0.12674346       0.13174434      -0.05985356       0.12674346      -0.13174434      -0.05985356       0.00695214       0.00623232       0.00319295       0.00695214      -0.00623232       0.00319295       0.00695214      -0.00623232      -0.00319295       0.00695214       0.00623232      -0.00319295       0.75900667      -0.17482590       0.17482590      -0.00551082      -0.00783964       0.00783964      -0.01306999      -0.00783964      -0.00222347       0.00697500      -0.00884357       0.01800397      -0.01306999       0.00222347       0.00783964       0.00697500      -0.01800397       0.00884357       0.02874176      -0.01800397       0.01800397      -0.00279579      -0.00257406       0.00257406 </v>
    <v>      -0.00000000      -3.66182595      -0.00000000      -0.00000000       0.00779484      -0.00000000      -0.00000000       0.01371892      -0.00000000      -0.00000000       0.00975633       0.00000000      -0.00000000       0.00779484       0.00000000      -0.00000000      -0.04762579      -0.00000000      -0.00000000       0.00975633       0.00000000      -0.00000000       0.00439086      -0.00000000      -0.00783964      -0.00551082       0.00783964      -0.00884357       0.00697500       0.01800397      -0.17482590       0.75900667       0.17482590      -0.00783964      -0.01306999      -0.00222347      -0.01800397       0.00697500       0.00884357      -0.00257406      -0.00279579       0.00257406       0.00222347      -0.01306999       0.00783964      -0.01800397       0.02874176       0.01800397      -0.05985356       0.12674346      -0.13174434      -0.00319295       0.00695214       0.00623232      -0.05985356       0.12674346       0.13174434      -0.00319295       0.00695214      -0.00623232       0.05985356       0.12674346       0.13174434       0.00319295       0.00695214      -0.00623232       0.05985356       0.12674346      -0.13174434       0.00319295       0.00695214       0.00623232       0.17482590       0.75900667       0.17482590       0.00783964      -0.01306999      -0.00222347       0.00783964      -0.00551082       0.00783964       0.00884357       0.00697500       0.01800397      -0.00222347      -0.01306999       0.00783964       0.01800397       0.02874176       0.01800397       0.01800397       0.00697500       0.00884357       0.00257406      -0.00279579       0.00257406       0.05985356      -0.11573943       0.05985356       0.05985356      -0.11573943      -0.05985356       0.00319295      -0.00484370       0.00319295       0.00319295      -0.00484370      -0.00319295      -0.05985356      -0.11573943       0.05985356      -0.05985356      -0.11573943      -0.05985356      -0.00319295      -0.00484370       0.00319295      -0.00319295      -0.00484370      -0.00319295       0.00783964      -0.00551082      -0.00783964       0.00884357       0.00697500      -0.01800397       0.17482590       0.75900667      -0.17482590       0.00783964      -0.01306999       0.00222347       0.01800397       0.00697500      -0.00884357       0.00257406      -0.00279579      -0.00257406      -0.00222347      -0.01306999      -0.00783964       0.01800397       0.02874176      -0.01800397      -0.13174434       0.12674346      -0.05985356       0.13174434       0.12674346       0.05985356       0.13174434       0.12674346      -0.05985356      -0.13174434       0.12674346       0.05985356       0.00623232       0.00695214      -0.00319295      -0.00623232       0.00695214       0.00319295      -0.00623232       0.00695214      -0.00319295       0.00623232       0.00695214       0.00319295      -0.17482590       0.75900667      -0.17482590      -0.00783964      -0.01306999       0.00222347      -0.00783964      -0.00551082      -0.00783964      -0.00884357       0.00697500      -0.01800397       0.00222347      -0.01306999      -0.00783964      -0.01800397       0.02874176      -0.01800397      -0.01800397       0.00697500      -0.00884357      -0.00257406      -0.00279579      -0.00257406 </v>
    <v>      -0.00000000      -0.00000000      -3.66182595      -0.00000000      -0.00000000       0.00779484      -0.00000000      -0.00000000       0.00779484       0.00000000       0.00000000      -0.04762579       0.00000000       0.00000000       0.01371892       0.00000000      -0.00000000       0.00975633      -0.00000000       0.00000000       0.00975633      -0.00000000      -0.00000000       0.00439086       0.00222347       0.00783964      -0.01306999      -0.01800397       0.01800397       0.02874176      -0.17482590       0.17482590       0.75900667      -0.00783964      -0.00222347      -0.01306999      -0.01800397       0.00884357       0.00697500      -0.00257406       0.00257406      -0.00279579      -0.00783964       0.00783964      -0.00551082      -0.00884357       0.01800397       0.00697500       0.05985356      -0.13174434       0.12674346       0.00319295       0.00623232       0.00695214      -0.05985356       0.13174434       0.12674346      -0.00319295      -0.00623232       0.00695214       0.05985356       0.13174434       0.12674346       0.00319295      -0.00623232       0.00695214      -0.05985356      -0.13174434       0.12674346      -0.00319295       0.00623232       0.00695214       0.17482590       0.17482590       0.75900667       0.00783964      -0.00222347      -0.01306999      -0.00222347       0.00783964      -0.01306999       0.01800397       0.01800397       0.02874176       0.00783964       0.00783964      -0.00551082       0.00884357       0.01800397       0.00697500       0.01800397       0.00884357       0.00697500       0.00257406       0.00257406      -0.00279579       0.13174434      -0.05985356       0.12674346      -0.13174434       0.05985356       0.12674346      -0.00623232      -0.00319295       0.00695214       0.00623232       0.00319295       0.00695214      -0.13174434      -0.05985356       0.12674346       0.13174434       0.05985356       0.12674346       0.00623232      -0.00319295       0.00695214      -0.00623232       0.00319295       0.00695214       0.00222347      -0.00783964      -0.01306999      -0.01800397      -0.01800397       0.02874176      -0.17482590      -0.17482590       0.75900667      -0.00783964       0.00222347      -0.01306999      -0.01800397      -0.00884357       0.00697500      -0.00257406      -0.00257406      -0.00279579      -0.00783964      -0.00783964      -0.00551082      -0.00884357      -0.01800397       0.00697500      -0.05985356       0.05985356      -0.11573943      -0.05985356      -0.05985356      -0.11573943       0.05985356       0.05985356      -0.11573943       0.05985356      -0.05985356      -0.11573943      -0.00319295       0.00319295      -0.00484370      -0.00319295      -0.00319295      -0.00484370       0.00319295       0.00319295      -0.00484370       0.00319295      -0.00319295      -0.00484370       0.17482590      -0.17482590       0.75900667       0.00783964       0.00222347      -0.01306999      -0.00222347      -0.00783964      -0.01306999       0.01800397      -0.01800397       0.02874176       0.00783964      -0.00783964      -0.00551082       0.00884357      -0.01800397       0.00697500       0.01800397      -0.00884357       0.00697500       0.00257406      -0.00257406      -0.00279579 </v>
    <v>       0.01371892      -0.00000000      -0.00000000      -3.66182595      -0.00000000      -0.00000000       0.00975633      -0.00000000       0.00000000       0.00779484      -0.00000000      -0.00000000       0.00975633      -0.00000000       0.00000000       0.00779484      -0.00000000       0.00000000       0.00439086      -0.00000000      -0.00000000      -0.04762579      -0.00000000      -0.00000000       0.00697500      -0.00884357      -0.01800397      -0.01306999      -0.00783964       0.00222347      -0.00551082      -0.00783964      -0.00783964       0.75900667      -0.17482590      -0.17482590      -0.00279579      -0.00257406      -0.00257406       0.02874176      -0.01800397      -0.01800397       0.00697500      -0.01800397      -0.00884357      -0.01306999       0.00222347      -0.00783964      -0.00484370       0.00319295      -0.00319295      -0.11573943       0.05985356      -0.05985356      -0.00484370       0.00319295       0.00319295      -0.11573943       0.05985356       0.05985356      -0.00484370      -0.00319295      -0.00319295      -0.11573943      -0.05985356      -0.05985356      -0.00484370      -0.00319295       0.00319295      -0.11573943      -0.05985356       0.05985356      -0.00551082       0.00783964       0.00783964       0.75900667       0.17482590       0.17482590       0.00697500       0.00884357       0.01800397      -0.01306999       0.00783964      -0.00222347       0.00697500       0.01800397       0.00884357      -0.01306999      -0.00222347       0.00783964      -0.00279579       0.00257406       0.00257406       0.02874176       0.01800397       0.01800397       0.12674346      -0.05985356      -0.13174434       0.12674346      -0.05985356       0.13174434       0.00695214      -0.00319295       0.00623232       0.00695214      -0.00319295      -0.00623232       0.12674346       0.05985356       0.13174434       0.12674346       0.05985356      -0.13174434       0.00695214       0.00319295      -0.00623232       0.00695214       0.00319295       0.00623232       0.00697500       0.00884357      -0.01800397      -0.01306999       0.00783964       0.00222347      -0.00551082       0.00783964      -0.00783964       0.75900667       0.17482590      -0.17482590      -0.00279579       0.00257406      -0.00257406       0.02874176       0.01800397      -0.01800397       0.00697500       0.01800397      -0.00884357      -0.01306999      -0.00222347      -0.00783964       0.12674346       0.13174434       0.05985356       0.12674346      -0.13174434       0.05985356       0.12674346      -0.13174434      -0.05985356       0.12674346       0.13174434      -0.05985356       0.00695214      -0.00623232       0.00319295       0.00695214       0.00623232       0.00319295       0.00695214       0.00623232      -0.00319295       0.00695214      -0.00623232      -0.00319295      -0.00551082      -0.00783964       0.00783964       0.75900667      -0.17482590       0.17482590       0.00697500      -0.00884357       0.01800397      -0.01306999      -0.00783964      -0.00222347       0.00697500      -0.01800397       0.00884357      -0.01306999       0.00222347       0.00783964      -0.00279579      -0.00257406       0.00257406       0.02874176      -0.01800397       0.01800397 </v>
    <v>      -0.00000000       0.00779484      -0.00000000      -0.00000000      -3.66182595      -0.00000000      -0.00000000       0.00975633       0.00000000      -0.00000000       0.01371892      -0.00000000      -0.00000000      -0.04762579      -0.00000000      -0.00000000       0.00779484       0.00000000      -0.00000000       0.00439086      -0.00000000      -0.00000000       0.00975633       0.00000000      -0.00884357       0.00697500       0.01800397      -0.00783964      -0.00551082       0.00783964      -0.00783964      -0.01306999      -0.00222347      -0.17482590       0.75900667       0.17482590      -0.00257406      -0.00279579       0.00257406      -0.01800397       0.00697500       0.00884357      -0.01800397       0.02874176       0.01800397       0.00222347      -0.01306999       0.00783964      -0.00319295       0.00695214       0.00623232      -0.05985356       0.12674346      -0.13174434      -0.00319295       0.00695214      -0.00623232      -0.05985356       0.12674346       0.13174434       0.00319295       0.00695214      -0.00623232       0.05985356       0.12674346       0.13174434       0.00319295       0.00695214       0.00623232       0.05985356       0.12674346      -0.13174434       0.00783964      -0.01306999      -0.00222347       0.17482590       0.75900667       0.17482590       0.00884357       0.00697500       0.01800397       0.00783964      -0.00551082       0.00783964       0.01800397       0.02874176       0.01800397      -0.00222347      -0.01306999       0.00783964       0.00257406      -0.00279579       0.00257406       0.01800397       0.00697500       0.00884357       0.05985356      -0.11573943      -0.05985356       0.05985356      -0.11573943       0.05985356       0.00319295      -0.00484370      -0.00319295       0.00319295      -0.00484370       0.00319295      -0.05985356      -0.11573943      -0.05985356      -0.05985356      -0.11573943       0.05985356      -0.00319295      -0.00484370      -0.00319295      -0.00319295      -0.00484370       0.00319295       0.00884357       0.00697500      -0.01800397       0.00783964      -0.00551082      -0.00783964       0.00783964      -0.01306999       0.00222347       0.17482590       0.75900667      -0.17482590       0.00257406      -0.00279579      -0.00257406       0.01800397       0.00697500      -0.00884357       0.01800397       0.02874176      -0.01800397      -0.00222347      -0.01306999      -0.00783964       0.13174434       0.12674346       0.05985356      -0.13174434       0.12674346      -0.05985356      -0.13174434       0.12674346       0.05985356       0.13174434       0.12674346      -0.05985356      -0.00623232       0.00695214       0.00319295       0.00623232       0.00695214      -0.00319295       0.00623232       0.00695214       0.00319295      -0.00623232       0.00695214      -0.00319295      -0.00783964      -0.01306999       0.00222347      -0.17482590       0.75900667      -0.17482590      -0.00884357       0.00697500      -0.01800397      -0.00783964      -0.00551082      -0.00783964      -0.01800397       0.02874176      -0.01800397       0.00222347      -0.01306999      -0.00783964      -0.00257406      -0.00279579      -0.00257406      -0.01800397       0.00697500      -0.00884357 </v>
    <v>      -0.00000000      -0.00000000       0.00779484      -0.00000000      -0.00000000      -3.66182595       0.00000000       0.00000000      -0.04762579      -0.00000000      -0.00000000       0.00779484       0.00000000      -0.00000000       0.00975633       0.00000000       0.00000000       0.01371892      -0.00000000      -0.00000000       0.00439086      -0.00000000       0.00000000       0.00975633      -0.01800397       0.01800397       0.02874176       0.00222347       0.00783964      -0.01306999      -0.00783964      -0.00222347      -0.01306999      -0.17482590       0.17482590       0.75900667      -0.00257406       0.00257406      -0.00279579      -0.01800397       0.00884357       0.00697500      -0.00884357       0.01800397       0.00697500      -0.00783964       0.00783964      -0.00551082       0.00319295       0.00623232       0.00695214       0.05985356      -0.13174434       0.12674346      -0.00319295      -0.00623232       0.00695214      -0.05985356       0.13174434       0.12674346       0.00319295      -0.00623232       0.00695214       0.05985356       0.13174434       0.12674346      -0.00319295       0.00623232       0.00695214      -0.05985356      -0.13174434       0.12674346       0.00783964      -0.00222347      -0.01306999       0.17482590       0.17482590       0.75900667       0.01800397       0.01800397       0.02874176      -0.00222347       0.00783964      -0.01306999       0.00884357       0.01800397       0.00697500       0.00783964       0.00783964      -0.00551082       0.00257406       0.00257406      -0.00279579       0.01800397       0.00884357       0.00697500      -0.13174434       0.05985356       0.12674346       0.13174434      -0.05985356       0.12674346       0.00623232       0.00319295       0.00695214      -0.00623232      -0.00319295       0.00695214       0.13174434       0.05985356       0.12674346      -0.13174434      -0.05985356       0.12674346      -0.00623232       0.00319295       0.00695214       0.00623232      -0.00319295       0.00695214      -0.01800397      -0.01800397       0.02874176       0.00222347      -0.00783964      -0.01306999      -0.00783964       0.00222347      -0.01306999      -0.17482590      -0.17482590       0.75900667      -0.00257406      -0.00257406      -0.00279579      -0.01800397      -0.00884357       0.00697500      -0.00884357      -0.01800397       0.00697500      -0.00783964      -0.00783964      -0.00551082      -0.05985356      -0.05985356      -0.11573943      -0.05985356       0.05985356      -0.11573943       0.05985356      -0.05985356      -0.11573943       0.05985356       0.05985356      -0.11573943      -0.00319295      -0.00319295      -0.00484370      -0.00319295       0.00319295      -0.00484370       0.00319295      -0.00319295      -0.00484370       0.00319295       0.00319295      -0.00484370       0.00783964       0.00222347      -0.01306999       0.17482590      -0.17482590       0.75900667       0.01800397      -0.01800397       0.02874176      -0.00222347      -0.00783964      -0.01306999       0.00884357      -0.01800397       0.00697500       0.00783964      -0.00783964      -0.00551082       0.00257406      -0.00257406      -0.00279579       0.01800397      -0.00884357       0.00697500 </v>
[...]
      </set>
     </set>
    </set>
   </array>
  </eigenvalues>
  <separator name="orbital magnetization" >
   <v name="MAGDIPOLOUT">      0.00000000      0.00000000      0.00000000</v>
  </separator>
  <dos>
   <i name="efermi">      9.95205904 </i>
   <total>
    <array>
     <dimension dim="1">gridpoints</dimension>
     <dimension dim="2">spin</dimension>
     <field>energy</field>
     <field>total</field>
     <field>integrated</field>
     <set>
      <set comment="spin 1">
       <r>   -13.3936     0.0000     0.0000 </r>
       <r>   -13.2714     0.0000     0.0000 </r>
       <r>   -13.1493     0.0000     0.0000 </r>
       <r>   -13.0271     0.0000     0.0000 </r>
       <r>   -12.9050     0.0000     0.0000 </r>
       <r>   -12.7828     0.0000     0.0000 </r>
       <r>   -12.6607     0.0000     0.0000 </r>
       <r>   -12.5385     0.0000     0.0000 </r>
       <r>   -12.4164     0.0000     0.0000 </r>
       <r>   -12.2942     0.0000     0.0000 </r>
       <r>   -12.1721     0.0000     0.0000 </r>
       <r>   -12.0499     0.0000     0.0000 </r>
       <r>   -11.9278     0.0000     0.0000 </r>
       <r>   -11.8056     0.0019     0.0002 </r>
       <r>   -11.6835     0.2556     0.0314 </r>
       <r>   -11.5613     1.1028     0.1662 </r>
       <r>   -11.4392     1.6349     0.3659 </r>
       <r>   -11.3170     2.2807     0.6444 </r>
       <r>   -11.1949     2.4408     0.9426 </r>
       <r>   -11.0727     2.7876     1.2831 </r>
       <r>   -10.9506     3.3148     1.6880 </r>
       <r>   -10.8284     2.6816     2.0155 </r>
       <r>   -10.7063     4.1669     2.5245 </r>
       <r>   -10.5841     3.4715     2.9485 </r>
       <r>   -10.4620     4.1612     3.4568 </r>
       <r>   -10.3398     4.0396     3.9503 </r>
       <r>   -10.2177     5.0103     4.5623 </r>
       <r>   -10.0956     4.5704     5.1205 </r>
       <r>    -9.9734     3.5806     5.5579 </r>
       <r>    -9.8513     5.9345     6.2828 </r>
       <r>    -9.7291     5.5739     6.9636 </r>
       <r>    -9.6070     4.5897     7.5242 </r>
       <r>    -9.4848     5.3807     8.1815 </r>
       <r>    -9.3627     6.1020     8.9268 </r>
       <r>    -9.2405     6.3082     9.6974 </r>
       <r>    -9.1184     5.1496    10.3264 </r>
       <r>    -8.9962     7.1286    11.1971 </r>
       <r>    -8.8741     4.7681    11.7796 </r>
       <r>    -8.7519     6.8676    12.6184 </r>
       <r>    -8.6298     6.8025    13.4493 </r>
       <r>    -8.5076     8.6008    14.4999 </r>
       <r>    -8.3855     5.1959    15.1346 </r>
       <r>    -8.2633     6.0978    15.8794 </r>
       <r>    -8.1412     8.6633    16.9376 </r>
       <r>    -8.0190     7.2166    17.8191 </r>
       <r>    -7.8969     8.0916    18.8075 </r>
       <r>    -7.7747     6.6316    19.6175 </r>
       <r>    -7.6526     8.5300    20.6595 </r>
       <r>    -7.5304     7.3431    21.5564 </r>
       <r>    -7.4083     7.8829    22.5193 </r>
       <r>    -7.2861     8.8273    23.5975 </r>
       <r>    -7.1640     9.0931    24.7082 </r>
       <r>    -7.0418     9.4559    25.8633 </r>
       <r>    -6.9197     8.3404    26.8820 </r>
       <r>    -6.7975     7.8678    27.8431 </r>
       <r>    -6.6754     8.3748    28.8660 </r>
       <r>    -6.5532    11.6263    30.2862 </r>
       <r>    -6.4311    10.6727    31.5898 </r>
       <r>    -6.3090     8.8650    32.6727 </r>
       <r>    -6.1868    10.4286    33.9465 </r>
       <r>    -6.0647    11.6524    35.3698 </r>
       <r>    -5.9425    10.4644    36.6480 </r>
       <r>    -5.8204    13.2096    38.2616 </r>
       <r>    -5.6982    12.0463    39.7330 </r>
       <r>    -5.5761    10.2636    40.9867 </r>
       <r>    -5.4539    15.2056    42.8440 </r>
       <r>    -5.3318    10.8894    44.1742 </r>
       <r>    -5.2096     8.1565    45.1705 </r>
       <r>    -5.0875    10.2368    46.4209 </r>
       <r>    -4.9653    11.9474    47.8802 </r>
       <r>    -4.8432     7.4469    48.7898 </r>
       <r>    -4.7210    13.6846    50.4614 </r>
       <r>    -4.5989     8.2438    51.4684 </r>
       <r>    -4.4767     8.9709    52.5641 </r>
       <r>    -4.3546     9.4594    53.7196 </r>
       <r>    -4.2324     7.0671    54.5828 </r>
       <r>    -4.1103     7.9304    55.5515 </r>
       <r>    -3.9881     9.3641    56.6953 </r>
       <r>    -3.8660     5.8881    57.4145 </r>
       <r>    -3.7438     8.2662    58.4242 </r>
       <r>    -3.6217     7.3405    59.3209 </r>
       <r>    -3.4995     9.6268    60.4967 </r>
       <r>    -3.3774     9.4000    61.6449 </r>
       <r>    -3.2552     5.5522    62.3231 </r>
       <r>    -3.1331     7.1163    63.1924 </r>
       <r>    -3.0109     9.0478    64.2976 </r>
       <r>    -2.8888    10.7020    65.6048 </r>
       <r>    -2.7666     9.8118    66.8033 </r>
       <r>    -2.6445     7.9471    67.7740 </r>
       <r>    -2.5223     8.4452    68.8056 </r>
       <r>    -2.4002    10.3255    70.0668 </r>
       <r>    -2.2781     7.1395    70.9389 </r>
       <r>    -2.1559    10.9781    72.2798 </r>
       <r>    -2.0338     9.8580    73.4840 </r>
       <r>    -1.9116    17.8350    75.6625 </r>
       <r>    -1.7895    25.5732    78.7862 </r>
       <r>    -1.6673    24.5828    81.7890 </r>
       <r>    -1.5452    13.8964    83.4864 </r>
       <r>    -1.4230    13.7092    85.1610 </r>
       <r>    -1.3009    12.9171    86.7388 </r>
       <r>    -1.1787    10.7555    88.0525 </r>
       <r>    -1.0566    13.3581    89.6842 </r>
       <r>    -0.9344    19.2988    92.0415 </r>
       <r>    -0.8123    10.5735    93.3331 </r>
       <r>    -0.6901    12.0285    94.8023 </r>
       <r>    -0.5680     7.0297    95.6610 </r>
       <r>    -0.4458     7.4050    96.5655 </r>
       <r>    -0.3237     9.8320    97.7665 </r>
       <r>    -0.2015    10.3725    99.0334 </r>
       <r>    -0.0794     7.7453    99.9795 </r>
       <r>     0.0428    11.8321   101.4248 </r>
       <r>     0.1649    11.5738   102.8385 </r>
       <r>     0.2871     4.9210   103.4396 </r>
       <r>     0.4092     6.6425   104.2510 </r>
       <r>     0.5314    11.9701   105.7131 </r>
       <r>     0.6535    14.1346   107.4396 </r>
       <r>     0.7757    12.1421   108.9228 </r>
       <r>     0.8978    14.3090   110.6706 </r>
       <r>     1.0200    15.8865   112.6111 </r>
       <r>     1.1421    19.4971   114.9926 </r>
       <r>     1.2643    14.1863   116.7255 </r>
       <r>     1.3864    18.2437   118.9539 </r>
       <r>     1.5085    16.5152   120.9712 </r>
       <r>     1.6307    16.0549   122.9323 </r>
       <r>     1.7528    15.9168   124.8765 </r>
       <r>     1.8750    11.8988   126.3299 </r>
       <r>     1.9971    19.3118   128.6888 </r>
       <r>     2.1193    19.4105   131.0598 </r>
       <r>     2.2414    19.9673   133.4988 </r>
       <r>     2.3636    16.6668   135.5346 </r>
       <r>     2.4857    12.3712   137.0457 </r>
       <r>     2.6079    14.4383   138.8093 </r>
       <r>     2.7300    25.6742   141.9454 </r>
       <r>     2.8522    22.8873   144.7411 </r>
       <r>     2.9743    14.2540   146.4822 </r>
       <r>     3.0965    17.0011   148.5588 </r>
       <r>     3.2186    26.2055   151.7598 </r>
       <r>     3.3408    22.5072   154.5090 </r>
       <r>     3.4629    25.8028   157.6608 </r>
       <r>     3.5851    21.9557   160.3426 </r>
       <r>     3.7072    24.8731   163.3808 </r>
       <r>     3.8294    24.4152   166.3631 </r>
       <r>     3.9515    28.4395   169.8370 </r>
       <r>     4.0737    27.8537   173.2392 </r>
       <r>     4.1958    21.2490   175.8348 </r>
       <r>     4.3180    21.3749   178.4457 </r>
       <r>     4.4401    22.6807   181.2161 </r>
       <r>     4.5623    24.0852   184.1580 </r>
       <r>     4.6844    32.3178   188.1056 </r>
       <r>     4.8066    20.3399   190.5901 </r>
       <r>     4.9287    16.8276   192.6456 </r>
       <r>     5.0509    23.4726   195.5127 </r>
       <r>     5.1730    25.4273   198.6186 </r>
       <r>     5.2952    28.6660   202.1201 </r>
       <r>     5.4173    15.3304   203.9927 </r>
       <r>     5.5394    21.3593   206.6017 </r>
       <r>     5.6616    20.2400   209.0740 </r>
       <r>     5.7837    27.4807   212.4307 </r>
       <r>     5.9059    21.4730   215.0536 </r>
       <r>     6.0280    19.8400   217.4770 </r>
       <r>     6.1502    16.8866   219.5397 </r>
       <r>     6.2723    21.6274   222.1815 </r>
       <r>     6.3945    26.0729   225.3662 </r>
       <r>     6.5166    19.1253   227.7024 </r>
       <r>     6.6388    19.7227   230.1115 </r>
       <r>     6.7609    15.8750   232.0506 </r>
       <r>     6.8831    20.1839   234.5160 </r>
       <r>     7.0052    26.0607   237.6993 </r>
       <r>     7.1274     8.7234   238.7648 </r>
       <r>     7.2495    12.8923   240.3396 </r>
       <r>     7.3717    15.2565   242.2032 </r>
       <r>     7.4938    11.2504   243.5774 </r>
       <r>     7.6160    11.1934   244.9446 </r>
       <r>     7.7381     8.2106   245.9475 </r>
       <r>     7.8603    10.2072   247.1943 </r>
       <r>     7.9824     9.1813   248.3158 </r>
       <r>     8.1046     8.2173   249.3196 </r>
       <r>     8.2267     6.4280   250.1047 </r>
       <r>     8.3489     6.0857   250.8481 </r>
       <r>     8.4710     7.3943   251.7513 </r>
       <r>     8.5932     5.9268   252.4752 </r>
       <r>     8.7153     5.4263   253.1381 </r>
       <r>     8.8375     3.2688   253.5373 </r>
       <r>     8.9596     5.3462   254.1904 </r>
       <r>     9.0818     3.5479   254.6237 </r>
       <r>     9.2039     3.7085   255.0767 </r>
       <r>     9.3260     2.5090   255.3832 </r>
       <r>     9.4482     2.0863   255.6380 </r>
       <r>     9.5703     2.1231   255.8974 </r>
       <r>     9.6925     0.7147   255.9847 </r>
       <r>     9.8146     0.1252   256.0000 </r>
       <r>     9.9368     0.0003   256.0000 </r>
       <r>    10.0589     0.0000   256.0000 </r>
       <r>    10.1811     0.0000   256.0000 </r>
       <r>    10.3032     0.0000   256.0000 </r>
       <r>    10.4254     0.0000   256.0000 </r>
       <r>    10.5475     0.0000   256.0000 </r>
       <r>    10.6697     0.0000   256.0000 </r>
       <r>    10.7918     0.0000   256.0000 </r>
       <r>    10.9140     0.0000   256.0000 </r>
       <r>    11.0361     0.0000   256.0000 </r>
       <r>    11.1583     0.0000   256.0000 </r>
       <r>    11.2804     0.0000   256.0000 </r>
       <r>    11.4026     0.0000   256.0000 </r>
       <r>    11.5247     0.0000   256.0000 </r>
       <r>    11.6469     0.0000   256.0000 </r>
       <r>    11.7690     0.0000   256.0000 </r>
       <r>    11.8912     0.0000   256.0000 </r>
       <r>    12.0133     0.0000   256.0000 </r>
       <r>    12.1355     0.0000   256.0000 </r>
       <r>    12.2576     0.0000   256.0000 </r>
       <r>    12.3798     0.0000   256.0000 </r>
       <r>    12.5019     0.0000   256.0000 </r>
       <r>    12.6241     0.0000   256.0000 </r>
       <r>    12.7462     0.0000   256.0000 </r>
       <r>    12.8684     0.0000   256.0000 </r>
       <r>    12.9905     0.0000   256.0000 </r>
       <r>    13.1126     0.0000   256.0000 </r>
       <r>    13.2348     0.0000   256.0000 </r>
       <r>    13.3569     0.0000   256.0000 </r>
       <r>    13.4791     0.0000   256.0000 </r>
       <r>    13.6012     0.0000   256.0000 </r>
       <r>    13.7234     0.0151   256.0018 </r>
       <r>    13.8455     0.4905   256.0618 </r>
       <r>    13.9677     1.6422   256.2623 </r>
       <r>    14.0898     3.4541   256.6843 </r>
       <r>    14.2120     3.9667   257.1688 </r>
       <r>    14.3341     2.8644   257.5187 </r>
       <r>    14.4563     5.7974   258.2268 </r>
       <r>    14.5784     9.3087   259.3639 </r>
       <r>    14.7006     9.4492   260.5181 </r>
       <r>    14.8227     5.4134   261.1793 </r>
       <r>    14.9449     7.1237   262.0495 </r>
       <r>    15.0670    12.1669   263.5356 </r>
       <r>    15.1892    16.0471   265.4958 </r>
       <r>    15.3113    12.3127   266.9997 </r>
       <r>    15.4335    13.1073   268.6008 </r>
       <r>    15.5556    14.1243   270.3260 </r>
       <r>    15.6778    12.3973   271.8404 </r>
       <r>    15.7999    14.0382   273.5551 </r>
       <r>    15.9221    19.2162   275.9023 </r>
       <r>    16.0442    20.9061   278.4560 </r>
       <r>    16.1664    15.5730   280.3582 </r>
       <r>    16.2885    15.2975   282.2268 </r>
       <r>    16.4107    20.0493   284.6757 </r>
       <r>    16.5328    18.1975   286.8985 </r>
       <r>    16.6550    18.2254   289.1247 </r>
       <r>    16.7771    20.9941   291.6891 </r>
       <r>    16.8993    25.1947   294.7666 </r>
       <r>    17.0214    18.3832   297.0121 </r>
       <r>    17.1435    24.0365   299.9481 </r>
       <r>    17.2657    25.7702   303.0959 </r>
       <r>    17.3878    20.8474   305.6424 </r>
       <r>    17.5100    30.4367   309.3602 </r>
       <r>    17.6321    29.3367   312.9436 </r>
       <r>    17.7543    26.2866   316.1545 </r>
       <r>    17.8764    34.1081   320.3207 </r>
       <r>    17.9986    28.0501   323.7470 </r>
       <r>    18.1207    39.7362   328.6007 </r>
       <r>    18.2429    35.9714   332.9946 </r>
       <r>    18.3650    38.4494   337.6911 </r>
       <r>    18.4872    30.0001   341.3556 </r>
       <r>    18.6093    28.9714   344.8944 </r>
       <r>    18.7315    28.8273   348.4156 </r>
       <r>    18.8536    25.8262   351.5702 </r>
       <r>    18.9758    22.0648   354.2654 </r>
       <r>    19.0979    32.4043   358.2235 </r>
       <r>    19.2201    36.6387   362.6989 </r>
       <r>    19.3422    22.5221   365.4499 </r>
       <r>    19.4644    23.1509   368.2778 </r>
       <r>    19.5865    23.9767   371.2065 </r>
       <r>    19.7087    22.9496   374.0098 </r>
       <r>    19.8308    28.8143   377.5294 </r>
       <r>    19.9530    11.2364   378.9019 </r>
       <r>    20.0751     6.5830   379.7060 </r>
       <r>    20.1973    11.2877   381.0848 </r>
       <r>    20.3194     8.6980   382.1472 </r>
       <r>    20.4416     3.5267   382.5780 </r>
       <r>    20.5637     2.8059   382.9208 </r>
       <r>    20.6859     1.7307   383.1322 </r>
       <r>    20.8080     2.2297   383.4045 </r>
       <r>    20.9301     1.4741   383.5846 </r>
       <r>    21.0523     2.1187   383.8434 </r>
       <r>    21.1744     0.5097   383.9056 </r>
       <r>    21.2966     0.0050   383.9063 </r>
       <r>    21.4187     0.0643   383.9141 </r>
       <r>    21.5409     0.5112   383.9765 </r>
       <r>    21.6630     0.1857   383.9992 </r>
       <r>    21.7852     0.0064   384.0000 </r>
       <r>    21.9073     0.0000   384.0000 </r>
       <r>    22.0295     0.0000   384.0000 </r>
       <r>    22.1516     0.0000   384.0000 </r>
       <r>    22.2738     0.0000   384.0000 </r>
       <r>    22.3959     0.0000   384.0000 </r>
       <r>    22.5181     0.0000   384.0000 </r>
       <r>    22.6402     0.0000   384.0000 </r>
       <r>    22.7624     0.0000   384.0000 </r>
       <r>    22.8845     0.0000   384.0000 </r>
       <r>    23.0067     0.0000   384.0000 </r>
       <r>    23.1288     0.0000   384.0000 </r>
       <r>    23.2510     0.0000   384.0000 </r>
      </set>
     </set>
    </array>
   </total>
  </dos>
 </calculation>
 <structure name="finalpos" >
  <crystal>
   <varray name="basis" >
    <v>       7.14742000       0.00000000       0.00000000 </v>
    <v>       0.00000000       7.14742000       0.00000000 </v>
    <v>       0.00000000       0.00000000       7.14742000 </v>
   </varray>
   <i name="volume">    365.13032961 </i>
   <varray name="rec_basis" >
    <v>       0.13991063       0.00000000       0.00000000 </v>
    <v>       0.00000000       0.13991063       0.00000000 </v>
    <v>       0.00000000       0.00000000       0.13991063 </v>
   </varray>
  </crystal>
  <varray name="positions" >
   <v>       0.12500000       0.37500000       0.12500000 </v>
   <v>       0.62500000       0.37500000       0.12500000 </v>
   <v>       0.12500000       0.87500000       0.12500000 </v>
   <v>       0.62500000       0.87500000       0.12500000 </v>
   <v>       0.12500000       0.37500000       0.62500000 </v>
   <v>       0.62500000       0.37500000       0.62500000 </v>
   <v>       0.12500000       0.87500000       0.62500000 </v>
   <v>       0.62500000       0.87500000       0.62500000 </v>
   <v>       0.00000000       0.00000000       0.25000000 </v>
   <v>       0.50000000       0.00000000       0.25000000 </v>
   <v>       0.00000000       0.50000000       0.25000000 </v>
   <v>       0.50000000       0.50000000       0.25000000 </v>
   <v>       0.00000000       0.00000000       0.75000000 </v>
   <v>       0.50000000       0.00000000       0.75000000 </v>
   <v>       0.00000000       0.50000000       0.75000000 </v>
   <v>       0.50000000       0.50000000       0.75000000 </v>
   <v>       0.12500000       0.12500000       0.37500000 </v>
   <v>       0.62500000       0.12500000       0.37500000 </v>
   <v>       0.12500000       0.62500000       0.37500000 </v>
   <v>       0.62500000       0.62500000       0.37500000 </v>
   <v>       0.12500000       0.12500000       0.87500000 </v>
   <v>       0.62500000       0.12500000       0.87500000 </v>
   <v>       0.12500000       0.62500000       0.87500000 </v>
   <v>       0.62500000       0.62500000       0.87500000 </v>
   <v>       0.00000000       0.25000000       0.00000000 </v>
   <v>       0.50000000       0.25000000       0.00000000 </v>
   <v>       0.00000000       0.75000000       0.00000000 </v>
   <v>       0.50000000       0.75000000       0.00000000 </v>
   <v>       0.00000000       0.25000000       0.50000000 </v>
   <v>       0.50000000       0.25000000       0.50000000 </v>
   <v>       0.00000000       0.75000000       0.50000000 </v>
   <v>       0.50000000       0.75000000       0.50000000 </v>
   <v>       0.37500000       0.37500000       0.37500000 </v>
   <v>       0.87500000       0.37500000       0.37500000 </v>
   <v>       0.37500000       0.87500000       0.37500000 </v>
   <v>       0.87500000       0.87500000       0.37500000 </v>
   <v>       0.37500000       0.37500000       0.87500000 </v>
   <v>       0.87500000       0.37500000       0.87500000 </v>
   <v>       0.37500000       0.87500000       0.87500000 </v>
   <v>       0.87500000       0.87500000       0.87500000 </v>
   <v>       0.25000000       0.00000000       0.00000000 </v>
   <v>       0.75000000       0.00000000       0.00000000 </v>
   <v>       0.25000000       0.50000000       0.00000000 </v>
   <v>       0.75000000       0.50000000       0.00000000 </v>
   <v>       0.25000000       0.00000000       0.50000000 </v>
   <v>       0.75000000       0.00000000       0.50000000 </v>
   <v>       0.25000000       0.50000000       0.50000000 </v>
   <v>       0.75000000       0.50000000       0.50000000 </v>
   <v>       0.37500000       0.12500000       0.12500000 </v>
   <v>       0.87500000       0.12500000       0.12500000 </v>
   <v>       0.37500000       0.62500000       0.12500000 </v>
   <v>       0.87500000       0.62500000       0.12500000 </v>
   <v>       0.37500000       0.12500000       0.62500000 </v>
   <v>       0.87500000       0.12500000       0.62500000 </v>
   <v>       0.37500000       0.62500000       0.62500000 </v>
   <v>       0.87500000       0.62500000       0.62500000 </v>
   <v>       0.25000000       0.25000000       0.25000000 </v>
   <v>       0.75000000       0.25000000       0.25000000 </v>
   <v>       0.25000000       0.75000000       0.25000000 </v>
   <v>       0.75000000       0.75000000       0.25000000 </v>
   <v>       0.25000000       0.25000000       0.75000000 </v>
   <v>       0.75000000       0.25000000       0.75000000 </v>
   <v>       0.25000000       0.75000000       0.75000000 </v>
   <v>       0.75000000       0.75000000       0.75000000 </v>
  </varray>
 </structure>
</modeling>
