 vasp.5.4.4.18Apr17-6-g9f103f2a35 (build Mar 12 2022 03:36:41) complex          
  
 executed on IFC19.0.3.199_CrayMP date 2022.11.30  12:22:41
 running on   16 total cores
 distrk:  each k-point on   16 cores,    1 groups
 distr:  one band on NCORES_PER_BAND=   4 cores,    4 groups


--------------------------------------------------------------------------------------------------------


 INCAR:
 POTCAR:   PAW_PBE C 08Apr2002                    
 POTCAR:   PAW_PBE C 08Apr2002                    
   VRHFIN =C: s2p2                                                              
   LEXCH  = PE                                                                  
   EATOM  =   147.1560 eV,   10.8157 Ry                                         
                                                                                
   TITEL  = PAW_PBE C 08Apr2002                                                 
   LULTRA =        F    use ultrasoft PP ?                                      
   IUNSCR =        0    unscreen: 0-lin 1-nonlin 2-no                           
   RPACOR =     .000    partial core radius                                     
   POMASS =   12.011; ZVAL   =    4.000    mass and valenz                      
   RCORE  =    1.500    outmost cutoff radius                                   
   RWIGS  =    1.630; RWIGS  =     .863    wigner-seitz radius (au A)           
   ENMAX  =  400.000; ENMIN  =  300.000 eV                                      
   ICORE  =        2    local potential                                         
   LCOR   =        T    correct aug charges                                     
   LPAW   =        T    paw PP                                                  
   EAUG   =  644.873                                                            
   DEXC   =     .000                                                            
   RMAX   =    2.266    core radius for proj-oper                               
   RAUG   =    1.300    factor for augmentation sphere                          
   RDEP   =    1.501    radius for radial grids                                 
   RDEPT  =    1.300    core radius for aug-charge                              
   QCUT   =   -5.516; QGAM   =   11.032    optimization parameters              
                                                                                
   Description                                                                  
     l     E      TYP  RCUT    TYP  RCUT                                        
     0   .000     23  1.200                                                     
     0   .000     23  1.200                                                     
     1   .000     23  1.500                                                     
     1  2.500     23  1.500                                                     
     2   .000      7  1.500                                                     
  local pseudopotential read in
  atomic valenz-charges read in
  non local Contribution for L=           0  read in
    real space projection operators read in
  non local Contribution for L=           0  read in
    real space projection operators read in
  non local Contribution for L=           1  read in
    real space projection operators read in
  non local Contribution for L=           1  read in
    real space projection operators read in
    PAW grid and wavefunctions read in
 
   number of l-projection  operators is LMAX  =           4
   number of lm-projection operators is LMMAX =           8
 
 PAW_PBE C 08Apr2002                    :
 energy of atom  1       EATOM= -147.1560
 kinetic energy error for atom=    0.0288 (will be added to EATOM!!)
 
 
 POSCAR: C8                                      
  positions in direct lattice
  No initial velocities read in
 exchange correlation table for  LEXCH =        8
   RHO(1)=    0.500       N(1)  =     2000
   RHO(2)=  100.500       N(2)  =     4000
 


--------------------------------------------------------------------------------------------------------


 ion  position               nearest neighbor table
   1  0.250  0.750  0.250-   2 1.55   4 1.55   6 1.55   8 1.55
   2  0.000  0.000  0.500-   1 1.55   3 1.55   5 1.55   7 1.55
   3  0.250  0.250  0.750-   2 1.55   4 1.55   6 1.55   8 1.55
   4  0.000  0.500  0.000-   1 1.55   3 1.55   5 1.55   7 1.55
   5  0.750  0.750  0.750-   2 1.55   4 1.55   6 1.55   8 1.55
   6  0.500  0.000  0.000-   1 1.55   3 1.55   5 1.55   7 1.55
   7  0.750  0.250  0.250-   2 1.55   4 1.55   6 1.55   8 1.55
   8  0.500  0.500  0.500-   1 1.55   3 1.55   5 1.55   7 1.55
 
  LATTYP: Found a simple cubic cell.
 ALAT       =     3.5737100000
  
  Lattice vectors:
  
 A1 = (   3.5737100000,   0.0000000000,   0.0000000000)
 A2 = (   0.0000000000,   3.5737100000,   0.0000000000)
 A3 = (   0.0000000000,   0.0000000000,   3.5737100000)


Analysis of symmetry for initial positions (statically):
=====================================================================
 Subroutine PRICEL returns following result:
 
  LATTYP: Found a face centered cubic cell.
 ALAT       =     3.5737100000
  
  Lattice vectors:
  
 A1 = (   1.7868550000,   1.7868550000,   0.0000000000)
 A2 = (   1.7868550000,   0.0000000000,  -1.7868550000)
 A3 = (   0.0000000000,   1.7868550000,  -1.7868550000)
 
   4 primitive cells build up your supercell.
 

 Routine SETGRP: Setting up the symmetry group for a 
 simple cubic supercell.


 Subroutine GETGRP returns: Found 48 space group operations
 (whereof 24 operations were pure point group operations)
 out of a pool of 48 trial point group operations.


The static configuration has the point symmetry T_d .
 The point group associated with its full space group is O_h .


Analysis of symmetry for dynamics (positions and initial velocities):
=====================================================================
 Subroutine PRICEL returns following result:
 
  LATTYP: Found a face centered cubic cell.
 ALAT       =     3.5737100000
  
  Lattice vectors:
  
 A1 = (   1.7868550000,   1.7868550000,   0.0000000000)
 A2 = (   1.7868550000,   0.0000000000,  -1.7868550000)
 A3 = (   0.0000000000,   1.7868550000,  -1.7868550000)
 
   4 primitive cells build up your supercell.
 

 Routine SETGRP: Setting up the symmetry group for a 
 simple cubic supercell.


 Subroutine GETGRP returns: Found 48 space group operations
 (whereof 24 operations were pure point group operations)
 out of a pool of 48 trial point group operations.


The dynamic configuration has the point symmetry T_d .
 The point group associated with its full space group is O_h .


 Subroutine INISYM returns: Found 48 space group operations
 (whereof 24 operations are pure point group operations),
 and found     4 'primitive' translations

 
 
 KPOINTS: kpt_density=1000                        

Automatic generation of k-mesh.
Space group operators:
 irot       det(A)        alpha          n_x          n_y          n_z        tau_x        tau_y        tau_z
    1     1.000000     0.000000     1.000000     0.000000     0.000000     0.000000     0.000000     0.000000
    2     1.000000   120.000000    -0.577350    -0.577350    -0.577350     0.000000     0.000000     0.000000
    3     1.000000   120.000000     0.577350     0.577350     0.577350     0.000000     0.000000     0.000000
    4    -1.000000    90.000000     0.000000     0.000000    -1.000000     0.000000     0.000000     0.000000
    5    -1.000000   180.000000     0.000000     0.707107     0.707107     0.000000     0.000000     0.000000
    6    -1.000000    90.000000     0.000000     1.000000     0.000000     0.000000     0.000000     0.000000
    7     1.000000   180.000000     0.000000     0.000000     1.000000     0.000000     0.000000     0.000000
    8     1.000000   120.000000    -0.577350     0.577350     0.577350     0.000000     0.000000     0.000000
    9     1.000000   120.000000    -0.577350     0.577350    -0.577350     0.000000     0.000000     0.000000
   10    -1.000000    90.000000     0.000000     0.000000     1.000000     0.000000     0.000000     0.000000
   11    -1.000000    90.000000    -1.000000     0.000000     0.000000     0.000000     0.000000     0.000000
   12    -1.000000   180.000000     0.707107     0.000000     0.707107     0.000000     0.000000     0.000000
   13     1.000000   120.000000     0.577350    -0.577350     0.577350     0.000000     0.000000     0.000000
   14     1.000000   120.000000    -0.577350    -0.577350     0.577350     0.000000     0.000000     0.000000
   15     1.000000   180.000000     1.000000     0.000000     0.000000     0.000000     0.000000     0.000000
   16    -1.000000    90.000000     0.000000    -1.000000     0.000000     0.000000     0.000000     0.000000
   17    -1.000000   180.000000     0.707107     0.707107     0.000000     0.000000     0.000000     0.000000
   18    -1.000000    90.000000     1.000000     0.000000     0.000000     0.000000     0.000000     0.000000
   19     1.000000   120.000000     0.577350    -0.577350    -0.577350     0.000000     0.000000     0.000000
   20     1.000000   180.000000     0.000000     1.000000     0.000000     0.000000     0.000000     0.000000
   21     1.000000   120.000000     0.577350     0.577350    -0.577350     0.000000     0.000000     0.000000
   22    -1.000000   180.000000     0.000000    -0.707107     0.707107     0.000000     0.000000     0.000000
   23    -1.000000   180.000000     0.707107    -0.707107     0.000000     0.000000     0.000000     0.000000
   24    -1.000000   180.000000     0.707107     0.000000    -0.707107     0.000000     0.000000     0.000000
   25    -1.000000     0.000000     1.000000     0.000000     0.000000     0.750000     0.750000    -0.750000
   26    -1.000000   120.000000    -0.577350    -0.577350    -0.577350     0.750000     0.750000    -0.750000
   27    -1.000000   120.000000     0.577350     0.577350     0.577350     0.750000     0.750000    -0.750000
   28     1.000000    90.000000     0.000000     0.000000    -1.000000     0.750000     0.750000    -0.750000
   29     1.000000   180.000000     0.000000     0.707107     0.707107     0.750000     0.750000    -0.750000
   30     1.000000    90.000000     0.000000     1.000000     0.000000     0.750000     0.750000    -0.750000
   31    -1.000000   180.000000     0.000000     0.000000     1.000000     0.750000     0.750000    -0.750000
   32    -1.000000   120.000000    -0.577350     0.577350     0.577350     0.750000     0.750000    -0.750000
   33    -1.000000   120.000000    -0.577350     0.577350    -0.577350     0.750000     0.750000    -0.750000
   34     1.000000    90.000000     0.000000     0.000000     1.000000     0.750000     0.750000    -0.750000
   35     1.000000    90.000000    -1.000000     0.000000     0.000000     0.750000     0.750000    -0.750000
   36     1.000000   180.000000     0.707107     0.000000     0.707107     0.750000     0.750000    -0.750000
   37    -1.000000   120.000000     0.577350    -0.577350     0.577350     0.750000     0.750000    -0.750000
   38    -1.000000   120.000000    -0.577350    -0.577350     0.577350     0.750000     0.750000    -0.750000
   39    -1.000000   180.000000     1.000000     0.000000     0.000000     0.750000     0.750000    -0.750000
   40     1.000000    90.000000     0.000000    -1.000000     0.000000     0.750000     0.750000    -0.750000
   41     1.000000   180.000000     0.707107     0.707107     0.000000     0.750000     0.750000    -0.750000
   42     1.000000    90.000000     1.000000     0.000000     0.000000     0.750000     0.750000    -0.750000
   43    -1.000000   120.000000     0.577350    -0.577350    -0.577350     0.750000     0.750000    -0.750000
   44    -1.000000   180.000000     0.000000     1.000000     0.000000     0.750000     0.750000    -0.750000
   45    -1.000000   120.000000     0.577350     0.577350    -0.577350     0.750000     0.750000    -0.750000
   46     1.000000   180.000000     0.000000    -0.707107     0.707107     0.750000     0.750000    -0.750000
   47     1.000000   180.000000     0.707107    -0.707107     0.000000     0.750000     0.750000    -0.750000
   48     1.000000   180.000000     0.707107     0.000000    -0.707107     0.750000     0.750000    -0.750000
 
 Subroutine IBZKPT returns following result:
 ===========================================
 
 Found     84 irreducible k-points:
 
 Following reciprocal coordinates:
            Coordinates               Weight
  0.000000  0.000000  0.000000      1.000000
  0.083333  0.000000  0.000000      6.000000
  0.166667  0.000000  0.000000      6.000000
  0.250000  0.000000  0.000000      6.000000
  0.333333  0.000000  0.000000      6.000000
  0.416667  0.000000  0.000000      6.000000
  0.500000  0.000000  0.000000      3.000000
  0.083333  0.083333  0.000000     12.000000
  0.166667  0.083333  0.000000     24.000000
  0.250000  0.083333  0.000000     24.000000
  0.333333  0.083333  0.000000     24.000000
  0.416667  0.083333  0.000000     24.000000
  0.500000  0.083333  0.000000     12.000000
  0.166667  0.166667  0.000000     12.000000
  0.250000  0.166667  0.000000     24.000000
  0.333333  0.166667  0.000000     24.000000
  0.416667  0.166667  0.000000     24.000000
  0.500000  0.166667  0.000000     12.000000
  0.250000  0.250000  0.000000     12.000000
  0.333333  0.250000  0.000000     24.000000
  0.416667  0.250000  0.000000     24.000000
  0.500000  0.250000  0.000000     12.000000
  0.333333  0.333333  0.000000     12.000000
  0.416667  0.333333  0.000000     24.000000
  0.500000  0.333333  0.000000     12.000000
  0.416667  0.416667  0.000000     12.000000
  0.500000  0.416667  0.000000     12.000000
  0.500000  0.500000  0.000000      3.000000
  0.083333  0.083333  0.083333      8.000000
  0.166667  0.083333  0.083333     24.000000
  0.250000  0.083333  0.083333     24.000000
  0.333333  0.083333  0.083333     24.000000
  0.416667  0.083333  0.083333     24.000000
  0.500000  0.083333  0.083333     12.000000
  0.166667  0.166667  0.083333     24.000000
  0.250000  0.166667  0.083333     48.000000
  0.333333  0.166667  0.083333     48.000000
  0.416667  0.166667  0.083333     48.000000
  0.500000  0.166667  0.083333     24.000000
  0.250000  0.250000  0.083333     24.000000
  0.333333  0.250000  0.083333     48.000000
  0.416667  0.250000  0.083333     48.000000
  0.500000  0.250000  0.083333     24.000000
  0.333333  0.333333  0.083333     24.000000
  0.416667  0.333333  0.083333     48.000000
  0.500000  0.333333  0.083333     24.000000
  0.416667  0.416667  0.083333     24.000000
  0.500000  0.416667  0.083333     24.000000
  0.500000  0.500000  0.083333      6.000000
  0.166667  0.166667  0.166667      8.000000
  0.250000  0.166667  0.166667     24.000000
  0.333333  0.166667  0.166667     24.000000
  0.416667  0.166667  0.166667     24.000000
  0.500000  0.166667  0.166667     12.000000
  0.250000  0.250000  0.166667     24.000000
  0.333333  0.250000  0.166667     48.000000
  0.416667  0.250000  0.166667     48.000000
  0.500000  0.250000  0.166667     24.000000
  0.333333  0.333333  0.166667     24.000000
  0.416667  0.333333  0.166667     48.000000
  0.500000  0.333333  0.166667     24.000000
  0.416667  0.416667  0.166667     24.000000
  0.500000  0.416667  0.166667     24.000000
  0.500000  0.500000  0.166667      6.000000
  0.250000  0.250000  0.250000      8.000000
  0.333333  0.250000  0.250000     24.000000
  0.416667  0.250000  0.250000     24.000000
  0.500000  0.250000  0.250000     12.000000
  0.333333  0.333333  0.250000     24.000000
  0.416667  0.333333  0.250000     48.000000
  0.500000  0.333333  0.250000     24.000000
  0.416667  0.416667  0.250000     24.000000
  0.500000  0.416667  0.250000     24.000000
  0.500000  0.500000  0.250000      6.000000
  0.333333  0.333333  0.333333      8.000000
  0.416667  0.333333  0.333333     24.000000
  0.500000  0.333333  0.333333     12.000000
  0.416667  0.416667  0.333333     24.000000
  0.500000  0.416667  0.333333     24.000000
  0.500000  0.500000  0.333333      6.000000
  0.416667  0.416667  0.416667      8.000000
  0.500000  0.416667  0.416667     12.000000
  0.500000  0.500000  0.416667      6.000000
  0.500000  0.500000  0.500000      1.000000
 
 Following cartesian coordinates:
            Coordinates               Weight
  0.000000  0.000000  0.000000      1.000000
  0.023318  0.000000  0.000000      6.000000
  0.046637  0.000000  0.000000      6.000000
  0.069955  0.000000  0.000000      6.000000
  0.093274  0.000000  0.000000      6.000000
  0.116592  0.000000  0.000000      6.000000
  0.139911  0.000000  0.000000      3.000000
  0.023318  0.023318  0.000000     12.000000
  0.046637  0.023318  0.000000     24.000000
  0.069955  0.023318  0.000000     24.000000
  0.093274  0.023318  0.000000     24.000000
  0.116592  0.023318  0.000000     24.000000
  0.139911  0.023318  0.000000     12.000000
  0.046637  0.046637  0.000000     12.000000
  0.069955  0.046637  0.000000     24.000000
  0.093274  0.046637  0.000000     24.000000
  0.116592  0.046637  0.000000     24.000000
  0.139911  0.046637  0.000000     12.000000
  0.069955  0.069955  0.000000     12.000000
  0.093274  0.069955  0.000000     24.000000
  0.116592  0.069955  0.000000     24.000000
  0.139911  0.069955  0.000000     12.000000
  0.093274  0.093274  0.000000     12.000000
  0.116592  0.093274  0.000000     24.000000
  0.139911  0.093274  0.000000     12.000000
  0.116592  0.116592  0.000000     12.000000
  0.139911  0.116592  0.000000     12.000000
  0.139911  0.139911  0.000000      3.000000
  0.023318  0.023318  0.023318      8.000000
  0.046637  0.023318  0.023318     24.000000
  0.069955  0.023318  0.023318     24.000000
  0.093274  0.023318  0.023318     24.000000
  0.116592  0.023318  0.023318     24.000000
  0.139911  0.023318  0.023318     12.000000
  0.046637  0.046637  0.023318     24.000000
  0.069955  0.046637  0.023318     48.000000
  0.093274  0.046637  0.023318     48.000000
  0.116592  0.046637  0.023318     48.000000
  0.139911  0.046637  0.023318     24.000000
  0.069955  0.069955  0.023318     24.000000
  0.093274  0.069955  0.023318     48.000000
  0.116592  0.069955  0.023318     48.000000
  0.139911  0.069955  0.023318     24.000000
  0.093274  0.093274  0.023318     24.000000
  0.116592  0.093274  0.023318     48.000000
  0.139911  0.093274  0.023318     24.000000
  0.116592  0.116592  0.023318     24.000000
  0.139911  0.116592  0.023318     24.000000
  0.139911  0.139911  0.023318      6.000000
  0.046637  0.046637  0.046637      8.000000
  0.069955  0.046637  0.046637     24.000000
  0.093274  0.046637  0.046637     24.000000
  0.116592  0.046637  0.046637     24.000000
  0.139911  0.046637  0.046637     12.000000
  0.069955  0.069955  0.046637     24.000000
  0.093274  0.069955  0.046637     48.000000
  0.116592  0.069955  0.046637     48.000000
  0.139911  0.069955  0.046637     24.000000
  0.093274  0.093274  0.046637     24.000000
  0.116592  0.093274  0.046637     48.000000
  0.139911  0.093274  0.046637     24.000000
  0.116592  0.116592  0.046637     24.000000
  0.139911  0.116592  0.046637     24.000000
  0.139911  0.139911  0.046637      6.000000
  0.069955  0.069955  0.069955      8.000000
  0.093274  0.069955  0.069955     24.000000
  0.116592  0.069955  0.069955     24.000000
  0.139911  0.069955  0.069955     12.000000
  0.093274  0.093274  0.069955     24.000000
  0.116592  0.093274  0.069955     48.000000
  0.139911  0.093274  0.069955     24.000000
  0.116592  0.116592  0.069955     24.000000
  0.139911  0.116592  0.069955     24.000000
  0.139911  0.139911  0.069955      6.000000
  0.093274  0.093274  0.093274      8.000000
  0.116592  0.093274  0.093274     24.000000
  0.139911  0.093274  0.093274     12.000000
  0.116592  0.116592  0.093274     24.000000
  0.139911  0.116592  0.093274     24.000000
  0.139911  0.139911  0.093274      6.000000
  0.116592  0.116592  0.116592      8.000000
  0.139911  0.116592  0.116592     12.000000
  0.139911  0.139911  0.116592      6.000000
  0.139911  0.139911  0.139911      1.000000
 
 TETIRR: Found    854 inequivalent tetrahedra from    10368


--------------------------------------------------------------------------------------------------------




 Dimension of arrays:
   k-points           NKPTS =     84   k-points in BZ     NKDIM =     84   number of bands    NBANDS=     24
   number of dos      NEDOS =    301   number of ions     NIONS =      8
   non local maximal  LDIM  =      4   non local SUM 2l+1 LMDIM =      8
   total plane-waves  NPLWV =  13824
   max r-space proj   IRMAX =      1   max aug-charges    IRDMAX=   3773
   dimension x,y,z NGX =    24 NGY =   24 NGZ =   24
   dimension x,y,z NGXF=    48 NGYF=   48 NGZF=   48
   support grid    NGXF=    48 NGYF=   48 NGZF=   48
   ions per type =               8
   NGX,Y,Z   is equivalent  to a cutoff of  11.16, 11.16, 11.16 a.u.
   NGXF,Y,Z  is equivalent  to a cutoff of  22.33, 22.33, 22.33 a.u.

 SYSTEM =  unknown system                          
 POSCAR =  C8                                      

 Startparameter for this run:
   NWRITE =      2    write-flag & timer
   PREC   = accura    normal or accurate (medium, high low for compatibility)
   ISTART =      0    job   : 0-new  1-cont  2-samecut
   ICHARG =      2    charge: 1-file 2-atom 10-const
   ISPIN  =      1    spin polarized calculation?
   LNONCOLLINEAR =      F non collinear calculations
   LSORBIT =      F    spin-orbit coupling
   INIWAV =      1    electr: 0-lowe 1-rand  2-diag
   LASPH  =      F    aspherical Exc in radial PAW
   METAGGA=      F    non-selfconsistent MetaGGA calc.

 Electronic Relaxation 1
   ENCUT  =  400.0 eV  29.40 Ry    5.42 a.u.   5.83  5.83  5.83*2*pi/ulx,y,z
   ENINI  =  400.0     initial cutoff
   ENAUG  =  644.9 eV  augmentation charge cutoff
   NELM   =     60;   NELMIN=  2; NELMDL= -5     # of ELM steps 
   EDIFF  = 0.1E-05   stopping-criterion for ELM
   LREAL  =      F    real-space projection
   NLSPLINE    = F    spline interpolate recip. space projectors
   LCOMPAT=      F    compatible to vasp.4.4
   GGA_COMPAT  = T    GGA compatible to vasp.4.4-vasp.4.6
   LMAXPAW     = -100 max onsite density
   LMAXMIX     =    2 max onsite mixed and CHGCAR
   VOSKOWN=      0    Vosko Wilk Nusair interpolation
   ROPT   =    0.00000
 Ionic relaxation
   EDIFFG = 0.1E-04   stopping-criterion for IOM
   NSW    =      0    number of steps for IOM
   NBLOCK =      1;   KBLOCK =      1    inner block; outer block 
   IBRION =     -1    ionic relax: 0-MD 1-quasi-New 2-CG
   NFREE  =      0    steps in history (QN), initial steepest desc. (CG)
   ISIF   =      2    stress and relaxation
   IWAVPR =     10    prediction:  0-non 1-charg 2-wave 3-comb
   ISYM   =      2    0-nonsym 1-usesym 2-fastsym
   LCORR  =      T    Harris-Foulkes like correction to forces

   POTIM  = 0.0200    time-step for ionic-motion
   TEIN   =    0.0    initial temperature
   TEBEG  =    0.0;   TEEND  =   0.0 temperature during run
   SMASS  =  -3.00    Nose mass-parameter (am)
   estimated Nose-frequenzy (Omega)   =  0.10E-29 period in steps =****** mass=  -0.292E-27a.u.
   SCALEE = 1.0000    scale energy and forces
   NPACO  =    256;   APACO  = 16.0  distance and # of slots for P.C.
   PSTRESS=    0.0 pullay stress

  Mass of Ions in am
   POMASS =  12.01
  Ionic Valenz
   ZVAL   =   4.00
  Atomic Wigner-Seitz radii
   RWIGS  =  -1.00
  virtual crystal weights 
   VCA    =   1.00
   NELECT =      32.0000    total number of electrons
   NUPDOWN=      -1.0000    fix difference up-down

 DOS related values:
   EMIN   =  10.00;   EMAX   =-10.00  energy-range for DOS
   EFERMI =   0.00
   ISMEAR =    -5;   SIGMA  =   0.06  broadening in eV -4-tet -1-fermi 0-gaus

 Electronic relaxation 2 (details)
   IALGO  =     38    algorithm
   LDIAG  =      T    sub-space diagonalisation (order eigenvalues)
   LSUBROT=      F    optimize rotation matrix (better conditioning)
   TURBO    =      0    0=normal 1=particle mesh
   IRESTART =      0    0=no restart 2=restart with 2 vectors
   NREBOOT  =      0    no. of reboots
   NMIN     =      0    reboot dimension
   EREF     =   0.00    reference energy to select bands
   IMIX   =      4    mixing-type and parameters
     AMIX     =   0.40;   BMIX     =  1.00
     AMIX_MAG =   1.60;   BMIX_MAG =  1.00
     AMIN     =   0.10
     WC   =   100.;   INIMIX=   1;  MIXPRE=   1;  MAXMIX= -45

 Intra band minimization:
   WEIMIN = 0.0000     energy-eigenvalue tresh-hold
   EBREAK =  0.10E-07  absolut break condition
   DEPER  =   0.30     relativ break condition  

   TIME   =   0.40     timestep for ELM

  volume/ion in A,a.u.               =       5.71        38.50
  Fermi-wavevector in a.u.,A,eV,Ry     =   1.454361  2.748344 28.778575  2.115166
  Thomas-Fermi vector in A             =   2.571520
 
 Write flags
   LWAVE        =      F    write WAVECAR
   LDOWNSAMPLE  =      F    k-point downsampling of WAVECAR
   LCHARG       =      F    write CHGCAR
   LVTOT        =      F    write LOCPOT, total local potential
   LVHAR        =      F    write LOCPOT, Hartree potential only
   LELF         =      F    write electronic localiz. function (ELF)
   LORBIT       =      0    0 simple, 1 ext, 2 COOP (PROOUT), +10 PAW based schemes


 Dipole corrections
   LMONO  =      F    monopole corrections only (constant potential shift)
   LDIPOL =      F    correct potential (dipole corrections)
   IDIPOL =      0    1-x, 2-y, 3-z, 4-all directions 
   EPSILON=  1.0000000 bulk dielectric constant

 Exchange correlation treatment:
   GGA     =    --    GGA type
   LEXCH   =     8    internal setting for exchange type
   VOSKOWN=      0    Vosko Wilk Nusair interpolation
   LHFCALC =     F    Hartree Fock is set to
   LHFONE  =     F    Hartree Fock one center treatment
   AEXX    =    0.0000 exact exchange contribution

 Linear response parameters
   LEPSILON=     F    determine dielectric tensor
   LRPA    =     F    only Hartree local field effects (RPA)
   LNABLA  =     F    use nabla operator in PAW spheres
   LVEL    =     F    velocity operator in full k-point grid
   LINTERFAST=   F  fast interpolation
   KINTER  =     0    interpolate to denser k-point grid
   CSHIFT  =0.1000    complex shift for real part using Kramers Kronig
   OMEGAMAX=  -1.0    maximum frequency
   DEG_THRESHOLD= 0.2000000E-02 threshold for treating states as degnerate
   RTIME   =   -0.100 relaxation time in fs
  (WPLASMAI=    0.000 imaginary part of plasma frequency in eV, 0.658/RTIME)
   DFIELD  = 0.0000000 0.0000000 0.0000000 field for delta impulse in time
 
 Orbital magnetization related:
   ORBITALMAG=     F  switch on orbital magnetization
   LCHIMAG   =     F  perturbation theory with respect to B field
   DQ        =  0.001000  dq finite difference perturbation B field
   LLRAUG    =     F  two centre corrections for induced B field



--------------------------------------------------------------------------------------------------------


 Static calculation
 charge density and potential will be updated during run
 non-spin polarized calculation
 Variant of blocked Davidson
 Davidson routine will perform the subspace rotation
 perform sub-space diagonalisation
    after iterative eigenvector-optimisation
 modified Broyden-mixing scheme, WC =      100.0
 initial mixing is a Kerker type mixing with AMIX =  0.4000 and BMIX =      1.0000
 Hartree-type preconditioning will be used
 using additional bands            8
 reciprocal scheme for non local part
 calculate Harris-corrections to forces 
   (improved forces if not selfconsistent)
 use gradient corrections 
 use of overlap-Matrix (Vanderbilt PP)
 Fermi weights with tetrahedron method with Bloechl corrections


--------------------------------------------------------------------------------------------------------


  energy-cutoff  :      400.00
  volume of cell :       45.64
      direct lattice vectors                 reciprocal lattice vectors
     3.573710000  0.000000000  0.000000000     0.279821250  0.000000000  0.000000000
     0.000000000  3.573710000  0.000000000     0.000000000  0.279821250  0.000000000
     0.000000000  0.000000000  3.573710000     0.000000000  0.000000000  0.279821250

  length of vectors
     3.573710000  3.573710000  3.573710000     0.279821250  0.279821250  0.279821250


 
 k-points in units of 2pi/SCALE and weight: kpt_density=1000                        
   0.00000000  0.00000000  0.00000000       0.001
   0.02331844  0.00000000  0.00000000       0.003
   0.04663688  0.00000000  0.00000000       0.003
   0.06995531  0.00000000  0.00000000       0.003
   0.09327375  0.00000000  0.00000000       0.003
   0.11659219  0.00000000  0.00000000       0.003
   0.13991063  0.00000000  0.00000000       0.002
   0.02331844  0.02331844  0.00000000       0.007
   0.04663688  0.02331844  0.00000000       0.014
   0.06995531  0.02331844  0.00000000       0.014
   0.09327375  0.02331844  0.00000000       0.014
   0.11659219  0.02331844  0.00000000       0.014
   0.13991063  0.02331844  0.00000000       0.007
   0.04663688  0.04663688  0.00000000       0.007
   0.06995531  0.04663688  0.00000000       0.014
   0.09327375  0.04663688  0.00000000       0.014
   0.11659219  0.04663688  0.00000000       0.014
   0.13991063  0.04663688  0.00000000       0.007
   0.06995531  0.06995531  0.00000000       0.007
   0.09327375  0.06995531  0.00000000       0.014
   0.11659219  0.06995531  0.00000000       0.014
   0.13991063  0.06995531  0.00000000       0.007
   0.09327375  0.09327375  0.00000000       0.007
   0.11659219  0.09327375  0.00000000       0.014
   0.13991063  0.09327375  0.00000000       0.007
   0.11659219  0.11659219  0.00000000       0.007
   0.13991063  0.11659219  0.00000000       0.007
   0.13991063  0.13991063  0.00000000       0.002
   0.02331844  0.02331844  0.02331844       0.005
   0.04663688  0.02331844  0.02331844       0.014
   0.06995531  0.02331844  0.02331844       0.014
   0.09327375  0.02331844  0.02331844       0.014
   0.11659219  0.02331844  0.02331844       0.014
   0.13991063  0.02331844  0.02331844       0.007
   0.04663688  0.04663688  0.02331844       0.014
   0.06995531  0.04663688  0.02331844       0.028
   0.09327375  0.04663688  0.02331844       0.028
   0.11659219  0.04663688  0.02331844       0.028
   0.13991063  0.04663688  0.02331844       0.014
   0.06995531  0.06995531  0.02331844       0.014
   0.09327375  0.06995531  0.02331844       0.028
   0.11659219  0.06995531  0.02331844       0.028
   0.13991063  0.06995531  0.02331844       0.014
   0.09327375  0.09327375  0.02331844       0.014
   0.11659219  0.09327375  0.02331844       0.028
   0.13991063  0.09327375  0.02331844       0.014
   0.11659219  0.11659219  0.02331844       0.014
   0.13991063  0.11659219  0.02331844       0.014
   0.13991063  0.13991063  0.02331844       0.003
   0.04663688  0.04663688  0.04663688       0.005
   0.06995531  0.04663688  0.04663688       0.014
   0.09327375  0.04663688  0.04663688       0.014
   0.11659219  0.04663688  0.04663688       0.014
   0.13991063  0.04663688  0.04663688       0.007
   0.06995531  0.06995531  0.04663688       0.014
   0.09327375  0.06995531  0.04663688       0.028
   0.11659219  0.06995531  0.04663688       0.028
   0.13991063  0.06995531  0.04663688       0.014
   0.09327375  0.09327375  0.04663688       0.014
   0.11659219  0.09327375  0.04663688       0.028
   0.13991063  0.09327375  0.04663688       0.014
   0.11659219  0.11659219  0.04663688       0.014
   0.13991063  0.11659219  0.04663688       0.014
   0.13991063  0.13991063  0.04663688       0.003
   0.06995531  0.06995531  0.06995531       0.005
   0.09327375  0.06995531  0.06995531       0.014
   0.11659219  0.06995531  0.06995531       0.014
   0.13991063  0.06995531  0.06995531       0.007
   0.09327375  0.09327375  0.06995531       0.014
   0.11659219  0.09327375  0.06995531       0.028
   0.13991063  0.09327375  0.06995531       0.014
   0.11659219  0.11659219  0.06995531       0.014
   0.13991063  0.11659219  0.06995531       0.014
   0.13991063  0.13991063  0.06995531       0.003
   0.09327375  0.09327375  0.09327375       0.005
   0.11659219  0.09327375  0.09327375       0.014
   0.13991063  0.09327375  0.09327375       0.007
   0.11659219  0.11659219  0.09327375       0.014
   0.13991063  0.11659219  0.09327375       0.014
   0.13991063  0.13991063  0.09327375       0.003
   0.11659219  0.11659219  0.11659219       0.005
   0.13991063  0.11659219  0.11659219       0.007
   0.13991063  0.13991063  0.11659219       0.003
   0.13991063  0.13991063  0.13991063       0.001
 
 k-points in reciprocal lattice and weights: kpt_density=1000                        
   0.00000000  0.00000000  0.00000000       0.001
   0.08333333  0.00000000  0.00000000       0.003
   0.16666667  0.00000000  0.00000000       0.003
   0.25000000  0.00000000  0.00000000       0.003
   0.33333333  0.00000000  0.00000000       0.003
   0.41666667  0.00000000  0.00000000       0.003
   0.50000000  0.00000000  0.00000000       0.002
   0.08333333  0.08333333  0.00000000       0.007
   0.16666667  0.08333333  0.00000000       0.014
   0.25000000  0.08333333  0.00000000       0.014
   0.33333333  0.08333333  0.00000000       0.014
   0.41666667  0.08333333  0.00000000       0.014
   0.50000000  0.08333333  0.00000000       0.007
   0.16666667  0.16666667  0.00000000       0.007
   0.25000000  0.16666667  0.00000000       0.014
   0.33333333  0.16666667  0.00000000       0.014
   0.41666667  0.16666667  0.00000000       0.014
   0.50000000  0.16666667  0.00000000       0.007
   0.25000000  0.25000000  0.00000000       0.007
   0.33333333  0.25000000  0.00000000       0.014
   0.41666667  0.25000000  0.00000000       0.014
   0.50000000  0.25000000  0.00000000       0.007
   0.33333333  0.33333333  0.00000000       0.007
   0.41666667  0.33333333  0.00000000       0.014
   0.50000000  0.33333333  0.00000000       0.007
   0.41666667  0.41666667  0.00000000       0.007
   0.50000000  0.41666667  0.00000000       0.007
   0.50000000  0.50000000  0.00000000       0.002
   0.08333333  0.08333333  0.08333333       0.005
   0.16666667  0.08333333  0.08333333       0.014
   0.25000000  0.08333333  0.08333333       0.014
   0.33333333  0.08333333  0.08333333       0.014
   0.41666667  0.08333333  0.08333333       0.014
   0.50000000  0.08333333  0.08333333       0.007
   0.16666667  0.16666667  0.08333333       0.014
   0.25000000  0.16666667  0.08333333       0.028
   0.33333333  0.16666667  0.08333333       0.028
   0.41666667  0.16666667  0.08333333       0.028
   0.50000000  0.16666667  0.08333333       0.014
   0.25000000  0.25000000  0.08333333       0.014
   0.33333333  0.25000000  0.08333333       0.028
   0.41666667  0.25000000  0.08333333       0.028
   0.50000000  0.25000000  0.08333333       0.014
   0.33333333  0.33333333  0.08333333       0.014
   0.41666667  0.33333333  0.08333333       0.028
   0.50000000  0.33333333  0.08333333       0.014
   0.41666667  0.41666667  0.08333333       0.014
   0.50000000  0.41666667  0.08333333       0.014
   0.50000000  0.50000000  0.08333333       0.003
   0.16666667  0.16666667  0.16666667       0.005
   0.25000000  0.16666667  0.16666667       0.014
   0.33333333  0.16666667  0.16666667       0.014
   0.41666667  0.16666667  0.16666667       0.014
   0.50000000  0.16666667  0.16666667       0.007
   0.25000000  0.25000000  0.16666667       0.014
   0.33333333  0.25000000  0.16666667       0.028
   0.41666667  0.25000000  0.16666667       0.028
   0.50000000  0.25000000  0.16666667       0.014
   0.33333333  0.33333333  0.16666667       0.014
   0.41666667  0.33333333  0.16666667       0.028
   0.50000000  0.33333333  0.16666667       0.014
   0.41666667  0.41666667  0.16666667       0.014
   0.50000000  0.41666667  0.16666667       0.014
   0.50000000  0.50000000  0.16666667       0.003
   0.25000000  0.25000000  0.25000000       0.005
   0.33333333  0.25000000  0.25000000       0.014
   0.41666667  0.25000000  0.25000000       0.014
   0.50000000  0.25000000  0.25000000       0.007
   0.33333333  0.33333333  0.25000000       0.014
   0.41666667  0.33333333  0.25000000       0.028
   0.50000000  0.33333333  0.25000000       0.014
   0.41666667  0.41666667  0.25000000       0.014
   0.50000000  0.41666667  0.25000000       0.014
   0.50000000  0.50000000  0.25000000       0.003
   0.33333333  0.33333333  0.33333333       0.005
   0.41666667  0.33333333  0.33333333       0.014
   0.50000000  0.33333333  0.33333333       0.007
   0.41666667  0.41666667  0.33333333       0.014
   0.50000000  0.41666667  0.33333333       0.014
   0.50000000  0.50000000  0.33333333       0.003
   0.41666667  0.41666667  0.41666667       0.005
   0.50000000  0.41666667  0.41666667       0.007
   0.50000000  0.50000000  0.41666667       0.003
   0.50000000  0.50000000  0.50000000       0.001
 
 position of ions in fractional coordinates (direct lattice) 
   0.25000000  0.75000000  0.25000000
   0.00000000  0.00000000  0.50000000
   0.25000000  0.25000000  0.75000000
   0.00000000  0.50000000  0.00000000
   0.75000000  0.75000000  0.75000000
   0.50000000  0.00000000  0.00000000
   0.75000000  0.25000000  0.25000000
   0.50000000  0.50000000  0.50000000
 
 position of ions in cartesian coordinates  (Angst):
   0.89342750  2.68028250  0.89342750
   0.00000000  0.00000000  1.78685500
   0.89342750  0.89342750  2.68028250
   0.00000000  1.78685500  0.00000000
   2.68028250  2.68028250  2.68028250
   1.78685500  0.00000000  0.00000000
   2.68028250  0.89342750  0.89342750
   1.78685500  1.78685500  1.78685500
 


--------------------------------------------------------------------------------------------------------


 k-point  1 :   0.0000 0.0000 0.0000  plane waves:     799
 k-point  2 :   0.0833 0.0000 0.0000  plane waves:     819
 k-point  3 :   0.1667 0.0000 0.0000  plane waves:     815
 k-point  4 :   0.2500 0.0000 0.0000  plane waves:     812
 k-point  5 :   0.3333 0.0000 0.0000  plane waves:     824
 k-point  6 :   0.4167 0.0000 0.0000  plane waves:     816
 k-point  7 :   0.5000 0.0000 0.0000  plane waves:     820
 k-point  8 :   0.0833 0.0833 0.0000  plane waves:     819
 k-point  9 :   0.1667 0.0833 0.0000  plane waves:     820
 k-point 10 :   0.2500 0.0833 0.0000  plane waves:     824
 k-point 11 :   0.3333 0.0833 0.0000  plane waves:     832
 k-point 12 :   0.4167 0.0833 0.0000  plane waves:     832
 k-point 13 :   0.5000 0.0833 0.0000  plane waves:     834
 k-point 14 :   0.1667 0.1667 0.0000  plane waves:     818
 k-point 15 :   0.2500 0.1667 0.0000  plane waves:     832
 k-point 16 :   0.3333 0.1667 0.0000  plane waves:     833
 k-point 17 :   0.4167 0.1667 0.0000  plane waves:     831
 k-point 18 :   0.5000 0.1667 0.0000  plane waves:     834
 k-point 19 :   0.2500 0.2500 0.0000  plane waves:     822
 k-point 20 :   0.3333 0.2500 0.0000  plane waves:     831
 k-point 21 :   0.4167 0.2500 0.0000  plane waves:     831
 k-point 22 :   0.5000 0.2500 0.0000  plane waves:     824
 k-point 23 :   0.3333 0.3333 0.0000  plane waves:     840
 k-point 24 :   0.4167 0.3333 0.0000  plane waves:     832
 k-point 25 :   0.5000 0.3333 0.0000  plane waves:     820
 k-point 26 :   0.4167 0.4167 0.0000  plane waves:     834
 k-point 27 :   0.5000 0.4167 0.0000  plane waves:     832
 k-point 28 :   0.5000 0.5000 0.0000  plane waves:     840
 k-point 29 :   0.0833 0.0833 0.0833  plane waves:     826
 k-point 30 :   0.1667 0.0833 0.0833  plane waves:     821
 k-point 31 :   0.2500 0.0833 0.0833  plane waves:     826
 k-point 32 :   0.3333 0.0833 0.0833  plane waves:     833
 k-point 33 :   0.4167 0.0833 0.0833  plane waves:     832
 k-point 34 :   0.5000 0.0833 0.0833  plane waves:     830
 k-point 35 :   0.1667 0.1667 0.0833  plane waves:     823
 k-point 36 :   0.2500 0.1667 0.0833  plane waves:     826
 k-point 37 :   0.3333 0.1667 0.0833  plane waves:     825
 k-point 38 :   0.4167 0.1667 0.0833  plane waves:     831
 k-point 39 :   0.5000 0.1667 0.0833  plane waves:     832
 k-point 40 :   0.2500 0.2500 0.0833  plane waves:     824
 k-point 41 :   0.3333 0.2500 0.0833  plane waves:     834
 k-point 42 :   0.4167 0.2500 0.0833  plane waves:     830
 k-point 43 :   0.5000 0.2500 0.0833  plane waves:     824
 k-point 44 :   0.3333 0.3333 0.0833  plane waves:     832
 k-point 45 :   0.4167 0.3333 0.0833  plane waves:     830
 k-point 46 :   0.5000 0.3333 0.0833  plane waves:     824
 k-point 47 :   0.4167 0.4167 0.0833  plane waves:     830
 k-point 48 :   0.5000 0.4167 0.0833  plane waves:     830
 k-point 49 :   0.5000 0.5000 0.0833  plane waves:     836
 k-point 50 :   0.1667 0.1667 0.1667  plane waves:     820
 k-point 51 :   0.2500 0.1667 0.1667  plane waves:     829
 k-point 52 :   0.3333 0.1667 0.1667  plane waves:     831
 k-point 53 :   0.4167 0.1667 0.1667  plane waves:     828
 k-point 54 :   0.5000 0.1667 0.1667  plane waves:     828
 k-point 55 :   0.2500 0.2500 0.1667  plane waves:     829
 k-point 56 :   0.3333 0.2500 0.1667  plane waves:     830
 k-point 57 :   0.4167 0.2500 0.1667  plane waves:     824
 k-point 58 :   0.5000 0.2500 0.1667  plane waves:     820
 k-point 59 :   0.3333 0.3333 0.1667  plane waves:     838
 k-point 60 :   0.4167 0.3333 0.1667  plane waves:     824
 k-point 61 :   0.5000 0.3333 0.1667  plane waves:     824
 k-point 62 :   0.4167 0.4167 0.1667  plane waves:     829
 k-point 63 :   0.5000 0.4167 0.1667  plane waves:     836
 k-point 64 :   0.5000 0.5000 0.1667  plane waves:     844
 k-point 65 :   0.2500 0.2500 0.2500  plane waves:     838
 k-point 66 :   0.3333 0.2500 0.2500  plane waves:     830
 k-point 67 :   0.4167 0.2500 0.2500  plane waves:     820
 k-point 68 :   0.5000 0.2500 0.2500  plane waves:     836
 k-point 69 :   0.3333 0.3333 0.2500  plane waves:     833
 k-point 70 :   0.4167 0.3333 0.2500  plane waves:     828
 k-point 71 :   0.5000 0.3333 0.2500  plane waves:     836
 k-point 72 :   0.4167 0.4167 0.2500  plane waves:     835
 k-point 73 :   0.5000 0.4167 0.2500  plane waves:     836
 k-point 74 :   0.5000 0.5000 0.2500  plane waves:     824
 k-point 75 :   0.3333 0.3333 0.3333  plane waves:     814
 k-point 76 :   0.4167 0.3333 0.3333  plane waves:     831
 k-point 77 :   0.5000 0.3333 0.3333  plane waves:     828
 k-point 78 :   0.4167 0.4167 0.3333  plane waves:     833
 k-point 79 :   0.5000 0.4167 0.3333  plane waves:     838
 k-point 80 :   0.5000 0.5000 0.3333  plane waves:     840
 k-point 81 :   0.4167 0.4167 0.4167  plane waves:     840
 k-point 82 :   0.5000 0.4167 0.4167  plane waves:     852
 k-point 83 :   0.5000 0.5000 0.4167  plane waves:     844
 k-point 84 :   0.5000 0.5000 0.5000  plane waves:     840

 maximum and minimum number of plane-waves per node :       222      184

 maximum number of plane-waves:       852
 maximum index in each direction: 
   IXMAX=    5   IYMAX=    5   IZMAX=    5
   IXMIN=   -6   IYMIN=   -6   IZMIN=   -6


 parallel 3D FFT for wavefunctions:
    minimum data exchange during FFTs selected (reduces bandwidth)
 parallel 3D FFT for charge:
    minimum data exchange during FFTs selected (reduces bandwidth)


 total amount of memory used by VASP MPI-rank0    33836. kBytes
=======================================================================

   base      :      30000. kBytes
   nonl-proj :       1166. kBytes
   fftplans  :        345. kBytes
   grid      :        481. kBytes
   one-center:          6. kBytes
   wavefun   :       1838. kBytes
 
     INWAV:  cpu time    0.0004: real time    0.0006
 Broyden mixing: mesh for mixing (old mesh)
   NGX = 11   NGY = 11   NGZ = 11
  (NGX  = 48   NGY  = 48   NGZ  = 48)
  gives a total of   1331 points

 initial charge density was supplied:
 charge density of overlapping atoms calculated
 number of electron      32.0000000 magnetization 
 keeping initial charge density in first step


--------------------------------------------------------------------------------------------------------


 Maximum index for augmentation-charges          277 (set IRDMAX)


--------------------------------------------------------------------------------------------------------


 First call to EWALD:  gamma=   0.496
 Maximum number of real-space cells 3x 3x 3
 Maximum number of reciprocal cells 3x 3x 3

    FEWALD:  cpu time    0.0053: real time    0.0053


--------------------------------------- Iteration      1(   1)  ---------------------------------------


    POTLOK:  cpu time    0.0292: real time    0.0337
    SETDIJ:  cpu time    0.0067: real time    0.0066
     EDDAV:  cpu time    5.1556: real time    5.1624
 BZINTS: Fermi energy: 18.411439; 32.000000 electrons
         Band energy: 122.655865;  BLOECHL correction: -0.120867
       DOS:  cpu time    0.1641: real time    0.1641
    --------------------------------------------
      LOOP:  cpu time    5.3556: real time    5.3668

 eigenvalue-minimisations  :  4032
 total energy-change (2. order) : 0.5884780E+02  (-0.1443266E+04)
 number of electron      32.0000000 magnetization 
 augmentation part       32.0000000 magnetization 

 Free energy of the ion-electron system (eV)
  ---------------------------------------------------
  alpha Z        PSCENC =       114.25466631
  Ewald energy   TEWEN  =     -1389.14459755
  -Hartree energ DENC   =       -70.96843249
  -exchange      EXHF   =         0.00000000
  -V(xc)+E(xc)   XCENC  =       114.23634573
  PAW double counting   =       302.65154477     -311.85538214
  entropy T*S    EENTRO =         0.00000000
  eigenvalues    EBANDS =       122.65586456
  atomic energy  EATOM  =      1177.01779097
  Solvation  Ediel_sol  =         0.00000000
  ---------------------------------------------------
  free energy    TOTEN  =        58.84780015 eV

  energy without entropy =       58.84780015  energy(sigma->0) =       58.84780015


--------------------------------------------------------------------------------------------------------




--------------------------------------- Iteration      1(   2)  ---------------------------------------


     EDDAV:  cpu time    6.2603: real time    6.2608
 BZINTS: Fermi energy:  8.985664; 32.000000 electrons
         Band energy:  -7.188655;  BLOECHL correction:  0.000000
       DOS:  cpu time    0.0413: real time    0.0413
    --------------------------------------------
      LOOP:  cpu time    6.3015: real time    6.3021

 eigenvalue-minimisations  :  5504
 total energy-change (2. order) :-0.1298445E+03  (-0.1232243E+03)
 number of electron      32.0000000 magnetization 
 augmentation part       32.0000000 magnetization 

 Free energy of the ion-electron system (eV)
  ---------------------------------------------------
  alpha Z        PSCENC =       114.25466631
  Ewald energy   TEWEN  =     -1389.14459755
  -Hartree energ DENC   =       -70.96843249
  -exchange      EXHF   =         0.00000000
  -V(xc)+E(xc)   XCENC  =       114.23634573
  PAW double counting   =       302.65154477     -311.85538214
  entropy T*S    EENTRO =         0.00000000
  eigenvalues    EBANDS =        -7.18865545
  atomic energy  EATOM  =      1177.01779097
  Solvation  Ediel_sol  =         0.00000000
  ---------------------------------------------------
  free energy    TOTEN  =       -70.99671986 eV

  energy without entropy =      -70.99671986  energy(sigma->0) =      -70.99671986


--------------------------------------------------------------------------------------------------------




--------------------------------------- Iteration      1(   3)  ---------------------------------------


     EDDAV:  cpu time    6.6827: real time    6.6860
 BZINTS: Fermi energy:  8.318040; 32.000000 electrons
         Band energy: -11.386555;  BLOECHL correction:  0.000000
       DOS:  cpu time    0.0366: real time    0.0366
    --------------------------------------------
      LOOP:  cpu time    6.7194: real time    6.7227

 eigenvalue-minimisations  :  5184
 total energy-change (2. order) :-0.4197900E+01  (-0.4179168E+01)
 number of electron      32.0000000 magnetization 
 augmentation part       32.0000000 magnetization 

 Free energy of the ion-electron system (eV)
  ---------------------------------------------------
  alpha Z        PSCENC =       114.25466631
  Ewald energy   TEWEN  =     -1389.14459755
  -Hartree energ DENC   =       -70.96843249
  -exchange      EXHF   =         0.00000000
  -V(xc)+E(xc)   XCENC  =       114.23634573
  PAW double counting   =       302.65154477     -311.85538214
  entropy T*S    EENTRO =         0.00000000
  eigenvalues    EBANDS =       -11.38655516
  atomic energy  EATOM  =      1177.01779097
  Solvation  Ediel_sol  =         0.00000000
  ---------------------------------------------------
  free energy    TOTEN  =       -75.19461957 eV

  energy without entropy =      -75.19461957  energy(sigma->0) =      -75.19461957


--------------------------------------------------------------------------------------------------------




--------------------------------------- Iteration      1(   4)  ---------------------------------------


     EDDAV:  cpu time    6.6185: real time    6.6193
 BZINTS: Fermi energy:  8.341699; 32.000000 electrons
         Band energy: -11.428335;  BLOECHL correction:  0.000000
       DOS:  cpu time    0.0367: real time    0.0367
    --------------------------------------------
      LOOP:  cpu time    6.6552: real time    6.6560

 eigenvalue-minimisations  :  5144
 total energy-change (2. order) :-0.4178028E-01  (-0.4174107E-01)
 number of electron      32.0000000 magnetization 
 augmentation part       32.0000000 magnetization 

 Free energy of the ion-electron system (eV)
  ---------------------------------------------------
  alpha Z        PSCENC =       114.25466631
  Ewald energy   TEWEN  =     -1389.14459755
  -Hartree energ DENC   =       -70.96843249
  -exchange      EXHF   =         0.00000000
  -V(xc)+E(xc)   XCENC  =       114.23634573
  PAW double counting   =       302.65154477     -311.85538214
  entropy T*S    EENTRO =         0.00000000
  eigenvalues    EBANDS =       -11.42833544
  atomic energy  EATOM  =      1177.01779097
  Solvation  Ediel_sol  =         0.00000000
  ---------------------------------------------------
  free energy    TOTEN  =       -75.23639985 eV

  energy without entropy =      -75.23639985  energy(sigma->0) =      -75.23639985


--------------------------------------------------------------------------------------------------------




--------------------------------------- Iteration      1(   5)  ---------------------------------------


     EDDAV:  cpu time    6.0146: real time    6.0153
 BZINTS: Fermi energy:  8.318723; 32.000000 electrons
         Band energy: -11.429150;  BLOECHL correction:  0.000000
       DOS:  cpu time    0.0365: real time    0.0365
    CHARGE:  cpu time    0.1403: real time    0.1403
    MIXING:  cpu time    0.0020: real time    0.0020
    --------------------------------------------
      LOOP:  cpu time    6.1935: real time    6.1941

 eigenvalue-minimisations  :  5160
 total energy-change (2. order) :-0.8143426E-03  (-0.8139916E-03)
 number of electron      32.0000027 magnetization 
 augmentation part        0.7844299 magnetization 

 Broyden mixing:
  rms(total) = 0.94363E+00    rms(broyden)= 0.94346E+00
  rms(prec ) = 0.22293E+01
  weight for this iteration     100.00

 Free energy of the ion-electron system (eV)
  ---------------------------------------------------
  alpha Z        PSCENC =       114.25466631
  Ewald energy   TEWEN  =     -1389.14459755
  -Hartree energ DENC   =       -70.96843249
  -exchange      EXHF   =         0.00000000
  -V(xc)+E(xc)   XCENC  =       114.23634573
  PAW double counting   =       302.65154477     -311.85538214
  entropy T*S    EENTRO =         0.00000000
  eigenvalues    EBANDS =       -11.42914978
  atomic energy  EATOM  =      1177.01779097
  Solvation  Ediel_sol  =         0.00000000
  ---------------------------------------------------
  free energy    TOTEN  =       -75.23721419 eV

  energy without entropy =      -75.23721419  energy(sigma->0) =      -75.23721419


--------------------------------------------------------------------------------------------------------




--------------------------------------- Iteration      1(   6)  ---------------------------------------


    POTLOK:  cpu time    0.0224: real time    0.0231
    SETDIJ:  cpu time    0.0065: real time    0.0065
     EDDAV:  cpu time    5.6811: real time    5.6814
 BZINTS: Fermi energy:  8.930017; 32.000000 electrons
         Band energy:   4.658976;  BLOECHL correction:  0.000000
       DOS:  cpu time    0.0367: real time    0.0367
    CHARGE:  cpu time    0.1535: real time    0.1535
    MIXING:  cpu time    0.0019: real time    0.0019
    --------------------------------------------
      LOOP:  cpu time    5.9020: real time    5.9030

 eigenvalue-minimisations  :  4664
 total energy-change (2. order) : 0.1865674E+01  (-0.1236032E+00)
 number of electron      32.0000026 magnetization 
 augmentation part        0.7667521 magnetization 

 Broyden mixing:
  rms(total) = 0.51759E+00    rms(broyden)= 0.51758E+00
  rms(prec ) = 0.12058E+01
  weight for this iteration     100.00

 eigenvalues of (default mixing * dielectric matrix)
  average eigenvalue GAMMA=   2.1678
  2.1678

 Free energy of the ion-electron system (eV)
  ---------------------------------------------------
  alpha Z        PSCENC =       114.25466631
  Ewald energy   TEWEN  =     -1389.14459755
  -Hartree energ DENC   =       -86.06987590
  -exchange      EXHF   =         0.00000000
  -V(xc)+E(xc)   XCENC  =       115.65008601
  PAW double counting   =       393.03515267     -402.77373855
  entropy T*S    EENTRO =         0.00000000
  eigenvalues    EBANDS =         4.65897618
  atomic energy  EATOM  =      1177.01779097
  Solvation  Ediel_sol  =         0.00000000
  ---------------------------------------------------
  free energy    TOTEN  =       -73.37153987 eV

  energy without entropy =      -73.37153987  energy(sigma->0) =      -73.37153987


--------------------------------------------------------------------------------------------------------




--------------------------------------- Iteration      1(   7)  ---------------------------------------


    POTLOK:  cpu time    0.0233: real time    0.0239
    SETDIJ:  cpu time    0.0058: real time    0.0059
     EDDAV:  cpu time    5.6402: real time    5.6405
 BZINTS: Fermi energy:  9.710371; 32.000000 electrons
         Band energy:  23.255603;  BLOECHL correction:  0.000000
       DOS:  cpu time    0.0370: real time    0.0370
    CHARGE:  cpu time    0.1703: real time    0.1703
    MIXING:  cpu time    0.0027: real time    0.0027
    --------------------------------------------
      LOOP:  cpu time    5.8793: real time    5.8802

 eigenvalue-minimisations  :  4736
 total energy-change (2. order) : 0.6303316E+00  (-0.1396940E+00)
 number of electron      32.0000026 magnetization 
 augmentation part        0.7476886 magnetization 

 Broyden mixing:
  rms(total) = 0.69473E-01    rms(broyden)= 0.69144E-01
  rms(prec ) = 0.12107E+00
  weight for this iteration     100.00

 eigenvalues of (default mixing * dielectric matrix)
  average eigenvalue GAMMA=   2.2684
  2.0019  2.5349

 Free energy of the ion-electron system (eV)
  ---------------------------------------------------
  alpha Z        PSCENC =       114.25466631
  Ewald energy   TEWEN  =     -1389.14459755
  -Hartree energ DENC   =      -105.35544839
  -exchange      EXHF   =         0.00000000
  -V(xc)+E(xc)   XCENC  =       117.47662619
  PAW double counting   =       515.88752772     -526.13337641
  entropy T*S    EENTRO =         0.00000000
  eigenvalues    EBANDS =        23.25560292
  atomic energy  EATOM  =      1177.01779097
  Solvation  Ediel_sol  =         0.00000000
  ---------------------------------------------------
  free energy    TOTEN  =       -72.74120823 eV

  energy without entropy =      -72.74120823  energy(sigma->0) =      -72.74120823


--------------------------------------------------------------------------------------------------------




--------------------------------------- Iteration      1(   8)  ---------------------------------------


    POTLOK:  cpu time    0.0260: real time    0.0264
    SETDIJ:  cpu time    0.0061: real time    0.0061
     EDDAV:  cpu time    6.1012: real time    6.1015
 BZINTS: Fermi energy:  9.701528; 32.000000 electrons
         Band energy:  23.573859;  BLOECHL correction:  0.000000
       DOS:  cpu time    0.0369: real time    0.0369
    CHARGE:  cpu time    0.1520: real time    0.1520
    MIXING:  cpu time    0.0032: real time    0.0032
    --------------------------------------------
      LOOP:  cpu time    6.3255: real time    6.3261

 eigenvalue-minimisations  :  5152
 total energy-change (2. order) :-0.7388922E-02  (-0.2749333E-02)
 number of electron      32.0000026 magnetization 
 augmentation part        0.7480670 magnetization 

 Broyden mixing:
  rms(total) = 0.79826E-02    rms(broyden)= 0.78798E-02
  rms(prec ) = 0.13871E-01
  weight for this iteration     100.00

 eigenvalues of (default mixing * dielectric matrix)
  average eigenvalue GAMMA=   2.0998
  1.4509  2.6778  2.1708

 Free energy of the ion-electron system (eV)
  ---------------------------------------------------
  alpha Z        PSCENC =       114.25466631
  Ewald energy   TEWEN  =     -1389.14459755
  -Hartree energ DENC   =      -105.86006379
  -exchange      EXHF   =         0.00000000
  -V(xc)+E(xc)   XCENC  =       117.52804446
  PAW double counting   =       525.25652923     -535.37482537
  entropy T*S    EENTRO =         0.00000000
  eigenvalues    EBANDS =        23.57385859
  atomic energy  EATOM  =      1177.01779097
  Solvation  Ediel_sol  =         0.00000000
  ---------------------------------------------------
  free energy    TOTEN  =       -72.74859716 eV

  energy without entropy =      -72.74859716  energy(sigma->0) =      -72.74859716


--------------------------------------------------------------------------------------------------------




--------------------------------------- Iteration      1(   9)  ---------------------------------------


    POTLOK:  cpu time    0.0301: real time    0.0305
    SETDIJ:  cpu time    0.0056: real time    0.0056
     EDDAV:  cpu time    5.8394: real time    5.8397
 BZINTS: Fermi energy:  9.796049; 32.000000 electrons
         Band energy:  23.467180;  BLOECHL correction:  0.000000
       DOS:  cpu time    0.0367: real time    0.0367
    CHARGE:  cpu time    0.1687: real time    0.1687
    MIXING:  cpu time    0.0024: real time    0.0024
    --------------------------------------------
      LOOP:  cpu time    6.0828: real time    6.0836

 eigenvalue-minimisations  :  4872
 total energy-change (2. order) :-0.2125917E-03  (-0.4281224E-04)
 number of electron      32.0000026 magnetization 
 augmentation part        0.7480219 magnetization 

 Broyden mixing:
  rms(total) = 0.28235E-02    rms(broyden)= 0.28161E-02
  rms(prec ) = 0.50081E-02
  weight for this iteration     100.00

 eigenvalues of (default mixing * dielectric matrix)
  average eigenvalue GAMMA=   2.0514
  0.9768  2.7687  2.4649  1.9951

 Free energy of the ion-electron system (eV)
  ---------------------------------------------------
  alpha Z        PSCENC =       114.25466631
  Ewald energy   TEWEN  =     -1389.14459755
  -Hartree energ DENC   =      -105.75839739
  -exchange      EXHF   =         0.00000000
  -V(xc)+E(xc)   XCENC  =       117.51824583
  PAW double counting   =       524.50437235     -534.60807071
  entropy T*S    EENTRO =         0.00000000
  eigenvalues    EBANDS =        23.46718045
  atomic energy  EATOM  =      1177.01779097
  Solvation  Ediel_sol  =         0.00000000
  ---------------------------------------------------
  free energy    TOTEN  =       -72.74880975 eV

  energy without entropy =      -72.74880975  energy(sigma->0) =      -72.74880975


--------------------------------------------------------------------------------------------------------




--------------------------------------- Iteration      1(  10)  ---------------------------------------


    POTLOK:  cpu time    0.0227: real time    0.0233
    SETDIJ:  cpu time    0.0063: real time    0.0063
     EDDAV:  cpu time    7.2049: real time    7.2052
 BZINTS: Fermi energy:  9.789380; 32.000000 electrons
         Band energy:  23.503142;  BLOECHL correction:  0.000000
       DOS:  cpu time    0.0369: real time    0.0369
    CHARGE:  cpu time    0.1539: real time    0.1540
    MIXING:  cpu time    0.0023: real time    0.0023
    --------------------------------------------
      LOOP:  cpu time    7.4270: real time    7.4280

 eigenvalue-minimisations  :  5072
 total energy-change (2. order) :-0.5480574E-04  (-0.4760455E-05)
 number of electron      32.0000026 magnetization 
 augmentation part        0.7479973 magnetization 

 Broyden mixing:
  rms(total) = 0.26581E-03    rms(broyden)= 0.26098E-03
  rms(prec ) = 0.62520E-03
  weight for this iteration     100.00

 eigenvalues of (default mixing * dielectric matrix)
  average eigenvalue GAMMA=   1.9586
  2.9226  2.5551  2.0618  0.9925  1.2611

 Free energy of the ion-electron system (eV)
  ---------------------------------------------------
  alpha Z        PSCENC =       114.25466631
  Ewald energy   TEWEN  =     -1389.14459755
  -Hartree energ DENC   =      -105.79636807
  -exchange      EXHF   =         0.00000000
  -V(xc)+E(xc)   XCENC  =       117.52145073
  PAW double counting   =       523.95289054     -534.05783934
  entropy T*S    EENTRO =         0.00000000
  eigenvalues    EBANDS =        23.50314186
  atomic energy  EATOM  =      1177.01779097
  Solvation  Ediel_sol  =         0.00000000
  ---------------------------------------------------
  free energy    TOTEN  =       -72.74886455 eV

  energy without entropy =      -72.74886455  energy(sigma->0) =      -72.74886455


--------------------------------------------------------------------------------------------------------




--------------------------------------- Iteration      1(  11)  ---------------------------------------


    POTLOK:  cpu time    0.0262: real time    0.0268
    SETDIJ:  cpu time    0.0061: real time    0.0061
     EDDAV:  cpu time    5.1285: real time    5.1288
 BZINTS: Fermi energy:  9.785468; 32.000000 electrons
         Band energy:  23.515448;  BLOECHL correction:  0.000000
       DOS:  cpu time    0.0370: real time    0.0370
    --------------------------------------------
      LOOP:  cpu time    5.1977: real time    5.1985

 eigenvalue-minimisations  :  3704
 total energy-change (2. order) :-0.5863860E-06  (-0.1066257E-06)
 number of electron      32.0000026 magnetization 
 augmentation part        0.7479973 magnetization 

 Free energy of the ion-electron system (eV)
  ---------------------------------------------------
  alpha Z        PSCENC =       114.25466631
  Ewald energy   TEWEN  =     -1389.14459755
  -Hartree energ DENC   =      -105.80922773
  -exchange      EXHF   =         0.00000000
  -V(xc)+E(xc)   XCENC  =       117.52263961
  PAW double counting   =       523.97943088     -534.08501580
  entropy T*S    EENTRO =         0.00000000
  eigenvalues    EBANDS =        23.51544817
  atomic energy  EATOM  =      1177.01779097
  Solvation  Ediel_sol  =         0.00000000
  ---------------------------------------------------
  free energy    TOTEN  =       -72.74886514 eV

  energy without entropy =      -72.74886514  energy(sigma->0) =      -72.74886514


--------------------------------------------------------------------------------------------------------




 average (electrostatic) potential at core
  the test charge radii are     0.6991
  (the norm of the test charge is              1.0000)
       1 -45.4610       2 -45.4610       3 -45.4610       4 -45.4610       5 -45.4610
       6 -45.4610       7 -45.4610       8 -45.4610
 
 
 
 E-fermi :   9.7855     XC(G=0): -13.1941     alpha+bet :-17.5963


 k-point     1 :       0.0000    0.0000    0.0000
  band No.  band energies     occupation 
      1     -11.7279      2.00000
      2      -3.0528      2.00000
      3      -3.0528      2.00000
      4      -3.0528      2.00000
      5      -3.0528      2.00000
      6      -3.0528      2.00000
      7      -3.0528      2.00000
      8       3.4110      2.00000
      9       3.4110      2.00000
     10       3.4110      2.00000
     11       3.4110      2.00000
     12       3.4110      2.00000
     13       3.4110      2.00000
     14       9.6974      2.00000
     15       9.6974      2.00000
     16       9.6974      2.00000
     17      14.4211      0.00000
     18      14.4211      0.00000
     19      14.4211      0.00000
     20      14.4211      0.00000
     21      14.4211      0.00000
     22      14.4211      0.00000
     23      15.2681      0.00000
     24      15.2681      0.00000

 k-point     2 :       0.0833    0.0000    0.0000
  band No.  band energies     occupation 
      1     -11.6640      2.00000
      2      -4.3479      2.00000
      3      -3.0125      2.00000
      4      -3.0125      2.00000
      5      -3.0125      2.00000
      6      -3.0125      2.00000
      7      -1.6979      2.00000
      8       3.2689      2.00000
      9       3.2689      2.00000
     10       3.2689      2.00000
     11       3.2689      2.00000
     12       3.4718      2.00000
     13       3.4718      2.00000
     14       9.4353      2.00000
     15       9.4353      2.00000
     16       9.5384      2.00000
     17      14.0824      0.00000
     18      14.6828      0.00000
     19      14.6828      0.00000
     20      14.6828      0.00000
     21      14.6828      0.00000
     22      14.9077      0.00000
     23      15.2165      0.00000
     24      15.5865      0.00000

 k-point     3 :       0.1667    0.0000    0.0000
  band No.  band energies     occupation 
      1     -11.4725      2.00000
      2      -5.5663      2.00000
      3      -2.8957      2.00000
      4      -2.8957      2.00000
      5      -2.8957      2.00000
      6      -2.8957      2.00000
      7      -0.3020      2.00000
      8       2.8966      2.00000
      9       2.8966      2.00000
     10       2.8966      2.00000
     11       2.8966      2.00000
     12       3.6580      2.00000
     13       3.6580      2.00000
     14       8.7874      2.00000
     15       8.7874      2.00000
     16       9.0719      2.00000
     17      13.8790      0.00000
     18      15.0613      0.00000
     19      15.4230      0.00000
     20      15.4230      0.00000
     21      15.4230      0.00000
     22      15.4230      0.00000
     23      15.5622      0.00000
     24      16.3977      0.00000

 k-point     4 :       0.2500    0.0000    0.0000
  band No.  band energies     occupation 
      1     -11.1542      2.00000
      2      -6.6949      2.00000
      3      -2.7186      2.00000
      4      -2.7186      2.00000
      5      -2.7186      2.00000
      6      -2.7186      2.00000
      7       1.1088      2.00000
      8       2.4020      2.00000
      9       2.4020      2.00000
     10       2.4020      2.00000
     11       2.4020      2.00000
     12       3.9660      2.00000
     13       3.9660      2.00000
     14       7.9718      2.00000
     15       7.9718      2.00000
     16       8.3542      2.00000
     17      13.7954      0.00000
     18      14.8515      0.00000
     19      16.3887      0.00000
     20      16.5301      0.00000
     21      16.5301      0.00000
     22      16.5301      0.00000
     23      16.5301      0.00000
     24      17.4796      0.00000

 k-point     5 :       0.3333    0.0000    0.0000
  band No.  band energies     occupation 
      1     -10.7102      2.00000
      2      -7.7238      2.00000
      3      -2.5152      2.00000
      4      -2.5152      2.00000
      5      -2.5152      2.00000
      6      -2.5152      2.00000
      7       1.9097      2.00000
      8       1.9097      2.00000
      9       1.9097      2.00000
     10       1.9097      2.00000
     11       2.5089      2.00000
     12       4.3926      2.00000
     13       4.3926      2.00000
     14       7.1231      2.00000
     15       7.1231      2.00000
     16       7.4324      2.00000
     17      13.8170      0.00000
     18      14.5973      0.00000
     19      17.3972      0.00000
     20      17.8759      0.00000
     21      17.8759      0.00000
     22      17.8759      0.00000
     23      17.8759      0.00000
     24      18.6935      0.00000

 k-point     6 :       0.4167    0.0000    0.0000
  band No.  band energies     occupation 
      1     -10.1422      2.00000
      2      -8.6451      2.00000
      3      -2.3422      2.00000
      4      -2.3422      2.00000
      5      -2.3422      2.00000
      6      -2.3422      2.00000
      7       1.5415      2.00000
      8       1.5415      2.00000
      9       1.5415      2.00000
     10       1.5415      2.00000
     11       3.8676      2.00000
     12       4.9344      2.00000
     13       4.9344      2.00000
     14       6.3153      2.00000
     15       6.3153      2.00000
     16       6.3583      2.00000
     17      13.9234      0.00000
     18      14.3397      0.00000
     19      18.5770      0.00000
     20      19.3197      0.00000
     21      19.3197      0.00000
     22      19.3197      0.00000
     23      19.3198      0.00000
     24      19.9671      0.00000

 k-point     7 :       0.5000    0.0000    0.0000
  band No.  band energies     occupation 
      1      -9.4526      2.00000
      2      -9.4526      2.00000
      3      -2.2720      2.00000
      4      -2.2720      2.00000
      5      -2.2720      2.00000
      6      -2.2720      2.00000
      7       1.4009      2.00000
      8       1.4009      2.00000
      9       1.4009      2.00000
     10       1.4009      2.00000
     11       5.1604      2.00000
     12       5.1604      2.00000
     13       5.5789      2.00000
     14       5.5789      2.00000
     15       5.5789      2.00000
     16       5.5789      2.00000
     17      14.1079      0.00000
     18      14.1079      0.00000
     19      19.8833      0.00000
     20      19.8833      0.00000
     21      20.2888      0.00000
     22      20.2888      0.00000
     23      20.2888      0.00000
     24      20.2890      0.00000

 k-point     8 :       0.0833    0.0833    0.0000
  band No.  band energies     occupation 
      1     -11.6001      2.00000
      2      -4.2994      2.00000
      3      -4.2994      2.00000
      4      -3.0095      2.00000
      5      -2.9384      2.00000
      6      -1.6703      2.00000
      7      -1.6703      2.00000
      8       2.7874      2.00000
      9       3.3183      2.00000
     10       3.3183      2.00000
     11       3.3496      2.00000
     12       3.3496      2.00000
     13       3.5175      2.00000
     14       8.9849      2.00000
     15       9.1823      2.00000
     16       9.6185      2.00000
     17      14.3511      0.00000
     18      14.3511      0.00000
     19      14.5242      0.00000
     20      15.1636      0.00000
     21      15.1636      0.00000
     22      15.3252      0.00000
     23      15.3980      0.00000
     24      15.6585      0.00000

 k-point     9 :       0.1667    0.0833    0.0000
  band No.  band energies     occupation 
      1     -11.4088      2.00000
      2      -5.5126      2.00000
      3      -4.1564      2.00000
      4      -2.9447      2.00000
      5      -2.7834      2.00000
      6      -1.5973      2.00000
      7      -0.2979      2.00000
      8       2.1803      2.00000
      9       2.9098      2.00000
     10       3.0312      2.00000
     11       3.4824      2.00000
     12       3.4954      2.00000
     13       3.5644      2.00000
     14       8.2498      2.00000
     15       8.5510      2.00000
     16       9.3430      2.00000
     17      14.1529      0.00000
     18      14.8879      0.00000
     19      15.1068      0.00000
     20      15.3185      0.00000
     21      15.8063      0.00000
     22      15.8824      0.00000
     23      16.3467      0.00000
     24      16.3870      0.00000

 k-point    10 :       0.2500    0.0833    0.0000
  band No.  band energies     occupation 
      1     -11.0907      2.00000
      2      -6.6380      2.00000
      3      -3.9283      2.00000
      4      -2.8509      2.00000
      5      -2.5542      2.00000
      6      -1.5069      2.00000
      7       1.0714      2.00000
      8       1.5750      2.00000
      9       2.3562      2.00000
     10       2.6280      2.00000
     11       3.2193      2.00000
     12       3.7954      2.00000
     13       3.9186      2.00000
     14       7.3934      2.00000
     15       7.7496      2.00000
     16       8.7472      2.00000
     17      14.0726      0.00000
     18      15.1177      0.00000
     19      15.7156      0.00000
     20      16.2322      0.00000
     21      16.6206      0.00000
     22      16.9575      0.00000
     23      17.4571      0.00000
     24      17.4899      0.00000

 k-point    11 :       0.3333    0.0833    0.0000
  band No.  band energies     occupation 
      1     -10.6471      2.00000
      2      -7.6646      2.00000
      3      -3.6344      2.00000
      4      -2.7861      2.00000
      5      -2.2678      2.00000
      6      -1.4518      2.00000
      7       1.0970      2.00000
      8       1.7746      2.00000
      9       2.2794      2.00000
     10       2.3919      2.00000
     11       2.8344      2.00000
     12       4.2149      2.00000
     13       4.4272      2.00000
     14       6.5039      2.00000
     15       6.9150      2.00000
     16       7.9251      2.00000
     17      14.0942      0.00000
     18      14.8711      0.00000
     19      16.8860      0.00000
     20      17.6050      0.00000
     21      17.6146      0.00000
     22      18.2547      0.00000
     23      18.6068      0.00000
     24      18.6660      0.00000

 k-point    12 :       0.4167    0.0833    0.0000
  band No.  band energies     occupation 
      1     -10.0796      2.00000
      2      -8.5843      2.00000
      3      -3.3098      2.00000
      4      -2.8273      2.00000
      5      -1.9577      2.00000
      6      -1.4980      2.00000
      7       0.8625      2.00000
      8       1.2683      2.00000
      9       2.1081      2.00000
     10       2.4504      2.00000
     11       3.6030      2.00000
     12       4.7478      2.00000
     13       5.1156      2.00000
     14       5.6014      2.00000
     15       6.1142      2.00000
     16       6.9697      2.00000
     17      14.2027      0.00000
     18      14.6167      0.00000
     19      18.2564      0.00000
     20      18.7779      0.00000
     21      19.1129      0.00000
     22      19.5313      0.00000
     23      19.8037      0.00000
     24      19.9414      0.00000

 k-point    13 :       0.5000    0.0833    0.0000
  band No.  band energies     occupation 
      1      -9.3909      2.00000
      2      -9.3909      2.00000
      3      -3.0153      2.00000
      4      -3.0153      2.00000
      5      -1.6787      2.00000
      6      -1.6787      2.00000
      7       0.9324      2.00000
      8       0.9324      2.00000
      9       2.1759      2.00000
     10       2.1759      2.00000
     11       4.6603      2.00000
     12       4.6603      2.00000
     13       5.3853      2.00000
     14       5.3853      2.00000
     15       5.9907      2.00000
     16       5.9907      2.00000
     17      14.3860      0.00000
     18      14.3860      0.00000
     19      19.5580      0.00000
     20      19.5580      0.00000
     21      20.0649      0.00000
     22      20.0649      0.00000
     23      20.5600      0.00000
     24      20.5608      0.00000

 k-point    14 :       0.1667    0.1667    0.0000
  band No.  band energies     occupation 
      1     -11.2179      2.00000
      2      -5.3533      2.00000
      3      -5.3533      2.00000
      4      -2.9627      2.00000
      5      -2.5946      2.00000
      6      -0.2999      2.00000
      7      -0.2999      2.00000
      8       1.4617      2.00000
      9       3.0601      2.00000
     10       3.0601      2.00000
     11       3.3301      2.00000
     12       3.3301      2.00000
     13       3.8327      2.00000
     14       7.4449      2.00000
     15       7.9536      2.00000
     16       9.3683      2.00000
     17      14.8338      0.00000
     18      14.9185      0.00000
     19      14.9185      0.00000
     20      15.7793      0.00000
     21      16.4988      0.00000
     22      16.4988      0.00000
     23      16.5744      0.00000
     24      16.9134      0.00000

 k-point    15 :       0.2500    0.1667    0.0000
  band No.  band energies     occupation 
      1     -10.9006      2.00000
      2      -6.4681      2.00000
      3      -5.0939      2.00000
      4      -3.0085      2.00000
      5      -2.3269      2.00000
      6      -0.3523      2.00000
      7       0.8696      2.00000
      8       0.9411      2.00000
      9       2.4674      2.00000
     10       3.0728      2.00000
     11       3.3390      2.00000
     12       3.8199      2.00000
     13       3.8998      2.00000
     14       6.5693      2.00000
     15       7.1818      2.00000
     16       9.0111      2.00000
     17      14.8439      0.00000
     18      15.2897      0.00000
     19      15.7841      0.00000
     20      16.0543      0.00000
     21      17.2785      0.00000
     22      17.4426      0.00000
     23      17.5288      0.00000
     24      17.5714      0.00000

 k-point    16 :       0.3333    0.1667    0.0000
  band No.  band energies     occupation 
      1     -10.4581      2.00000
      2      -7.4878      2.00000
      3      -4.7458      2.00000
      4      -3.1615      2.00000
      5      -1.9877      2.00000
      6      -0.5105      2.00000
      7       0.5265      2.00000
      8       1.8306      2.00000
      9       2.0643      2.00000
     10       2.9264      2.00000
     11       3.7395      2.00000
     12       3.7412      2.00000
     13       4.5291      2.00000
     14       5.6841      2.00000
     15       6.3742      2.00000
     16       8.3468      2.00000
     17      14.8669      0.00000
     18      15.5914      0.00000
     19      16.1885      0.00000
     20      17.4385      0.00000
     21      18.2314      0.00000
     22      18.4305      0.00000
     23      18.6285      0.00000
     24      18.7416      0.00000

 k-point    17 :       0.4167    0.1667    0.0000
  band No.  band energies     occupation 
      1      -9.8923      2.00000
      2      -8.4027      2.00000
      3      -4.3297      2.00000
      4      -3.4662      2.00000
      5      -1.5946      2.00000
      6      -0.7990      2.00000
      7       0.5048      2.00000
      8       1.2390      2.00000
      9       2.9616      2.00000
     10       3.0481      2.00000
     11       3.4575      2.00000
     12       4.2584      2.00000
     13       4.8084      2.00000
     14       5.4390      2.00000
     15       5.5934      2.00000
     16       7.4619      2.00000
     17      14.9735      0.00000
     18      15.3652      0.00000
     19      17.3989      0.00000
     20      18.9620      0.00000
     21      19.3455      0.00000
     22      19.4204      0.00000
     23      19.5732      0.00000
     24      19.9149      0.00000

 k-point    18 :       0.5000    0.1667    0.0000
  band No.  band energies     occupation 
      1      -9.2059      2.00000
      2      -9.2059      2.00000
      3      -3.8824      2.00000
      4      -3.8824      2.00000
      5      -1.1813      2.00000
      6      -1.1813      2.00000
      7       0.7695      2.00000
      8       0.7695      2.00000
      9       3.1654      2.00000
     10       3.1654      2.00000
     11       3.9413      2.00000
[...]

 k-point    72 :       0.4167    0.4167    0.2500
  band No.  band energies     occupation 
      1      -8.0625      2.00000
      2      -6.6828      2.00000
      3      -6.6828      2.00000
      4      -5.5790      2.00000
      5      -2.7989      2.00000
      6      -1.7313      2.00000
      7      -1.7313      2.00000
      8      -0.4016      2.00000
      9       4.2230      2.00000
     10       4.9917      2.00000
     11       4.9917      2.00000
     12       6.0874      2.00000
     13       6.1073      2.00000
     14       6.2860      2.00000
     15       6.2860      2.00000
     16       7.3595      2.00000
     17      17.1943      0.00000
     18      17.7198      0.00000
     19      17.7198      0.00000
     20      18.0601      0.00000
     21      18.2401      0.00000
     22      18.7497      0.00000
     23      18.7497      0.00000
     24      18.8993      0.00000

 k-point    73 :       0.5000    0.4167    0.2500
  band No.  band energies     occupation 
      1      -7.4176      2.00000
      2      -7.4176      2.00000
      3      -6.1262      2.00000
      4      -6.1262      2.00000
      5      -2.3750      2.00000
      6      -2.3750      2.00000
      7      -1.1286      2.00000
      8      -1.1286      2.00000
      9       4.6255      2.00000
     10       4.6255      2.00000
     11       5.5676      2.00000
     12       5.5676      2.00000
     13       6.3237      2.00000
     14       6.3237      2.00000
     15       6.9473      2.00000
     16       6.9473      2.00000
     17      17.7050      0.00000
     18      17.7050      0.00000
     19      17.9772      0.00000
     20      17.9772      0.00000
     21      18.3983      0.00000
     22      18.3983      0.00000
     23      18.9900      0.00000
     24      18.9901      0.00000

 k-point    74 :       0.5000    0.5000    0.2500
  band No.  band energies     occupation 
      1      -6.8024      2.00000
      2      -6.8024      2.00000
      3      -6.8024      2.00000
      4      -6.8024      2.00000
      5      -1.8278      2.00000
      6      -1.8278      2.00000
      7      -1.8278      2.00000
      8      -1.8278      2.00000
      9       5.1140      2.00000
     10       5.1140      2.00000
     11       5.1140      2.00000
     12       5.1140      2.00000
     13       6.7861      2.00000
     14       6.7861      2.00000
     15       6.7861      2.00000
     16       6.7861      2.00000
     17      17.8602      0.00000
     18      17.8602      0.00000
     19      17.8602      0.00000
     20      17.8602      0.00000
     21      18.8255      0.00000
     22      18.8255      0.00000
     23      18.8255      0.00000
     24      18.8255      0.00000

 k-point    75 :       0.3333    0.3333    0.3333
  band No.  band energies     occupation 
      1      -8.7251      2.00000
      2      -6.0037      2.00000
      3      -6.0037      2.00000
      4      -6.0037      2.00000
      5      -2.2878      2.00000
      6      -2.2878      2.00000
      7      -2.2878      2.00000
      8       0.3403      2.00000
      9       4.7083      2.00000
     10       4.7083      2.00000
     11       4.7083      2.00000
     12       5.7332      2.00000
     13       5.7332      2.00000
     14       5.7332      2.00000
     15       7.3741      2.00000
     16       7.3741      2.00000
     17      16.7616      0.00000
     18      16.7616      0.00000
     19      16.7616      0.00000
     20      17.9372      0.00000
     21      17.9372      0.00000
     22      18.1725      0.00000
     23      20.3805      0.00000
     24      20.3806      0.00000

 k-point    76 :       0.4167    0.3333    0.3333
  band No.  band energies     occupation 
      1      -8.1839      2.00000
      2      -6.7990      2.00000
      3      -5.6867      2.00000
      4      -5.6867      2.00000
      5      -2.9197      2.00000
      6      -2.9197      2.00000
      7      -1.8407      2.00000
      8      -0.5009      2.00000
      9       4.9183      2.00000
     10       4.9183      2.00000
     11       5.8105      2.00000
     12       5.9511      2.00000
     13       5.9511      2.00000
     14       6.1013      2.00000
     15       6.9501      2.00000
     16       7.2417      2.00000
     17      17.1020      0.00000
     18      17.2948      0.00000
     19      17.2948      0.00000
     20      17.7212      0.00000
     21      18.3820      0.00000
     22      18.4363      0.00000
     23      19.4012      0.00000
     24      19.4188      0.00000

 k-point    77 :       0.5000    0.3333    0.3333
  band No.  band energies     occupation 
      1      -7.5368      2.00000
      2      -7.5368      2.00000
      3      -5.5368      2.00000
      4      -5.5368      2.00000
      5      -3.1754      2.00000
      6      -3.1754      2.00000
      7      -1.2342      2.00000
      8      -1.2342      2.00000
      9       4.9903      2.00000
     10       4.9903      2.00000
     11       6.0255      2.00000
     12       6.0255      2.00000
     13       6.5146      2.00000
     14       6.5146      2.00000
     15       6.6908      2.00000
     16       6.6908      2.00000
     17      17.4337      0.00000
     18      17.4337      0.00000
     19      17.8674      0.00000
     20      17.8674      0.00000
     21      18.6369      0.00000
     22      18.6374      0.00000
     23      18.9562      0.00000
     24      18.9986      0.00000

 k-point    78 :       0.4167    0.4167    0.3333
  band No.  band energies     occupation 
      1      -7.6577      2.00000
      2      -6.3550      2.00000
      3      -6.3550      2.00000
      4      -5.6491      2.00000
      5      -3.2887      2.00000
      6      -2.5991      2.00000
      7      -2.5991      2.00000
      8      -1.3339      2.00000
      9       5.3336      2.00000
     10       5.7975      2.00000
     11       5.7975      2.00000
     12       6.3144      2.00000
     13       6.3848      2.00000
     14       6.3848      2.00000
     15       6.7434      2.00000
     16       7.2108      2.00000
     17      17.4605      0.00000
     18      17.5961      0.00000
     19      17.5961      0.00000
     20      18.0096      0.00000
     21      18.2148      0.00000
     22      18.4726      0.00000
     23      18.8254      0.00000
     24      18.8254      0.00000

 k-point    79 :       0.5000    0.4167    0.3333
  band No.  band energies     occupation 
      1      -7.0376      2.00000
      2      -7.0376      2.00000
      3      -5.9164      2.00000
      4      -5.9164      2.00000
      5      -3.1384      2.00000
      6      -3.1384      2.00000
      7      -2.0449      2.00000
      8      -2.0449      2.00000
      9       5.6156      2.00000
     10       5.6156      2.00000
     11       6.3485      2.00000
     12       6.3485      2.00000
     13       6.4799      2.00000
     14       6.4799      2.00000
     15       6.9036      2.00000
     16       6.9036      2.00000
     17      17.8736      0.00000
     18      17.8736      0.00000
     19      17.8843      0.00000
     20      17.8843      0.00000
     21      18.4228      0.00000
     22      18.4229      0.00000
     23      18.5637      0.00000
     24      18.5638      0.00000

 k-point    80 :       0.5000    0.5000    0.3333
  band No.  band energies     occupation 
      1      -6.4725      2.00000
      2      -6.4725      2.00000
      3      -6.4725      2.00000
      4      -6.4725      2.00000
      5      -2.7061      2.00000
      6      -2.7061      2.00000
      7      -2.7061      2.00000
      8      -2.7061      2.00000
      9       6.0336      2.00000
     10       6.0336      2.00000
     11       6.0336      2.00000
     12       6.0336      2.00000
     13       6.8390      2.00000
     14       6.8390      2.00000
     15       6.8390      2.00000
     16       6.8390      2.00000
     17      18.0083      0.00000
     18      18.0083      0.00000
     19      18.0083      0.00000
     20      18.0083      0.00000
     21      18.4579      0.00000
     22      18.4579      0.00000
     23      18.4579      0.00000
     24      18.4579      0.00000

 k-point    81 :       0.4167    0.4167    0.4167
  band No.  band energies     occupation 
      1      -7.1565      2.00000
      2      -6.0295      2.00000
      3      -6.0295      2.00000
      4      -6.0295      2.00000
      5      -3.2539      2.00000
      6      -3.2539      2.00000
      7      -3.2539      2.00000
      8      -2.1526      2.00000
      9       6.2440      2.00000
     10       6.2440      2.00000
     11       6.2440      2.00000
     12       6.5464      2.00000
     13       6.5464      2.00000
     14       6.5464      2.00000
     15       7.0157      2.00000
     16       7.0157      2.00000
     17      17.7309      0.00000
     18      17.7309      0.00000
     19      17.7309      0.00000
     20      18.0934      0.00000
     21      18.0934      0.00000
     22      18.3737      0.00000
     23      18.7537      0.00000
     24      18.7538      0.00000

 k-point    82 :       0.5000    0.4167    0.4167
  band No.  band energies     occupation 
      1      -6.5887      2.00000
      2      -6.5887      2.00000
      3      -5.8745      2.00000
      4      -5.8745      2.00000
      5      -3.5196      2.00000
      6      -3.5196      2.00000
      7      -2.8193      2.00000
      8      -2.8193      2.00000
      9       6.3318      2.00000
     10       6.3318      2.00000
     11       6.6728      2.00000
     12       6.6728      2.00000
     13       6.7884      2.00000
     14       6.7884      2.00000
     15       6.8383      2.00000
     16       6.8383      2.00000
     17      17.9453      0.00000
     18      17.9453      0.00000
     19      18.0123      0.00000
     20      18.0123      0.00000
     21      18.3293      0.00000
     22      18.3303      0.00000
     23      18.3426      0.00000
     24      18.3440      0.00000

 k-point    83 :       0.5000    0.5000    0.4167
  band No.  band energies     occupation 
      1      -6.1443      2.00000
      2      -6.1443      2.00000
      3      -6.1443      2.00000
      4      -6.1443      2.00000
      5      -3.3681      2.00000
      6      -3.3681      2.00000
      7      -3.3681      2.00000
      8      -3.3681      2.00000
      9       6.6682      2.00000
     10       6.6682      2.00000
     11       6.6682      2.00000
     12       6.6682      2.00000
     13       6.8808      2.00000
     14       6.8808      2.00000
     15       6.8808      2.00000
     16       6.8808      2.00000
     17      18.1010      0.00000
     18      18.1010      0.00000
     19      18.1012      0.00000
     20      18.1018      0.00000
     21      18.2057      0.00000
     22      18.2058      0.00000
     23      18.2058      0.00000
     24      18.2103      0.00000

 k-point    84 :       0.5000    0.5000    0.5000
  band No.  band energies     occupation 
      1      -5.9875      2.00000
      2      -5.9875      2.00000
      3      -5.9875      2.00000
      4      -5.9875      2.00000
      5      -3.6366      2.00000
      6      -3.6366      2.00000
      7      -3.6366      2.00000
      8      -3.6366      2.00000
      9       6.8954      2.00000
     10       6.8954      2.00000
     11       6.8954      2.00000
     12       6.8954      2.00000
     13       6.8954      2.00000
     14       6.8954      2.00000
     15       6.8954      2.00000
     16       6.8954      2.00000
     17      18.1168      0.00000
     18      18.1168      0.00000
     19      18.1168      0.00000
     20      18.1168      0.00000
     21      18.1169      0.00000
     22      18.1174      0.00000
     23      18.1178      0.00000
     24      18.1185      0.00000


--------------------------------------------------------------------------------------------------------


 soft charge-density along one line, spin component           1
         0         1         2         3         4         5         6         7         8         9
 total charge-density along one line
 
 pseudopotential strength for first ion, spin component:           1
  9.443  -0.005   0.000   0.000   0.000  -0.000  -0.000  -0.000
 -0.005  -0.002  -0.000  -0.000  -0.000  -0.000  -0.000  -0.000
  0.000  -0.000  -3.664   0.000  -0.000  -0.009   0.000  -0.000
  0.000  -0.000   0.000  -3.664   0.000   0.000  -0.009   0.000
  0.000  -0.000  -0.000   0.000  -3.664  -0.000   0.000  -0.009
 -0.000  -0.000  -0.009   0.000  -0.000  -0.757   0.000  -0.000
 -0.000  -0.000   0.000  -0.009   0.000   0.000  -0.757   0.000
 -0.000  -0.000  -0.000   0.000  -0.009  -0.000   0.000  -0.757
 total augmentation occupancy for first ion, spin component:           1
  1.423  -1.029  -0.000  -0.000  -0.000   0.000  -0.000  -0.000
 -1.029   1.023   0.000   0.000   0.000  -0.000   0.000   0.000
 -0.000  -0.000   1.096  -0.000  -0.000   0.184   0.000   0.000
  0.000   0.000  -0.000   1.096  -0.000  -0.000   0.184  -0.000
  0.000   0.000   0.000   0.000   1.096  -0.000  -0.000   0.184
  0.000   0.000   0.184   0.000  -0.000   0.036  -0.000  -0.000
  0.000   0.000  -0.000   0.184  -0.000  -0.000   0.036   0.000
  0.000   0.000   0.000   0.000   0.184  -0.000  -0.000   0.036


------------------------ aborting loop because EDIFF is reached ----------------------------------------


    CHARGE:  cpu time    0.1493: real time    0.1493
    FORLOC:  cpu time    0.0022: real time    0.0022
    FORNL :  cpu time    0.2077: real time    0.2077
    STRESS:  cpu time    0.4861: real time    0.4863
    FORHAR:  cpu time    0.0054: real time    0.0054
    MIXING:  cpu time    0.0021: real time    0.0021
    OFIELD:  cpu time    0.0001: real time    0.0001

  FORCE on cell =-STRESS in cart. coord.  units (eV):
  Direction    XX          YY          ZZ          XY          YZ          ZX
  --------------------------------------------------------------------------------------
  Alpha Z   114.25467   114.25467   114.25467
  Ewald    -463.04899  -463.04899  -463.04899     0.00000     0.00000     0.00000
  Hartree    35.26900    35.26900    35.26900    -0.00000    -0.00000    -0.00000
  E(xc)    -119.55572  -119.55572  -119.55572     0.00000     0.00000    -0.00000
  Local     -47.06157   -47.06157   -47.06157    -0.00000     0.00000     0.00000
  n-local   -27.82155   -28.62288   -28.04548     0.67021     0.81639     0.39004
  augment    -2.82440    -2.82440    -2.82440    -0.00000    -0.00000     0.00000
  Kinetic   498.80185   514.77036   516.11017    -4.66136    -6.50389    -3.24176
  Fock        0.00000     0.00000     0.00000     0.00000     0.00000     0.00000
  -------------------------------------------------------------------------------------
  Total      -1.23619    -1.23619    -1.23619    -0.00000     0.00000    -0.00000
  in kB     -43.39479   -43.39479   -43.39479    -0.00000     0.00000    -0.00000
  external pressure =      -43.39 kB  Pullay stress =        0.00 kB


 VOLUME and BASIS-vectors are now :
 -----------------------------------------------------------------------------
  energy-cutoff  :      400.00
  volume of cell :       45.64
      direct lattice vectors                 reciprocal lattice vectors
     3.573710000  0.000000000  0.000000000     0.279821250  0.000000000  0.000000000
     0.000000000  3.573710000  0.000000000     0.000000000  0.279821250  0.000000000
     0.000000000  0.000000000  3.573710000     0.000000000  0.000000000  0.279821250

  length of vectors
     3.573710000  3.573710000  3.573710000     0.279821250  0.279821250  0.279821250


 FORCES acting on ions
    electron-ion (+dipol)            ewald-force                    non-local-force                 convergence-correction
 -----------------------------------------------------------------------------------------------
   0.159E-13 -.157E-12 0.332E-13   0.355E-13 0.142E-13 -.142E-13   0.225E-16 0.136E-16 -.388E-17   0.262E-14 0.191E-14 -.916E-14
   -.159E-13 -.825E-15 0.424E-13   0.363E-13 0.146E-13 -.711E-14   -.145E-16 0.720E-17 -.842E-17   0.675E-14 0.104E-14 -.400E-14
   0.159E-13 -.173E-12 0.471E-13   0.711E-14 0.000E+00 -.213E-13   0.804E-17 -.699E-18 0.165E-16   0.344E-14 0.220E-14 -.812E-14
   -.159E-13 0.197E-13 0.207E-13   0.647E-14 0.293E-16 -.139E-13   -.669E-17 0.962E-17 -.710E-17   0.615E-14 -.438E-15 -.339E-14
   0.239E-13 0.199E-12 0.416E-12   0.000E+00 0.000E+00 0.142E-13   0.144E-16 0.411E-20 0.165E-16   0.244E-14 0.189E-14 -.677E-14
   0.000E+00 -.378E-14 -.387E-12   -.711E-14 0.320E-15 0.216E-13   -.222E-16 -.516E-17 -.369E-17   0.420E-14 0.107E-14 -.314E-14
   0.239E-13 -.193E-12 0.260E-13   -.213E-13 -.142E-13 0.711E-14   0.139E-16 -.562E-18 0.102E-16   0.161E-14 0.214E-14 -.881E-14
   0.000E+00 0.372E-12 0.436E-13   -.284E-13 -.141E-13 0.141E-13   -.107E-17 -.238E-17 -.873E-17   0.376E-14 -.219E-14 -.407E-14
 -----------------------------------------------------------------------------------------------
   0.477E-13 0.624E-13 0.242E-12   0.286E-13 0.873E-15 0.493E-15   0.144E-16 0.216E-16 0.114E-16   0.310E-13 0.763E-14 -.475E-13
 
 
 POSITION                                       TOTAL-FORCE (eV/Angst)
 -----------------------------------------------------------------------------------
      0.89343      2.68028      0.89343        -0.000000      0.000000     -0.000000
      0.00000      0.00000      1.78686         0.000000     -0.000000      0.000000
      0.89343      0.89343      2.68028         0.000000      0.000000      0.000000
      0.00000      1.78686      0.00000         0.000000     -0.000000      0.000000
      2.68028      2.68028      2.68028        -0.000000      0.000000     -0.000000
      1.78686      0.00000      0.00000         0.000000     -0.000000      0.000000
      2.68028      0.89343      0.89343        -0.000000      0.000000     -0.000000
      1.78686      1.78686      1.78686        -0.000000     -0.000000      0.000000
 -----------------------------------------------------------------------------------
    total drift:                                0.000000      0.000000      0.000000


--------------------------------------------------------------------------------------------------------



  FREE ENERGIE OF THE ION-ELECTRON SYSTEM (eV)
  ---------------------------------------------------
  free  energy   TOTEN  =       -72.74886514 eV

  energy  without entropy=      -72.74886514  energy(sigma->0) =      -72.74886514
 


--------------------------------------------------------------------------------------------------------


    POTLOK:  cpu time    0.0319: real time    0.0319


--------------------------------------------------------------------------------------------------------


     LOOP+:  cpu time   68.9796: real time   69.0069
    4ORBIT:  cpu time    0.0000: real time    0.0000
 BZINTS: Fermi energy:  9.785468; 32.000000 electrons
         Band energy:  23.515448;  BLOECHL correction:  0.000000

 total amount of memory used by VASP MPI-rank0    33836. kBytes
=======================================================================

   base      :      30000. kBytes
   nonl-proj :       1166. kBytes
   fftplans  :        345. kBytes
   grid      :        481. kBytes
   one-center:          6. kBytes
   wavefun   :       1838. kBytes
 
  
  
 General timing and accounting informations for this job:
 ========================================================
  
                  Total CPU time used (sec):       71.512
                            User time (sec):       69.393
                          System time (sec):        2.120
                         Elapsed time (sec):       71.786
  
                   Maximum memory used (kb):      189604.
                   Average memory used (kb):           0.
  
                          Minor page faults:        36893
                          Major page faults:           36
                 Voluntary context switches:          790
