   8   8   0   0
  0.6050870E+01  0.3644483E-09  0.3644483E-09  0.3644483E-09  0.2000000E-16
  1.000000000000000E-004
  CAR 
 unknown system                          
     21.61336471    -13.37808552  301      8.91438423      1.00000000
    -13.378  0.0000E+00  0.0000E+00
    -13.261  0.0000E+00  0.0000E+00
    -13.145  0.0000E+00  0.0000E+00
    -13.028  0.0000E+00  0.0000E+00
    -12.912  0.0000E+00  0.0000E+00
    -12.795  0.0000E+00  0.0000E+00
    -12.678  0.0000E+00  0.0000E+00
    -12.562  0.0000E+00  0.0000E+00
    -12.445  0.0000E+00  0.0000E+00
    -12.328  0.0000E+00  0.0000E+00
    -12.212  0.0000E+00  0.0000E+00
    -12.095  0.0000E+00  0.0000E+00
    -11.978  0.0000E+00  0.0000E+00
    -11.862  0.0000E+00  0.0000E+00
    -11.745  0.3614E-01  0.5109E-03
    -11.629  0.1602E+00  0.1488E-01
    -11.512  0.2511E+00  0.3885E-01
    -11.395  0.2840E+00  0.6974E-01
    -11.279  0.3333E+00  0.1058E+00
    -11.162  0.3755E+00  0.1476E+00
    -11.045  0.4058E+00  0.1931E+00
    -10.929  0.4381E+00  0.2422E+00
    -10.812  0.4781E+00  0.2956E+00
    -10.695  0.5023E+00  0.3529E+00
    -10.579  0.5268E+00  0.4130E+00
    -10.462  0.5538E+00  0.4759E+00
    -10.345  0.5834E+00  0.5422E+00
    -10.229  0.6121E+00  0.6120E+00
    -10.112  0.6320E+00  0.6845E+00
     -9.996  0.6530E+00  0.7595E+00
     -9.879  0.6760E+00  0.8370E+00
     -9.762  0.6999E+00  0.9172E+00
     -9.646  0.7255E+00  0.1000E+01
     -9.529  0.7480E+00  0.1086E+01
     -9.412  0.7668E+00  0.1175E+01
     -9.296  0.7855E+00  0.1265E+01
     -9.179  0.8068E+00  0.1358E+01
     -9.062  0.8285E+00  0.1453E+01
     -8.946  0.8514E+00  0.1551E+01
     -8.829  0.8750E+00  0.1652E+01
     -8.713  0.8934E+00  0.1755E+01
     -8.596  0.9124E+00  0.1861E+01
     -8.479  0.9325E+00  0.1968E+01
     -8.363  0.9533E+00  0.2078E+01
     -8.246  0.9744E+00  0.2190E+01
     -8.129  0.1014E+01  0.2306E+01
     -8.013  0.1067E+01  0.2428E+01
     -7.896  0.1106E+01  0.2554E+01
     -7.779  0.1143E+01  0.2686E+01
     -7.663  0.1139E+01  0.2820E+01
     -7.546  0.1109E+01  0.2951E+01
     -7.430  0.1095E+01  0.3078E+01
     -7.313  0.1125E+01  0.3209E+01
     -7.196  0.1139E+01  0.3341E+01
     -7.080  0.1150E+01  0.3474E+01
     -6.963  0.1192E+01  0.3610E+01
     -6.846  0.1267E+01  0.3753E+01
     -6.730  0.1322E+01  0.3903E+01
     -6.613  0.1449E+01  0.4065E+01
     -6.496  0.1511E+01  0.4238E+01
     -6.380  0.1679E+01  0.4424E+01
     -6.263  0.1608E+01  0.4623E+01
     -6.147  0.1664E+01  0.4814E+01
     -6.030  0.1556E+01  0.5006E+01
     -5.913  0.1477E+01  0.5182E+01
     -5.797  0.1502E+01  0.5354E+01
     -5.680  0.1487E+01  0.5530E+01
     -5.563  0.1433E+01  0.5702E+01
     -5.447  0.1419E+01  0.5868E+01
     -5.330  0.1310E+01  0.6026E+01
     -5.213  0.1275E+01  0.6175E+01
     -5.097  0.1245E+01  0.6323E+01
     -4.980  0.1395E+01  0.6470E+01
     -4.863  0.1155E+01  0.6611E+01
     -4.747  0.1093E+01  0.6742E+01
     -4.630  0.1106E+01  0.6872E+01
     -4.514  0.1077E+01  0.7004E+01
     -4.397  0.1027E+01  0.7127E+01
     -4.280  0.1028E+01  0.7245E+01
     -4.164  0.1015E+01  0.7366E+01
     -4.047  0.9333E+00  0.7482E+01
     -3.930  0.8400E+00  0.7586E+01
     -3.814  0.7420E+00  0.7678E+01
     -3.697  0.8211E+00  0.7765E+01
     -3.580  0.8094E+00  0.7864E+01
     -3.464  0.9463E+00  0.7961E+01
     -3.347  0.8342E+00  0.8074E+01
     -3.231  0.8154E+00  0.8171E+01
     -3.114  0.9483E+00  0.8269E+01
     -2.997  0.9936E+00  0.8382E+01
     -2.881  0.1049E+01  0.8501E+01
     -2.764  0.1210E+01  0.8632E+01
     -2.647  0.1450E+01  0.8785E+01
     -2.531  0.1691E+01  0.8969E+01
     -2.414  0.1987E+01  0.9183E+01
     -2.297  0.2479E+01  0.9438E+01
     -2.181  0.3727E+01  0.9777E+01
     -2.064  0.2869E+01  0.1019E+02
     -1.948  0.2207E+01  0.1049E+02
     -1.831  0.1930E+01  0.1073E+02
     -1.714  0.1768E+01  0.1094E+02
     -1.598  0.1654E+01  0.1114E+02
     -1.481  0.1557E+01  0.1133E+02
     -1.364  0.1486E+01  0.1150E+02
     -1.248  0.1452E+01  0.1168E+02
     -1.131  0.1411E+01  0.1184E+02
     -1.014  0.1384E+01  0.1200E+02
     -0.898  0.1351E+01  0.1216E+02
     -0.781  0.1180E+01  0.1232E+02
     -0.665  0.1144E+01  0.1245E+02
     -0.548  0.1121E+01  0.1258E+02
     -0.431  0.1100E+01  0.1271E+02
     -0.315  0.1080E+01  0.1284E+02
     -0.198  0.1041E+01  0.1296E+02
     -0.081  0.9866E+00  0.1308E+02
      0.035  0.1066E+01  0.1320E+02
      0.152  0.1246E+01  0.1333E+02
      0.269  0.1488E+01  0.1349E+02
      0.385  0.1738E+01  0.1368E+02
      0.502  0.1865E+01  0.1389E+02
      0.618  0.2429E+01  0.1414E+02
      0.735  0.2322E+01  0.1441E+02
      0.852  0.2346E+01  0.1469E+02
      0.968  0.2530E+01  0.1497E+02
      1.085  0.2286E+01  0.1526E+02
      1.202  0.1625E+01  0.1548E+02
      1.318  0.1344E+01  0.1566E+02
      1.435  0.1703E+01  0.1584E+02
      1.552  0.2052E+01  0.1606E+02
      1.668  0.2250E+01  0.1631E+02
      1.785  0.2342E+01  0.1658E+02
      1.902  0.2488E+01  0.1686E+02
      2.018  0.2486E+01  0.1715E+02
      2.135  0.2416E+01  0.1744E+02
      2.251  0.2400E+01  0.1772E+02
      2.368  0.2661E+01  0.1801E+02
      2.485  0.2957E+01  0.1834E+02
      2.601  0.3633E+01  0.1871E+02
      2.718  0.2923E+01  0.1908E+02
      2.835  0.2482E+01  0.1940E+02
      2.951  0.2653E+01  0.1967E+02
      3.068  0.3024E+01  0.2001E+02
      3.185  0.2906E+01  0.2035E+02
      3.301  0.3651E+01  0.2072E+02
      3.418  0.4375E+01  0.2119E+02
      3.534  0.3807E+01  0.2168E+02
      3.651  0.3107E+01  0.2209E+02
      3.768  0.2661E+01  0.2242E+02
      3.884  0.2641E+01  0.2273E+02
      4.001  0.3259E+01  0.2306E+02
      4.118  0.2898E+01  0.2343E+02
      4.234  0.3114E+01  0.2377E+02
      4.351  0.3152E+01  0.2414E+02
      4.468  0.3057E+01  0.2450E+02
      4.584  0.3116E+01  0.2486E+02
      4.701  0.3227E+01  0.2523E+02
      4.817  0.3245E+01  0.2561E+02
      4.934  0.2764E+01  0.2596E+02
      5.051  0.2546E+01  0.2627E+02
      5.167  0.2487E+01  0.2656E+02
      5.284  0.2530E+01  0.2685E+02
      5.401  0.2894E+01  0.2717E+02
      5.517  0.2970E+01  0.2751E+02
      5.634  0.2942E+01  0.2786E+02
      5.751  0.2833E+01  0.2820E+02
      5.867  0.2653E+01  0.2852E+02
      5.984  0.2535E+01  0.2882E+02
      6.100  0.2547E+01  0.2912E+02
      6.217  0.3076E+01  0.2948E+02
      6.334  0.1986E+01  0.2976E+02
      6.450  0.1797E+01  0.2998E+02
      6.567  0.1668E+01  0.3019E+02
      6.684  0.1503E+01  0.3037E+02
      6.800  0.1413E+01  0.3054E+02
      6.917  0.1333E+01  0.3070E+02
      7.034  0.1255E+01  0.3085E+02
      7.150  0.1134E+01  0.3099E+02
      7.267  0.1022E+01  0.3112E+02
      7.384  0.9456E+00  0.3123E+02
      7.500  0.8869E+00  0.3134E+02
      7.617  0.8455E+00  0.3144E+02
      7.733  0.7581E+00  0.3153E+02
      7.850  0.6802E+00  0.3162E+02
      7.967  0.6061E+00  0.3169E+02
      8.083  0.5748E+00  0.3176E+02
      8.200  0.4691E+00  0.3182E+02
      8.317  0.3776E+00  0.3187E+02
      8.433  0.4022E+00  0.3192E+02
      8.550  0.2672E+00  0.3196E+02
      8.667  0.1454E+00  0.3198E+02
      8.783  0.5805E-01  0.3200E+02
      8.900  0.0000E+00  0.3200E+02
      9.016  0.0000E+00  0.3200E+02
      9.133  0.0000E+00  0.3200E+02
      9.250  0.0000E+00  0.3200E+02
      9.366  0.0000E+00  0.3200E+02
      9.483  0.0000E+00  0.3200E+02
      9.600  0.0000E+00  0.3200E+02
      9.716  0.0000E+00  0.3200E+02
      9.833  0.0000E+00  0.3200E+02
      9.950  0.0000E+00  0.3200E+02
     10.066  0.0000E+00  0.3200E+02
     10.183  0.0000E+00  0.3200E+02
     10.299  0.0000E+00  0.3200E+02
     10.416  0.0000E+00  0.3200E+02
     10.533  0.0000E+00  0.3200E+02
     10.649  0.0000E+00  0.3200E+02
     10.766  0.0000E+00  0.3200E+02
     10.883  0.0000E+00  0.3200E+02
     10.999  0.0000E+00  0.3200E+02
     11.116  0.0000E+00  0.3200E+02
     11.233  0.0000E+00  0.3200E+02
     11.349  0.0000E+00  0.3200E+02
     11.466  0.0000E+00  0.3200E+02
     11.582  0.0000E+00  0.3200E+02
     11.699  0.0000E+00  0.3200E+02
     11.816  0.0000E+00  0.3200E+02
     11.932  0.0000E+00  0.3200E+02
     12.049  0.0000E+00  0.3200E+02
     12.166  0.0000E+00  0.3200E+02
     12.282  0.0000E+00  0.3200E+02
     12.399  0.0000E+00  0.3200E+02
     12.516  0.0000E+00  0.3200E+02
     12.632  0.0000E+00  0.3200E+02
     12.749  0.0000E+00  0.3200E+02
     12.866  0.1093E-01  0.3200E+02
     12.982  0.1379E+00  0.3201E+02
     13.099  0.3403E+00  0.3204E+02
     13.215  0.5500E+00  0.3209E+02
     13.332  0.6326E+00  0.3216E+02
     13.449  0.6326E+00  0.3223E+02
     13.565  0.8255E+00  0.3232E+02
     13.682  0.9555E+00  0.3242E+02
     13.799  0.1074E+01  0.3254E+02
     13.915  0.1726E+01  0.3271E+02
     14.032  0.1505E+01  0.3289E+02
     14.149  0.1486E+01  0.3306E+02
     14.265  0.1584E+01  0.3324E+02
     14.382  0.1600E+01  0.3342E+02
     14.498  0.1762E+01  0.3362E+02
     14.615  0.1924E+01  0.3383E+02
     14.732  0.2107E+01  0.3406E+02
     14.848  0.2259E+01  0.3431E+02
     14.965  0.2424E+01  0.3459E+02
     15.082  0.2181E+01  0.3486E+02
     15.198  0.2160E+01  0.3511E+02
     15.315  0.2192E+01  0.3537E+02
     15.432  0.2307E+01  0.3563E+02
     15.548  0.2453E+01  0.3591E+02
     15.665  0.2644E+01  0.3620E+02
     15.781  0.2834E+01  0.3652E+02
     15.898  0.2958E+01  0.3686E+02
     16.015  0.2995E+01  0.3721E+02
     16.131  0.3122E+01  0.3757E+02
     16.248  0.3321E+01  0.3794E+02
     16.365  0.3658E+01  0.3836E+02
     16.481  0.3934E+01  0.3880E+02
     16.598  0.4434E+01  0.3929E+02
     16.715  0.4899E+01  0.3983E+02
     16.831  0.5473E+01  0.4045E+02
     16.948  0.4272E+01  0.4101E+02
     17.064  0.4534E+01  0.4150E+02
     17.181  0.4115E+01  0.4201E+02
     17.298  0.3603E+01  0.4244E+02
     17.414  0.3769E+01  0.4287E+02
     17.531  0.4057E+01  0.4333E+02
     17.648  0.3832E+01  0.4380E+02
     17.764  0.2995E+01  0.4419E+02
     17.881  0.2744E+01  0.4453E+02
     17.998  0.2597E+01  0.4484E+02
     18.114  0.2563E+01  0.4514E+02
     18.231  0.2759E+01  0.4544E+02
     18.347  0.2888E+01  0.4578E+02
     18.464  0.2878E+01  0.4612E+02
     18.581  0.2878E+01  0.4645E+02
     18.697  0.2805E+01  0.4678E+02
     18.814  0.2512E+01  0.4710E+02
     18.931  0.2012E+01  0.4736E+02
     19.047  0.1809E+01  0.4757E+02
     19.164  0.1131E+01  0.4774E+02
     19.281  0.6442E+00  0.4784E+02
     19.397  0.3789E+00  0.4790E+02
     19.514  0.2734E+00  0.4794E+02
     19.631  0.1927E+00  0.4797E+02
     19.747  0.1297E+00  0.4798E+02
     19.864  0.6818E-01  0.4800E+02
     19.980  0.1170E-01  0.4800E+02
     20.097  0.0000E+00  0.4800E+02
     20.214  0.0000E+00  0.4800E+02
     20.330  0.0000E+00  0.4800E+02
     20.447  0.0000E+00  0.4800E+02
     20.564  0.0000E+00  0.4800E+02
     20.680  0.0000E+00  0.4800E+02
     20.797  0.0000E+00  0.4800E+02
     20.914  0.0000E+00  0.4800E+02
     21.030  0.0000E+00  0.4800E+02
     21.147  0.0000E+00  0.4800E+02
     21.263  0.0000E+00  0.4800E+02
     21.380  0.0000E+00  0.4800E+02
     21.497  0.0000E+00  0.4800E+02
     21.613  0.0000E+00  0.4800E+02
