   8   8   0   0
  0.6246213E+01  0.3730836E-09  0.3730836E-09  0.3589999E-09  0.2000000E-16
  1.000000000000000E-004
  CAR 
 unknown system                          
     21.06594252    -13.38145116  301      8.78688198      1.00000000
    -13.381  0.0000E+00  0.0000E+00
    -13.267  0.0000E+00  0.0000E+00
    -13.152  0.0000E+00  0.0000E+00
    -13.037  0.0000E+00  0.0000E+00
    -12.922  0.0000E+00  0.0000E+00
    -12.807  0.0000E+00  0.0000E+00
    -12.693  0.0000E+00  0.0000E+00
    -12.578  0.0000E+00  0.0000E+00
    -12.463  0.0000E+00  0.0000E+00
    -12.348  0.0000E+00  0.0000E+00
    -12.233  0.0000E+00  0.0000E+00
    -12.118  0.0000E+00  0.0000E+00
    -12.004  0.0000E+00  0.0000E+00
    -11.889  0.0000E+00  0.0000E+00
    -11.774  0.3744E-01  0.5211E-03
    -11.659  0.1644E+00  0.1505E-01
    -11.544  0.2572E+00  0.3930E-01
    -11.429  0.2917E+00  0.7048E-01
    -11.315  0.3427E+00  0.1069E+00
    -11.200  0.3852E+00  0.1491E+00
    -11.085  0.4165E+00  0.1951E+00
    -10.970  0.4503E+00  0.2448E+00
    -10.855  0.4906E+00  0.2988E+00
    -10.740  0.5162E+00  0.3567E+00
    -10.626  0.5410E+00  0.4174E+00
    -10.511  0.5693E+00  0.4811E+00
    -10.396  0.6000E+00  0.5482E+00
    -10.281  0.6262E+00  0.6187E+00
    -10.166  0.6493E+00  0.6920E+00
    -10.052  0.6716E+00  0.7678E+00
     -9.937  0.6952E+00  0.8463E+00
     -9.822  0.7201E+00  0.9275E+00
     -9.707  0.7465E+00  0.1012E+01
     -9.592  0.7683E+00  0.1099E+01
     -9.477  0.7883E+00  0.1188E+01
     -9.363  0.8088E+00  0.1280E+01
     -9.248  0.8308E+00  0.1374E+01
     -9.133  0.8538E+00  0.1471E+01
     -9.018  0.8776E+00  0.1570E+01
     -8.903  0.8991E+00  0.1672E+01
     -8.788  0.9202E+00  0.1777E+01
     -8.674  0.9407E+00  0.1883E+01
     -8.559  0.9622E+00  0.1993E+01
     -8.444  0.9845E+00  0.2104E+01
     -8.329  0.1013E+01  0.2219E+01
     -8.214  0.1054E+01  0.2337E+01
     -8.100  0.1113E+01  0.2462E+01
     -7.985  0.1155E+01  0.2593E+01
     -7.870  0.1189E+01  0.2727E+01
     -7.755  0.1181E+01  0.2864E+01
     -7.640  0.1162E+01  0.2998E+01
     -7.525  0.1144E+01  0.3131E+01
     -7.411  0.1164E+01  0.3263E+01
     -7.296  0.1175E+01  0.3397E+01
     -7.181  0.1190E+01  0.3533E+01
     -7.066  0.1244E+01  0.3672E+01
     -6.951  0.1326E+01  0.3819E+01
     -6.836  0.1384E+01  0.3975E+01
     -6.722  0.1505E+01  0.4139E+01
     -6.607  0.1716E+01  0.4323E+01
     -6.492  0.1805E+01  0.4526E+01
     -6.377  0.1645E+01  0.4720E+01
     -6.262  0.1704E+01  0.4911E+01
     -6.147  0.1578E+01  0.5102E+01
     -6.033  0.1527E+01  0.5280E+01
     -5.918  0.1517E+01  0.5454E+01
     -5.803  0.1516E+01  0.5629E+01
     -5.688  0.1422E+01  0.5797E+01
     -5.573  0.1378E+01  0.5959E+01
     -5.459  0.1336E+01  0.6114E+01
     -5.344  0.1299E+01  0.6266E+01
     -5.229  0.1286E+01  0.6415E+01
     -5.114  0.1242E+01  0.6560E+01
     -4.999  0.1179E+01  0.6700E+01
     -4.884  0.1168E+01  0.6834E+01
     -4.770  0.1104E+01  0.6963E+01
     -4.655  0.1064E+01  0.7088E+01
     -4.540  0.1053E+01  0.7210E+01
     -4.425  0.1026E+01  0.7330E+01
     -4.310  0.9606E+00  0.7443E+01
     -4.195  0.8934E+00  0.7550E+01
     -4.081  0.8124E+00  0.7648E+01
     -3.966  0.7289E+00  0.7736E+01
     -3.851  0.7530E+00  0.7817E+01
     -3.736  0.7848E+00  0.7907E+01
     -3.621  0.8053E+00  0.7993E+01
     -3.507  0.8155E+00  0.8088E+01
     -3.392  0.7953E+00  0.8180E+01
     -3.277  0.8815E+00  0.8272E+01
     -3.162  0.1044E+01  0.8385E+01
     -3.047  0.1166E+01  0.8512E+01
     -2.932  0.1358E+01  0.8656E+01
     -2.818  0.1642E+01  0.8826E+01
     -2.703  0.1936E+01  0.9030E+01
     -2.588  0.2416E+01  0.9276E+01
     -2.473  0.3063E+01  0.9609E+01
     -2.358  0.2928E+01  0.9951E+01
     -2.243  0.2628E+01  0.1028E+02
     -2.129  0.2203E+01  0.1056E+02
     -2.014  0.1944E+01  0.1079E+02
     -1.899  0.1797E+01  0.1101E+02
     -1.784  0.1679E+01  0.1121E+02
     -1.669  0.1595E+01  0.1139E+02
     -1.555  0.1562E+01  0.1157E+02
     -1.440  0.1548E+01  0.1175E+02
     -1.325  0.1446E+01  0.1193E+02
     -1.210  0.1308E+01  0.1208E+02
     -1.095  0.1239E+01  0.1223E+02
     -0.980  0.1198E+01  0.1237E+02
     -0.866  0.1169E+01  0.1251E+02
     -0.751  0.1139E+01  0.1264E+02
     -0.636  0.1114E+01  0.1277E+02
     -0.521  0.1069E+01  0.1289E+02
     -0.406  0.9951E+00  0.1301E+02
     -0.291  0.1001E+01  0.1312E+02
     -0.177  0.1137E+01  0.1325E+02
     -0.062  0.1268E+01  0.1338E+02
      0.053  0.1406E+01  0.1354E+02
      0.168  0.1519E+01  0.1370E+02
      0.283  0.1819E+01  0.1389E+02
      0.398  0.2169E+01  0.1412E+02
      0.512  0.2566E+01  0.1439E+02
      0.627  0.2573E+01  0.1469E+02
      0.742  0.2424E+01  0.1498E+02
      0.857  0.2209E+01  0.1524E+02
      0.972  0.2010E+01  0.1549E+02
      1.086  0.1583E+01  0.1570E+02
      1.201  0.1722E+01  0.1589E+02
      1.316  0.1923E+01  0.1610E+02
      1.431  0.2140E+01  0.1633E+02
      1.546  0.2495E+01  0.1660E+02
      1.661  0.2552E+01  0.1689E+02
      1.775  0.2541E+01  0.1718E+02
      1.890  0.2437E+01  0.1747E+02
      2.005  0.2372E+01  0.1774E+02
      2.120  0.2648E+01  0.1803E+02
      2.235  0.3137E+01  0.1836E+02
      2.350  0.3453E+01  0.1875E+02
      2.464  0.2977E+01  0.1912E+02
      2.579  0.2686E+01  0.1944E+02
      2.694  0.2657E+01  0.1975E+02
      2.809  0.2634E+01  0.2005E+02
      2.924  0.3237E+01  0.2038E+02
      3.038  0.3973E+01  0.2080E+02
      3.153  0.3770E+01  0.2125E+02
      3.268  0.3553E+01  0.2166E+02
      3.383  0.3384E+01  0.2206E+02
      3.498  0.3081E+01  0.2244E+02
      3.613  0.2831E+01  0.2277E+02
      3.727  0.3079E+01  0.2311E+02
      3.842  0.3072E+01  0.2347E+02
      3.957  0.3125E+01  0.2383E+02
      4.072  0.3277E+01  0.2420E+02
      4.187  0.3171E+01  0.2457E+02
      4.302  0.3186E+01  0.2493E+02
      4.416  0.3281E+01  0.2530E+02
      4.531  0.3187E+01  0.2568E+02
      4.646  0.2906E+01  0.2603E+02
      4.761  0.2690E+01  0.2635E+02
      4.876  0.2696E+01  0.2666E+02
      4.990  0.2671E+01  0.2697E+02
      5.105  0.2773E+01  0.2728E+02
      5.220  0.2895E+01  0.2760E+02
      5.335  0.3007E+01  0.2795E+02
      5.450  0.2978E+01  0.2829E+02
      5.565  0.2734E+01  0.2862E+02
      5.679  0.2599E+01  0.2893E+02
      5.794  0.2530E+01  0.2922E+02
      5.909  0.2221E+01  0.2949E+02
      6.024  0.2320E+01  0.2975E+02
      6.139  0.1976E+01  0.3002E+02
      6.254  0.1756E+01  0.3023E+02
      6.368  0.1571E+01  0.3042E+02
      6.483  0.1426E+01  0.3059E+02
      6.598  0.1326E+01  0.3075E+02
      6.713  0.1253E+01  0.3090E+02
      6.828  0.1152E+01  0.3103E+02
      6.943  0.1062E+01  0.3116E+02
      7.057  0.9525E+00  0.3128E+02
      7.172  0.8660E+00  0.3138E+02
      7.287  0.8099E+00  0.3148E+02
      7.402  0.7618E+00  0.3157E+02
      7.517  0.6780E+00  0.3165E+02
      7.631  0.5879E+00  0.3172E+02
      7.746  0.5149E+00  0.3179E+02
      7.861  0.4738E+00  0.3184E+02
      7.976  0.3673E+00  0.3189E+02
      8.091  0.2878E+00  0.3193E+02
      8.206  0.2028E+00  0.3196E+02
      8.320  0.1277E+00  0.3198E+02
      8.435  0.8475E-01  0.3199E+02
      8.550  0.5635E-01  0.3200E+02
      8.665  0.9281E-02  0.3200E+02
      8.780  0.0000E+00  0.3200E+02
      8.895  0.0000E+00  0.3200E+02
      9.009  0.0000E+00  0.3200E+02
      9.124  0.0000E+00  0.3200E+02
      9.239  0.0000E+00  0.3200E+02
      9.354  0.0000E+00  0.3200E+02
      9.469  0.0000E+00  0.3200E+02
      9.583  0.0000E+00  0.3200E+02
      9.698  0.0000E+00  0.3200E+02
      9.813  0.0000E+00  0.3200E+02
      9.928  0.0000E+00  0.3200E+02
     10.043  0.0000E+00  0.3200E+02
     10.158  0.0000E+00  0.3200E+02
     10.272  0.0000E+00  0.3200E+02
     10.387  0.0000E+00  0.3200E+02
     10.502  0.0000E+00  0.3200E+02
     10.617  0.0000E+00  0.3200E+02
     10.732  0.0000E+00  0.3200E+02
     10.847  0.0000E+00  0.3200E+02
     10.961  0.0000E+00  0.3200E+02
     11.076  0.0000E+00  0.3200E+02
     11.191  0.0000E+00  0.3200E+02
     11.306  0.0000E+00  0.3200E+02
     11.421  0.0000E+00  0.3200E+02
     11.535  0.0000E+00  0.3200E+02
     11.650  0.0000E+00  0.3200E+02
     11.765  0.0000E+00  0.3200E+02
     11.880  0.2903E-01  0.3200E+02
     11.995  0.9013E-01  0.3201E+02
     12.110  0.1571E+00  0.3202E+02
     12.224  0.1778E+00  0.3204E+02
     12.339  0.2076E+00  0.3206E+02
     12.454  0.2612E+00  0.3209E+02
     12.569  0.3124E+00  0.3212E+02
     12.684  0.3794E+00  0.3216E+02
     12.799  0.6030E+00  0.3222E+02
     12.913  0.7229E+00  0.3230E+02
     13.028  0.7694E+00  0.3238E+02
     13.143  0.9389E+00  0.3248E+02
     13.258  0.1053E+01  0.3259E+02
     13.373  0.1187E+01  0.3272E+02
     13.488  0.1339E+01  0.3287E+02
     13.602  0.1793E+01  0.3304E+02
     13.717  0.1826E+01  0.3325E+02
     13.832  0.1706E+01  0.3345E+02
     13.947  0.1800E+01  0.3365E+02
     14.062  0.1838E+01  0.3386E+02
     14.176  0.1942E+01  0.3408E+02
     14.291  0.2106E+01  0.3431E+02
     14.406  0.2313E+01  0.3456E+02
     14.521  0.2393E+01  0.3483E+02
     14.636  0.2468E+01  0.3511E+02
     14.751  0.2567E+01  0.3540E+02
     14.865  0.2553E+01  0.3570E+02
     14.980  0.2644E+01  0.3599E+02
     15.095  0.2827E+01  0.3631E+02
     15.210  0.2994E+01  0.3664E+02
     15.325  0.3092E+01  0.3699E+02
     15.440  0.3374E+01  0.3736E+02
     15.554  0.3802E+01  0.3778E+02
     15.669  0.4029E+01  0.3824E+02
     15.784  0.4544E+01  0.3872E+02
     15.899  0.4988E+01  0.3929E+02
     16.014  0.4098E+01  0.3983E+02
     16.128  0.3830E+01  0.4029E+02
     16.243  0.3876E+01  0.4074E+02
     16.358  0.4238E+01  0.4122E+02
     16.473  0.3934E+01  0.4168E+02
     16.588  0.3806E+01  0.4212E+02
     16.703  0.4065E+01  0.4257E+02
     16.817  0.3952E+01  0.4303E+02
     16.932  0.3850E+01  0.4347E+02
     17.047  0.3678E+01  0.4391E+02
     17.162  0.3242E+01  0.4430E+02
     17.277  0.3053E+01  0.4466E+02
     17.392  0.2860E+01  0.4500E+02
     17.506  0.2822E+01  0.4533E+02
     17.621  0.2883E+01  0.4565E+02
     17.736  0.2870E+01  0.4598E+02
     17.851  0.2700E+01  0.4630E+02
     17.966  0.2627E+01  0.4661E+02
     18.081  0.2521E+01  0.4690E+02
     18.195  0.2439E+01  0.4719E+02
     18.310  0.1845E+01  0.4745E+02
     18.425  0.1315E+01  0.4763E+02
     18.540  0.9042E+00  0.4775E+02
     18.655  0.5871E+00  0.4784E+02
     18.769  0.4021E+00  0.4790E+02
     18.884  0.2994E+00  0.4794E+02
     18.999  0.2005E+00  0.4796E+02
     19.114  0.1183E+00  0.4798E+02
     19.229  0.6252E-01  0.4799E+02
     19.344  0.3816E-01  0.4800E+02
     19.458  0.3774E-02  0.4800E+02
     19.573  0.0000E+00  0.4800E+02
     19.688  0.0000E+00  0.4800E+02
     19.803  0.0000E+00  0.4800E+02
     19.918  0.0000E+00  0.4800E+02
     20.033  0.0000E+00  0.4800E+02
     20.147  0.0000E+00  0.4800E+02
     20.262  0.0000E+00  0.4800E+02
     20.377  0.0000E+00  0.4800E+02
     20.492  0.0000E+00  0.4800E+02
     20.607  0.0000E+00  0.4800E+02
     20.721  0.0000E+00  0.4800E+02
     20.836  0.0000E+00  0.4800E+02
     20.951  0.0000E+00  0.4800E+02
     21.066  0.0000E+00  0.4800E+02
