       N       E                     dE             d eps       ncg     rms          rms(c)
DAV:   1     0.554245234605E+02    0.55425E+02   -0.14215E+04  9416   0.104E+03
DAV:   2    -0.696980334039E+02   -0.12512E+03   -0.11868E+03 13032   0.216E+02
DAV:   3    -0.739293864480E+02   -0.42314E+01   -0.42101E+01 12272   0.372E+01
DAV:   4    -0.739781596040E+02   -0.48773E-01   -0.48720E-01 12128   0.428E+00
DAV:   5    -0.739791848251E+02   -0.10252E-02   -0.10248E-02 12272   0.578E-01    0.844E+00
DAV:   6    -0.725987851394E+02    0.13804E+01   -0.93437E-01 11104   0.533E+00    0.471E+00
DAV:   7    -0.721311459685E+02    0.46764E+00   -0.10860E+00 11272   0.591E+00    0.663E-01
DAV:   8    -0.721374174230E+02   -0.62715E-02   -0.22475E-02 12064   0.855E-01    0.748E-02
DAV:   9    -0.721376425739E+02   -0.22515E-03   -0.43192E-04 11632   0.136E-01    0.270E-02
DAV:  10    -0.721376994424E+02   -0.56868E-04   -0.54848E-05 11968   0.543E-02    0.259E-03
DAV:  11    -0.721376998382E+02   -0.39584E-06   -0.11198E-06  8888   0.705E-03
   1 F= -.72137700E+02 E0= -.72137700E+02  d E =0.000000E+00
