 vasp.5.4.4.18Apr17-6-g9f103f2a35 (build Mar 12 2022 03:36:41) complex          
  
 executed on IFC19.0.3.199_CrayMP date 2022.12.01  10:31:49
 running on   16 total cores
 distrk:  each k-point on   16 cores,    1 groups
 distr:  one band on NCORES_PER_BAND=   4 cores,    4 groups


--------------------------------------------------------------------------------------------------------


 INCAR:
 POTCAR:   PAW_PBE C 08Apr2002                    
 POTCAR:   PAW_PBE C 08Apr2002                    
   VRHFIN =C: s2p2                                                              
   LEXCH  = PE                                                                  
   EATOM  =   147.1560 eV,   10.8157 Ry                                         
                                                                                
   TITEL  = PAW_PBE C 08Apr2002                                                 
   LULTRA =        F    use ultrasoft PP ?                                      
   IUNSCR =        0    unscreen: 0-lin 1-nonlin 2-no                           
   RPACOR =     .000    partial core radius                                     
   POMASS =   12.011; ZVAL   =    4.000    mass and valenz                      
   RCORE  =    1.500    outmost cutoff radius                                   
   RWIGS  =    1.630; RWIGS  =     .863    wigner-seitz radius (au A)           
   ENMAX  =  400.000; ENMIN  =  300.000 eV                                      
   ICORE  =        2    local potential                                         
   LCOR   =        T    correct aug charges                                     
   LPAW   =        T    paw PP                                                  
   EAUG   =  644.873                                                            
   DEXC   =     .000                                                            
   RMAX   =    2.266    core radius for proj-oper                               
   RAUG   =    1.300    factor for augmentation sphere                          
   RDEP   =    1.501    radius for radial grids                                 
   RDEPT  =    1.300    core radius for aug-charge                              
   QCUT   =   -5.516; QGAM   =   11.032    optimization parameters              
                                                                                
   Description                                                                  
     l     E      TYP  RCUT    TYP  RCUT                                        
     0   .000     23  1.200                                                     
     0   .000     23  1.200                                                     
     1   .000     23  1.500                                                     
     1  2.500     23  1.500                                                     
     2   .000      7  1.500                                                     
  local pseudopotential read in
  atomic valenz-charges read in
  non local Contribution for L=           0  read in
    real space projection operators read in
  non local Contribution for L=           0  read in
    real space projection operators read in
  non local Contribution for L=           1  read in
    real space projection operators read in
  non local Contribution for L=           1  read in
    real space projection operators read in
    PAW grid and wavefunctions read in
 
   number of l-projection  operators is LMAX  =           4
   number of lm-projection operators is LMMAX =           8
 
 PAW_PBE C 08Apr2002                    :
 energy of atom  1       EATOM= -147.1560
 kinetic energy error for atom=    0.0288 (will be added to EATOM!!)
 
 
 POSCAR: C8                                      
  positions in direct lattice
  No initial velocities read in
 exchange correlation table for  LEXCH =        8
   RHO(1)=    0.500       N(1)  =     2000
   RHO(2)=  100.500       N(2)  =     4000
 


--------------------------------------------------------------------------------------------------------


 ion  position               nearest neighbor table
   1  0.250  0.750  0.250-   2 1.60   4 1.60   6 1.60   8 1.60
   2  0.000  0.000  0.500-   1 1.60   3 1.60   5 1.60   7 1.60
   3  0.250  0.250  0.750-   2 1.60   4 1.60   6 1.60   8 1.60
   4  0.000  0.500  0.000-   1 1.60   3 1.60   5 1.60   7 1.60
   5  0.750  0.750  0.750-   2 1.60   4 1.60   6 1.60   8 1.60
   6  0.500  0.000  0.000-   1 1.60   3 1.60   5 1.60   7 1.60
   7  0.750  0.250  0.250-   2 1.60   4 1.60   6 1.60   8 1.60
   8  0.500  0.500  0.500-   1 1.60   3 1.60   5 1.60   7 1.60
 
  LATTYP: Found a simple tetragonal cell.
 ALAT       =     3.7308363967
 C/A-ratio  =     0.9622505458
  
  Lattice vectors:
  
 A1 = (   3.7308363967,   0.0000000000,   0.0000000000)
 A2 = (   0.0000000000,   3.7308363967,   0.0000000000)
 A3 = (   0.0000000000,   0.0000000000,   3.5899993590)


Analysis of symmetry for initial positions (statically):
=====================================================================
 Subroutine PRICEL returns following result:
 
  LATTYP: Found a body centered tetragonal cell.
 ALAT       =     2.6380997156
 C/A-ratio  =     1.3608277723
  
  Lattice vectors:
  
 A1 = (   1.8654181984,   0.0000000000,   1.7949996795)
 A2 = (  -1.8654181984,   0.0000000000,   1.7949996795)
 A3 = (   0.0000000000,  -1.8654181984,  -1.7949996795)
 
   4 primitive cells build up your supercell.
 

 Routine SETGRP: Setting up the symmetry group for a 
 simple tetragonal supercell.


 Subroutine GETGRP returns: Found 16 space group operations
 (whereof  8 operations were pure point group operations)
 out of a pool of 16 trial point group operations.


The static configuration has the point symmetry D_2d.
 The point group associated with its full space group is D_4h.


Analysis of symmetry for dynamics (positions and initial velocities):
=====================================================================
 Subroutine PRICEL returns following result:
 
  LATTYP: Found a body centered tetragonal cell.
 ALAT       =     2.6380997156
 C/A-ratio  =     1.3608277723
  
  Lattice vectors:
  
 A1 = (   1.8654181984,   0.0000000000,   1.7949996795)
 A2 = (  -1.8654181984,   0.0000000000,   1.7949996795)
 A3 = (   0.0000000000,  -1.8654181984,  -1.7949996795)
 
   4 primitive cells build up your supercell.
 

 Routine SETGRP: Setting up the symmetry group for a 
 simple tetragonal supercell.


 Subroutine GETGRP returns: Found 16 space group operations
 (whereof  8 operations were pure point group operations)
 out of a pool of 16 trial point group operations.


The dynamic configuration has the point symmetry D_2d.
 The point group associated with its full space group is D_4h.


 Subroutine INISYM returns: Found 16 space group operations
 (whereof  8 operations are pure point group operations),
 and found     4 'primitive' translations

 
 
 KPOINTS: kpt_density=1000                        

Automatic generation of k-mesh.
Space group operators:
 irot       det(A)        alpha          n_x          n_y          n_z        tau_x        tau_y        tau_z
    1     1.000000     0.000000     1.000000     0.000000     0.000000     0.000000     0.000000     0.000000
    2    -1.000000    90.000000     0.000000     0.000000    -1.000000     0.000000     0.000000     0.000000
    3     1.000000   180.000000     0.000000     0.000000     1.000000     0.000000     0.000000     0.000000
    4    -1.000000    90.000000     0.000000     0.000000     1.000000     0.000000     0.000000     0.000000
    5     1.000000   180.000000     0.000000     1.000000     0.000000     0.000000     0.000000     0.000000
    6    -1.000000   180.000000     0.707107     0.707107     0.000000     0.000000     0.000000     0.000000
    7     1.000000   180.000000     1.000000     0.000000     0.000000     0.000000     0.000000     0.000000
    8    -1.000000   180.000000     0.707107    -0.707107     0.000000     0.000000     0.000000     0.000000
    9    -1.000000     0.000000     1.000000     0.000000     0.000000    -0.250000    -0.250000     0.250000
   10     1.000000    90.000000     0.000000     0.000000    -1.000000    -0.250000    -0.250000     0.250000
   11    -1.000000   180.000000     0.000000     0.000000     1.000000    -0.250000    -0.250000     0.250000
   12     1.000000    90.000000     0.000000     0.000000     1.000000    -0.250000    -0.250000     0.250000
   13    -1.000000   180.000000     0.000000     1.000000     0.000000    -0.250000    -0.250000     0.250000
   14     1.000000   180.000000     0.707107     0.707107     0.000000    -0.250000    -0.250000     0.250000
   15    -1.000000   180.000000     1.000000     0.000000     0.000000    -0.250000    -0.250000     0.250000
   16     1.000000   180.000000     0.707107    -0.707107     0.000000    -0.250000    -0.250000     0.250000
 
 Subroutine IBZKPT returns following result:
 ===========================================
 
 Found    196 irreducible k-points:
 
 Following reciprocal coordinates:
            Coordinates               Weight
  0.000000  0.000000  0.000000      1.000000
  0.083333  0.000000  0.000000      4.000000
  0.166667  0.000000  0.000000      4.000000
  0.250000  0.000000  0.000000      4.000000
  0.333333  0.000000  0.000000      4.000000
  0.416667  0.000000  0.000000      4.000000
  0.500000  0.000000  0.000000      2.000000
  0.083333  0.083333  0.000000      4.000000
  0.166667  0.083333  0.000000      8.000000
  0.250000  0.083333  0.000000      8.000000
  0.333333  0.083333  0.000000      8.000000
  0.416667  0.083333  0.000000      8.000000
  0.500000  0.083333  0.000000      4.000000
  0.166667  0.166667  0.000000      4.000000
  0.250000  0.166667  0.000000      8.000000
  0.333333  0.166667  0.000000      8.000000
  0.416667  0.166667  0.000000      8.000000
  0.500000  0.166667  0.000000      4.000000
  0.250000  0.250000  0.000000      4.000000
  0.333333  0.250000  0.000000      8.000000
  0.416667  0.250000  0.000000      8.000000
  0.500000  0.250000  0.000000      4.000000
  0.333333  0.333333  0.000000      4.000000
  0.416667  0.333333  0.000000      8.000000
  0.500000  0.333333  0.000000      4.000000
  0.416667  0.416667  0.000000      4.000000
  0.500000  0.416667  0.000000      4.000000
  0.500000  0.500000  0.000000      1.000000
  0.000000  0.000000  0.083333      2.000000
  0.083333  0.000000  0.083333      8.000000
  0.166667  0.000000  0.083333      8.000000
  0.250000  0.000000  0.083333      8.000000
  0.333333  0.000000  0.083333      8.000000
  0.416667  0.000000  0.083333      8.000000
  0.500000  0.000000  0.083333      4.000000
  0.083333  0.083333  0.083333      8.000000
  0.166667  0.083333  0.083333     16.000000
  0.250000  0.083333  0.083333     16.000000
  0.333333  0.083333  0.083333     16.000000
  0.416667  0.083333  0.083333     16.000000
  0.500000  0.083333  0.083333      8.000000
  0.166667  0.166667  0.083333      8.000000
  0.250000  0.166667  0.083333     16.000000
  0.333333  0.166667  0.083333     16.000000
  0.416667  0.166667  0.083333     16.000000
  0.500000  0.166667  0.083333      8.000000
  0.250000  0.250000  0.083333      8.000000
  0.333333  0.250000  0.083333     16.000000
  0.416667  0.250000  0.083333     16.000000
  0.500000  0.250000  0.083333      8.000000
  0.333333  0.333333  0.083333      8.000000
  0.416667  0.333333  0.083333     16.000000
  0.500000  0.333333  0.083333      8.000000
  0.416667  0.416667  0.083333      8.000000
  0.500000  0.416667  0.083333      8.000000
  0.500000  0.500000  0.083333      2.000000
  0.000000  0.000000  0.166667      2.000000
  0.083333  0.000000  0.166667      8.000000
  0.166667  0.000000  0.166667      8.000000
  0.250000  0.000000  0.166667      8.000000
  0.333333  0.000000  0.166667      8.000000
  0.416667  0.000000  0.166667      8.000000
  0.500000  0.000000  0.166667      4.000000
  0.083333  0.083333  0.166667      8.000000
  0.166667  0.083333  0.166667     16.000000
  0.250000  0.083333  0.166667     16.000000
  0.333333  0.083333  0.166667     16.000000
  0.416667  0.083333  0.166667     16.000000
  0.500000  0.083333  0.166667      8.000000
  0.166667  0.166667  0.166667      8.000000
  0.250000  0.166667  0.166667     16.000000
  0.333333  0.166667  0.166667     16.000000
  0.416667  0.166667  0.166667     16.000000
  0.500000  0.166667  0.166667      8.000000
  0.250000  0.250000  0.166667      8.000000
  0.333333  0.250000  0.166667     16.000000
  0.416667  0.250000  0.166667     16.000000
  0.500000  0.250000  0.166667      8.000000
  0.333333  0.333333  0.166667      8.000000
  0.416667  0.333333  0.166667     16.000000
  0.500000  0.333333  0.166667      8.000000
  0.416667  0.416667  0.166667      8.000000
  0.500000  0.416667  0.166667      8.000000
  0.500000  0.500000  0.166667      2.000000
  0.000000  0.000000  0.250000      2.000000
  0.083333  0.000000  0.250000      8.000000
  0.166667  0.000000  0.250000      8.000000
  0.250000  0.000000  0.250000      8.000000
  0.333333  0.000000  0.250000      8.000000
  0.416667  0.000000  0.250000      8.000000
  0.500000  0.000000  0.250000      4.000000
  0.083333  0.083333  0.250000      8.000000
  0.166667  0.083333  0.250000     16.000000
  0.250000  0.083333  0.250000     16.000000
  0.333333  0.083333  0.250000     16.000000
  0.416667  0.083333  0.250000     16.000000
  0.500000  0.083333  0.250000      8.000000
  0.166667  0.166667  0.250000      8.000000
  0.250000  0.166667  0.250000     16.000000
  0.333333  0.166667  0.250000     16.000000
  0.416667  0.166667  0.250000     16.000000
  0.500000  0.166667  0.250000      8.000000
  0.250000  0.250000  0.250000      8.000000
  0.333333  0.250000  0.250000     16.000000
  0.416667  0.250000  0.250000     16.000000
  0.500000  0.250000  0.250000      8.000000
  0.333333  0.333333  0.250000      8.000000
  0.416667  0.333333  0.250000     16.000000
  0.500000  0.333333  0.250000      8.000000
  0.416667  0.416667  0.250000      8.000000
  0.500000  0.416667  0.250000      8.000000
  0.500000  0.500000  0.250000      2.000000
  0.000000  0.000000  0.333333      2.000000
  0.083333  0.000000  0.333333      8.000000
  0.166667  0.000000  0.333333      8.000000
  0.250000  0.000000  0.333333      8.000000
  0.333333  0.000000  0.333333      8.000000
  0.416667  0.000000  0.333333      8.000000
  0.500000  0.000000  0.333333      4.000000
  0.083333  0.083333  0.333333      8.000000
  0.166667  0.083333  0.333333     16.000000
  0.250000  0.083333  0.333333     16.000000
  0.333333  0.083333  0.333333     16.000000
  0.416667  0.083333  0.333333     16.000000
  0.500000  0.083333  0.333333      8.000000
  0.166667  0.166667  0.333333      8.000000
  0.250000  0.166667  0.333333     16.000000
  0.333333  0.166667  0.333333     16.000000
  0.416667  0.166667  0.333333     16.000000
  0.500000  0.166667  0.333333      8.000000
  0.250000  0.250000  0.333333      8.000000
  0.333333  0.250000  0.333333     16.000000
  0.416667  0.250000  0.333333     16.000000
  0.500000  0.250000  0.333333      8.000000
  0.333333  0.333333  0.333333      8.000000
  0.416667  0.333333  0.333333     16.000000
  0.500000  0.333333  0.333333      8.000000
  0.416667  0.416667  0.333333      8.000000
  0.500000  0.416667  0.333333      8.000000
  0.500000  0.500000  0.333333      2.000000
  0.000000  0.000000  0.416667      2.000000
  0.083333  0.000000  0.416667      8.000000
  0.166667  0.000000  0.416667      8.000000
  0.250000  0.000000  0.416667      8.000000
  0.333333  0.000000  0.416667      8.000000
  0.416667  0.000000  0.416667      8.000000
  0.500000  0.000000  0.416667      4.000000
  0.083333  0.083333  0.416667      8.000000
  0.166667  0.083333  0.416667     16.000000
  0.250000  0.083333  0.416667     16.000000
  0.333333  0.083333  0.416667     16.000000
  0.416667  0.083333  0.416667     16.000000
  0.500000  0.083333  0.416667      8.000000
  0.166667  0.166667  0.416667      8.000000
  0.250000  0.166667  0.416667     16.000000
  0.333333  0.166667  0.416667     16.000000
  0.416667  0.166667  0.416667     16.000000
  0.500000  0.166667  0.416667      8.000000
  0.250000  0.250000  0.416667      8.000000
  0.333333  0.250000  0.416667     16.000000
  0.416667  0.250000  0.416667     16.000000
  0.500000  0.250000  0.416667      8.000000
  0.333333  0.333333  0.416667      8.000000
  0.416667  0.333333  0.416667     16.000000
  0.500000  0.333333  0.416667      8.000000
  0.416667  0.416667  0.416667      8.000000
  0.500000  0.416667  0.416667      8.000000
  0.500000  0.500000  0.416667      2.000000
  0.000000  0.000000  0.500000      1.000000
  0.083333  0.000000  0.500000      4.000000
  0.166667  0.000000  0.500000      4.000000
  0.250000  0.000000  0.500000      4.000000
  0.333333  0.000000  0.500000      4.000000
  0.416667  0.000000  0.500000      4.000000
  0.500000  0.000000  0.500000      2.000000
  0.083333  0.083333  0.500000      4.000000
  0.166667  0.083333  0.500000      8.000000
  0.250000  0.083333  0.500000      8.000000
  0.333333  0.083333  0.500000      8.000000
  0.416667  0.083333  0.500000      8.000000
  0.500000  0.083333  0.500000      4.000000
  0.166667  0.166667  0.500000      4.000000
  0.250000  0.166667  0.500000      8.000000
  0.333333  0.166667  0.500000      8.000000
  0.416667  0.166667  0.500000      8.000000
  0.500000  0.166667  0.500000      4.000000
  0.250000  0.250000  0.500000      4.000000
  0.333333  0.250000  0.500000      8.000000
  0.416667  0.250000  0.500000      8.000000
  0.500000  0.250000  0.500000      4.000000
  0.333333  0.333333  0.500000      4.000000
  0.416667  0.333333  0.500000      8.000000
  0.500000  0.333333  0.500000      4.000000
  0.416667  0.416667  0.500000      4.000000
  0.500000  0.416667  0.500000      4.000000
  0.500000  0.500000  0.500000      1.000000
 
 Following cartesian coordinates:
            Coordinates               Weight
  0.000000  0.000000  0.000000      1.000000
  0.022438  0.000000  0.000000      4.000000
  0.044876  0.000000  0.000000      4.000000
  0.067315  0.000000  0.000000      4.000000
  0.089753  0.000000  0.000000      4.000000
  0.112191  0.000000  0.000000      4.000000
  0.134629  0.000000  0.000000      2.000000
  0.022438  0.022438  0.000000      4.000000
  0.044876  0.022438  0.000000      8.000000
  0.067315  0.022438  0.000000      8.000000
  0.089753  0.022438  0.000000      8.000000
  0.112191  0.022438  0.000000      8.000000
  0.134629  0.022438  0.000000      4.000000
  0.044876  0.044876  0.000000      4.000000
  0.067315  0.044876  0.000000      8.000000
  0.089753  0.044876  0.000000      8.000000
  0.112191  0.044876  0.000000      8.000000
  0.134629  0.044876  0.000000      4.000000
  0.067315  0.067315  0.000000      4.000000
  0.089753  0.067315  0.000000      8.000000
  0.112191  0.067315  0.000000      8.000000
  0.134629  0.067315  0.000000      4.000000
  0.089753  0.089753  0.000000      4.000000
  0.112191  0.089753  0.000000      8.000000
  0.134629  0.089753  0.000000      4.000000
  0.112191  0.112191  0.000000      4.000000
  0.134629  0.112191  0.000000      4.000000
  0.134629  0.134629  0.000000      1.000000
  0.000000  0.000000  0.023318      2.000000
  0.022438  0.000000  0.023318      8.000000
  0.044876  0.000000  0.023318      8.000000
  0.067315  0.000000  0.023318      8.000000
  0.089753  0.000000  0.023318      8.000000
  0.112191  0.000000  0.023318      8.000000
  0.134629  0.000000  0.023318      4.000000
  0.022438  0.022438  0.023318      8.000000
  0.044876  0.022438  0.023318     16.000000
  0.067315  0.022438  0.023318     16.000000
  0.089753  0.022438  0.023318     16.000000
  0.112191  0.022438  0.023318     16.000000
  0.134629  0.022438  0.023318      8.000000
  0.044876  0.044876  0.023318      8.000000
  0.067315  0.044876  0.023318     16.000000
  0.089753  0.044876  0.023318     16.000000
  0.112191  0.044876  0.023318     16.000000
  0.134629  0.044876  0.023318      8.000000
  0.067315  0.067315  0.023318      8.000000
  0.089753  0.067315  0.023318     16.000000
  0.112191  0.067315  0.023318     16.000000
  0.134629  0.067315  0.023318      8.000000
  0.089753  0.089753  0.023318      8.000000
  0.112191  0.089753  0.023318     16.000000
  0.134629  0.089753  0.023318      8.000000
  0.112191  0.112191  0.023318      8.000000
  0.134629  0.112191  0.023318      8.000000
  0.134629  0.134629  0.023318      2.000000
  0.000000  0.000000  0.046637      2.000000
  0.022438  0.000000  0.046637      8.000000
  0.044876  0.000000  0.046637      8.000000
  0.067315  0.000000  0.046637      8.000000
  0.089753  0.000000  0.046637      8.000000
  0.112191  0.000000  0.046637      8.000000
  0.134629  0.000000  0.046637      4.000000
  0.022438  0.022438  0.046637      8.000000
  0.044876  0.022438  0.046637     16.000000
  0.067315  0.022438  0.046637     16.000000
  0.089753  0.022438  0.046637     16.000000
  0.112191  0.022438  0.046637     16.000000
  0.134629  0.022438  0.046637      8.000000
  0.044876  0.044876  0.046637      8.000000
  0.067315  0.044876  0.046637     16.000000
  0.089753  0.044876  0.046637     16.000000
  0.112191  0.044876  0.046637     16.000000
  0.134629  0.044876  0.046637      8.000000
  0.067315  0.067315  0.046637      8.000000
  0.089753  0.067315  0.046637     16.000000
  0.112191  0.067315  0.046637     16.000000
  0.134629  0.067315  0.046637      8.000000
  0.089753  0.089753  0.046637      8.000000
  0.112191  0.089753  0.046637     16.000000
  0.134629  0.089753  0.046637      8.000000
  0.112191  0.112191  0.046637      8.000000
  0.134629  0.112191  0.046637      8.000000
  0.134629  0.134629  0.046637      2.000000
  0.000000  0.000000  0.069955      2.000000
  0.022438  0.000000  0.069955      8.000000
  0.044876  0.000000  0.069955      8.000000
  0.067315  0.000000  0.069955      8.000000
  0.089753  0.000000  0.069955      8.000000
  0.112191  0.000000  0.069955      8.000000
  0.134629  0.000000  0.069955      4.000000
  0.022438  0.022438  0.069955      8.000000
  0.044876  0.022438  0.069955     16.000000
  0.067315  0.022438  0.069955     16.000000
  0.089753  0.022438  0.069955     16.000000
  0.112191  0.022438  0.069955     16.000000
  0.134629  0.022438  0.069955      8.000000
  0.044876  0.044876  0.069955      8.000000
  0.067315  0.044876  0.069955     16.000000
  0.089753  0.044876  0.069955     16.000000
  0.112191  0.044876  0.069955     16.000000
  0.134629  0.044876  0.069955      8.000000
  0.067315  0.067315  0.069955      8.000000
  0.089753  0.067315  0.069955     16.000000
  0.112191  0.067315  0.069955     16.000000
  0.134629  0.067315  0.069955      8.000000
  0.089753  0.089753  0.069955      8.000000
  0.112191  0.089753  0.069955     16.000000
  0.134629  0.089753  0.069955      8.000000
  0.112191  0.112191  0.069955      8.000000
  0.134629  0.112191  0.069955      8.000000
  0.134629  0.134629  0.069955      2.000000
  0.000000  0.000000  0.093274      2.000000
  0.022438  0.000000  0.093274      8.000000
  0.044876  0.000000  0.093274      8.000000
  0.067315  0.000000  0.093274      8.000000
  0.089753  0.000000  0.093274      8.000000
  0.112191  0.000000  0.093274      8.000000
  0.134629  0.000000  0.093274      4.000000
  0.022438  0.022438  0.093274      8.000000
  0.044876  0.022438  0.093274     16.000000
  0.067315  0.022438  0.093274     16.000000
  0.089753  0.022438  0.093274     16.000000
  0.112191  0.022438  0.093274     16.000000
  0.134629  0.022438  0.093274      8.000000
  0.044876  0.044876  0.093274      8.000000
  0.067315  0.044876  0.093274     16.000000
  0.089753  0.044876  0.093274     16.000000
  0.112191  0.044876  0.093274     16.000000
  0.134629  0.044876  0.093274      8.000000
  0.067315  0.067315  0.093274      8.000000
  0.089753  0.067315  0.093274     16.000000
  0.112191  0.067315  0.093274     16.000000
  0.134629  0.067315  0.093274      8.000000
  0.089753  0.089753  0.093274      8.000000
  0.112191  0.089753  0.093274     16.000000
  0.134629  0.089753  0.093274      8.000000
  0.112191  0.112191  0.093274      8.000000
  0.134629  0.112191  0.093274      8.000000
  0.134629  0.134629  0.093274      2.000000
  0.000000  0.000000  0.116592      2.000000
  0.022438  0.000000  0.116592      8.000000
  0.044876  0.000000  0.116592      8.000000
  0.067315  0.000000  0.116592      8.000000
  0.089753  0.000000  0.116592      8.000000
  0.112191  0.000000  0.116592      8.000000
  0.134629  0.000000  0.116592      4.000000
  0.022438  0.022438  0.116592      8.000000
  0.044876  0.022438  0.116592     16.000000
  0.067315  0.022438  0.116592     16.000000
  0.089753  0.022438  0.116592     16.000000
  0.112191  0.022438  0.116592     16.000000
  0.134629  0.022438  0.116592      8.000000
  0.044876  0.044876  0.116592      8.000000
  0.067315  0.044876  0.116592     16.000000
  0.089753  0.044876  0.116592     16.000000
  0.112191  0.044876  0.116592     16.000000
  0.134629  0.044876  0.116592      8.000000
  0.067315  0.067315  0.116592      8.000000
  0.089753  0.067315  0.116592     16.000000
  0.112191  0.067315  0.116592     16.000000
  0.134629  0.067315  0.116592      8.000000
  0.089753  0.089753  0.116592      8.000000
  0.112191  0.089753  0.116592     16.000000
  0.134629  0.089753  0.116592      8.000000
  0.112191  0.112191  0.116592      8.000000
  0.134629  0.112191  0.116592      8.000000
  0.134629  0.134629  0.116592      2.000000
  0.000000  0.000000  0.139911      1.000000
  0.022438  0.000000  0.139911      4.000000
  0.044876  0.000000  0.139911      4.000000
  0.067315  0.000000  0.139911      4.000000
  0.089753  0.000000  0.139911      4.000000
  0.112191  0.000000  0.139911      4.000000
  0.134629  0.000000  0.139911      2.000000
  0.022438  0.022438  0.139911      4.000000
  0.044876  0.022438  0.139911      8.000000
  0.067315  0.022438  0.139911      8.000000
  0.089753  0.022438  0.139911      8.000000
  0.112191  0.022438  0.139911      8.000000
  0.134629  0.022438  0.139911      4.000000
  0.044876  0.044876  0.139911      4.000000
  0.067315  0.044876  0.139911      8.000000
  0.089753  0.044876  0.139911      8.000000
  0.112191  0.044876  0.139911      8.000000
  0.134629  0.044876  0.139911      4.000000
  0.067315  0.067315  0.139911      4.000000
  0.089753  0.067315  0.139911      8.000000
  0.112191  0.067315  0.139911      8.000000
  0.134629  0.067315  0.139911      4.000000
  0.089753  0.089753  0.139911      4.000000
  0.112191  0.089753  0.139911      8.000000
  0.134629  0.089753  0.139911      4.000000
  0.112191  0.112191  0.139911      4.000000
  0.134629  0.112191  0.139911      4.000000
  0.134629  0.134629  0.139911      1.000000
 
 TETIRR: Found   2592 inequivalent tetrahedra from    10368


--------------------------------------------------------------------------------------------------------




 Dimension of arrays:
   k-points           NKPTS =    196   k-points in BZ     NKDIM =    196   number of bands    NBANDS=     24
   number of dos      NEDOS =    301   number of ions     NIONS =      8
   non local maximal  LDIM  =      4   non local SUM 2l+1 LMDIM =      8
   total plane-waves  NPLWV =  13824
   max r-space proj   IRMAX =      1   max aug-charges    IRDMAX=   3464
   dimension x,y,z NGX =    24 NGY =   24 NGZ =   24
   dimension x,y,z NGXF=    48 NGYF=   48 NGZF=   48
   support grid    NGXF=    48 NGYF=   48 NGZF=   48
   ions per type =               8
   NGX,Y,Z   is equivalent  to a cutoff of  10.69, 10.69, 11.11 a.u.
   NGXF,Y,Z  is equivalent  to a cutoff of  21.39, 21.39, 22.23 a.u.

 SYSTEM =  unknown system                          
 POSCAR =  C8                                      

 Startparameter for this run:
   NWRITE =      2    write-flag & timer
   PREC   = accura    normal or accurate (medium, high low for compatibility)
   ISTART =      0    job   : 0-new  1-cont  2-samecut
   ICHARG =      2    charge: 1-file 2-atom 10-const
   ISPIN  =      1    spin polarized calculation?
   LNONCOLLINEAR =      F non collinear calculations
   LSORBIT =      F    spin-orbit coupling
   INIWAV =      1    electr: 0-lowe 1-rand  2-diag
   LASPH  =      F    aspherical Exc in radial PAW
   METAGGA=      F    non-selfconsistent MetaGGA calc.

 Electronic Relaxation 1
   ENCUT  =  400.0 eV  29.40 Ry    5.42 a.u.   6.08  6.08  5.85*2*pi/ulx,y,z
   ENINI  =  400.0     initial cutoff
   ENAUG  =  644.9 eV  augmentation charge cutoff
   NELM   =     60;   NELMIN=  2; NELMDL= -5     # of ELM steps 
   EDIFF  = 0.1E-05   stopping-criterion for ELM
   LREAL  =      F    real-space projection
   NLSPLINE    = F    spline interpolate recip. space projectors
   LCOMPAT=      F    compatible to vasp.4.4
   GGA_COMPAT  = T    GGA compatible to vasp.4.4-vasp.4.6
   LMAXPAW     = -100 max onsite density
   LMAXMIX     =    2 max onsite mixed and CHGCAR
   VOSKOWN=      0    Vosko Wilk Nusair interpolation
   ROPT   =    0.00000
 Ionic relaxation
   EDIFFG = 0.1E-04   stopping-criterion for IOM
   NSW    =      0    number of steps for IOM
   NBLOCK =      1;   KBLOCK =      1    inner block; outer block 
   IBRION =     -1    ionic relax: 0-MD 1-quasi-New 2-CG
   NFREE  =      0    steps in history (QN), initial steepest desc. (CG)
   ISIF   =      2    stress and relaxation
   IWAVPR =     10    prediction:  0-non 1-charg 2-wave 3-comb
   ISYM   =      2    0-nonsym 1-usesym 2-fastsym
   LCORR  =      T    Harris-Foulkes like correction to forces

   POTIM  = 0.0200    time-step for ionic-motion
   TEIN   =    0.0    initial temperature
   TEBEG  =    0.0;   TEEND  =   0.0 temperature during run
   SMASS  =  -3.00    Nose mass-parameter (am)
   estimated Nose-frequenzy (Omega)   =  0.10E-29 period in steps =****** mass=  -0.318E-27a.u.
   SCALEE = 1.0000    scale energy and forces
   NPACO  =    256;   APACO  = 16.0  distance and # of slots for P.C.
   PSTRESS=    0.0 pullay stress

  Mass of Ions in am
   POMASS =  12.01
  Ionic Valenz
   ZVAL   =   4.00
  Atomic Wigner-Seitz radii
   RWIGS  =  -1.00
  virtual crystal weights 
   VCA    =   1.00
   NELECT =      32.0000    total number of electrons
   NUPDOWN=      -1.0000    fix difference up-down

 DOS related values:
   EMIN   =  10.00;   EMAX   =-10.00  energy-range for DOS
   EFERMI =   0.00
   ISMEAR =    -5;   SIGMA  =   0.06  broadening in eV -4-tet -1-fermi 0-gaus

 Electronic relaxation 2 (details)
   IALGO  =     38    algorithm
   LDIAG  =      T    sub-space diagonalisation (order eigenvalues)
   LSUBROT=      F    optimize rotation matrix (better conditioning)
   TURBO    =      0    0=normal 1=particle mesh
   IRESTART =      0    0=no restart 2=restart with 2 vectors
   NREBOOT  =      0    no. of reboots
   NMIN     =      0    reboot dimension
   EREF     =   0.00    reference energy to select bands
   IMIX   =      4    mixing-type and parameters
     AMIX     =   0.40;   BMIX     =  1.00
     AMIX_MAG =   1.60;   BMIX_MAG =  1.00
     AMIN     =   0.10
     WC   =   100.;   INIMIX=   1;  MIXPRE=   1;  MAXMIX= -45

 Intra band minimization:
   WEIMIN = 0.0000     energy-eigenvalue tresh-hold
   EBREAK =  0.10E-07  absolut break condition
   DEPER  =   0.30     relativ break condition  

   TIME   =   0.40     timestep for ELM

  volume/ion in A,a.u.               =       6.25        42.15
  Fermi-wavevector in a.u.,A,eV,Ry     =   1.411094  2.666581 27.091728  1.991186
  Thomas-Fermi vector in A             =   2.532980
 
 Write flags
   LWAVE        =      F    write WAVECAR
   LDOWNSAMPLE  =      F    k-point downsampling of WAVECAR
   LCHARG       =      F    write CHGCAR
   LVTOT        =      F    write LOCPOT, total local potential
   LVHAR        =      F    write LOCPOT, Hartree potential only
   LELF         =      F    write electronic localiz. function (ELF)
   LORBIT       =      0    0 simple, 1 ext, 2 COOP (PROOUT), +10 PAW based schemes


 Dipole corrections
   LMONO  =      F    monopole corrections only (constant potential shift)
   LDIPOL =      F    correct potential (dipole corrections)
   IDIPOL =      0    1-x, 2-y, 3-z, 4-all directions 
   EPSILON=  1.0000000 bulk dielectric constant

 Exchange correlation treatment:
   GGA     =    --    GGA type
   LEXCH   =     8    internal setting for exchange type
   VOSKOWN=      0    Vosko Wilk Nusair interpolation
   LHFCALC =     F    Hartree Fock is set to
   LHFONE  =     F    Hartree Fock one center treatment
   AEXX    =    0.0000 exact exchange contribution

 Linear response parameters
   LEPSILON=     F    determine dielectric tensor
   LRPA    =     F    only Hartree local field effects (RPA)
   LNABLA  =     F    use nabla operator in PAW spheres
   LVEL    =     F    velocity operator in full k-point grid
   LINTERFAST=   F  fast interpolation
   KINTER  =     0    interpolate to denser k-point grid
   CSHIFT  =0.1000    complex shift for real part using Kramers Kronig
   OMEGAMAX=  -1.0    maximum frequency
   DEG_THRESHOLD= 0.2000000E-02 threshold for treating states as degnerate
   RTIME   =   -0.100 relaxation time in fs
  (WPLASMAI=    0.000 imaginary part of plasma frequency in eV, 0.658/RTIME)
   DFIELD  = 0.0000000 0.0000000 0.0000000 field for delta impulse in time
 
 Orbital magnetization related:
   ORBITALMAG=     F  switch on orbital magnetization
   LCHIMAG   =     F  perturbation theory with respect to B field
   DQ        =  0.001000  dq finite difference perturbation B field
   LLRAUG    =     F  two centre corrections for induced B field



--------------------------------------------------------------------------------------------------------


 Static calculation
 charge density and potential will be updated during run
 non-spin polarized calculation
 Variant of blocked Davidson
 Davidson routine will perform the subspace rotation
 perform sub-space diagonalisation
    after iterative eigenvector-optimisation
 modified Broyden-mixing scheme, WC =      100.0
 initial mixing is a Kerker type mixing with AMIX =  0.4000 and BMIX =      1.0000
 Hartree-type preconditioning will be used
 using additional bands            8
 reciprocal scheme for non local part
 calculate Harris-corrections to forces 
   (improved forces if not selfconsistent)
 use gradient corrections 
 use of overlap-Matrix (Vanderbilt PP)
 Fermi weights with tetrahedron method with Bloechl corrections


--------------------------------------------------------------------------------------------------------


  energy-cutoff  :      400.00
  volume of cell :       49.97
      direct lattice vectors                 reciprocal lattice vectors
     3.730836397  0.000000000  0.000000000     0.268036412  0.000000000  0.000000000
     0.000000000  3.730836397  0.000000000     0.000000000  0.268036412  0.000000000
     0.000000000  0.000000000  3.589999359     0.000000000  0.000000000  0.278551582

  length of vectors
     3.730836397  3.730836397  3.589999359     0.268036412  0.268036412  0.278551582


 
 k-points in units of 2pi/SCALE and weight: kpt_density=1000                        
   0.00000000  0.00000000  0.00000000       0.001
   0.02243818  0.00000000  0.00000000       0.002
   0.04487636  0.00000000  0.00000000       0.002
   0.06731454  0.00000000  0.00000000       0.002
   0.08975272  0.00000000  0.00000000       0.002
   0.11219090  0.00000000  0.00000000       0.002
   0.13462908  0.00000000  0.00000000       0.001
   0.02243818  0.02243818  0.00000000       0.002
   0.04487636  0.02243818  0.00000000       0.005
   0.06731454  0.02243818  0.00000000       0.005
   0.08975272  0.02243818  0.00000000       0.005
   0.11219090  0.02243818  0.00000000       0.005
   0.13462908  0.02243818  0.00000000       0.002
   0.04487636  0.04487636  0.00000000       0.002
   0.06731454  0.04487636  0.00000000       0.005
   0.08975272  0.04487636  0.00000000       0.005
   0.11219090  0.04487636  0.00000000       0.005
   0.13462908  0.04487636  0.00000000       0.002
   0.06731454  0.06731454  0.00000000       0.002
   0.08975272  0.06731454  0.00000000       0.005
   0.11219090  0.06731454  0.00000000       0.005
   0.13462908  0.06731454  0.00000000       0.002
   0.08975272  0.08975272  0.00000000       0.002
   0.11219090  0.08975272  0.00000000       0.005
   0.13462908  0.08975272  0.00000000       0.002
   0.11219090  0.11219090  0.00000000       0.002
   0.13462908  0.11219090  0.00000000       0.002
   0.13462908  0.13462908  0.00000000       0.001
   0.00000000  0.00000000  0.02331844       0.001
   0.02243818  0.00000000  0.02331844       0.005
   0.04487636  0.00000000  0.02331844       0.005
   0.06731454  0.00000000  0.02331844       0.005
   0.08975272  0.00000000  0.02331844       0.005
   0.11219090  0.00000000  0.02331844       0.005
   0.13462908  0.00000000  0.02331844       0.002
   0.02243818  0.02243818  0.02331844       0.005
   0.04487636  0.02243818  0.02331844       0.009
   0.06731454  0.02243818  0.02331844       0.009
   0.08975272  0.02243818  0.02331844       0.009
   0.11219090  0.02243818  0.02331844       0.009
   0.13462908  0.02243818  0.02331844       0.005
   0.04487636  0.04487636  0.02331844       0.005
   0.06731454  0.04487636  0.02331844       0.009
   0.08975272  0.04487636  0.02331844       0.009
   0.11219090  0.04487636  0.02331844       0.009
   0.13462908  0.04487636  0.02331844       0.005
   0.06731454  0.06731454  0.02331844       0.005
   0.08975272  0.06731454  0.02331844       0.009
   0.11219090  0.06731454  0.02331844       0.009
   0.13462908  0.06731454  0.02331844       0.005
   0.08975272  0.08975272  0.02331844       0.005
   0.11219090  0.08975272  0.02331844       0.009
   0.13462908  0.08975272  0.02331844       0.005
   0.11219090  0.11219090  0.02331844       0.005
   0.13462908  0.11219090  0.02331844       0.005
   0.13462908  0.13462908  0.02331844       0.001
   0.00000000  0.00000000  0.04663688       0.001
   0.02243818  0.00000000  0.04663688       0.005
   0.04487636  0.00000000  0.04663688       0.005
   0.06731454  0.00000000  0.04663688       0.005
   0.08975272  0.00000000  0.04663688       0.005
   0.11219090  0.00000000  0.04663688       0.005
   0.13462908  0.00000000  0.04663688       0.002
   0.02243818  0.02243818  0.04663688       0.005
   0.04487636  0.02243818  0.04663688       0.009
   0.06731454  0.02243818  0.04663688       0.009
   0.08975272  0.02243818  0.04663688       0.009
   0.11219090  0.02243818  0.04663688       0.009
   0.13462908  0.02243818  0.04663688       0.005
   0.04487636  0.04487636  0.04663688       0.005
   0.06731454  0.04487636  0.04663688       0.009
   0.08975272  0.04487636  0.04663688       0.009
   0.11219090  0.04487636  0.04663688       0.009
   0.13462908  0.04487636  0.04663688       0.005
   0.06731454  0.06731454  0.04663688       0.005
   0.08975272  0.06731454  0.04663688       0.009
   0.11219090  0.06731454  0.04663688       0.009
   0.13462908  0.06731454  0.04663688       0.005
   0.08975272  0.08975272  0.04663688       0.005
   0.11219090  0.08975272  0.04663688       0.009
   0.13462908  0.08975272  0.04663688       0.005
   0.11219090  0.11219090  0.04663688       0.005
   0.13462908  0.11219090  0.04663688       0.005
   0.13462908  0.13462908  0.04663688       0.001
   0.00000000  0.00000000  0.06995531       0.001
   0.02243818  0.00000000  0.06995531       0.005
   0.04487636  0.00000000  0.06995531       0.005
   0.06731454  0.00000000  0.06995531       0.005
   0.08975272  0.00000000  0.06995531       0.005
   0.11219090  0.00000000  0.06995531       0.005
   0.13462908  0.00000000  0.06995531       0.002
   0.02243818  0.02243818  0.06995531       0.005
   0.04487636  0.02243818  0.06995531       0.009
   0.06731454  0.02243818  0.06995531       0.009
   0.08975272  0.02243818  0.06995531       0.009
   0.11219090  0.02243818  0.06995531       0.009
   0.13462908  0.02243818  0.06995531       0.005
   0.04487636  0.04487636  0.06995531       0.005
   0.06731454  0.04487636  0.06995531       0.009
   0.08975272  0.04487636  0.06995531       0.009
   0.11219090  0.04487636  0.06995531       0.009
   0.13462908  0.04487636  0.06995531       0.005
   0.06731454  0.06731454  0.06995531       0.005
   0.08975272  0.06731454  0.06995531       0.009
   0.11219090  0.06731454  0.06995531       0.009
   0.13462908  0.06731454  0.06995531       0.005
   0.08975272  0.08975272  0.06995531       0.005
   0.11219090  0.08975272  0.06995531       0.009
   0.13462908  0.08975272  0.06995531       0.005
   0.11219090  0.11219090  0.06995531       0.005
   0.13462908  0.11219090  0.06995531       0.005
   0.13462908  0.13462908  0.06995531       0.001
   0.00000000  0.00000000  0.09327375       0.001
   0.02243818  0.00000000  0.09327375       0.005
   0.04487636  0.00000000  0.09327375       0.005
   0.06731454  0.00000000  0.09327375       0.005
   0.08975272  0.00000000  0.09327375       0.005
   0.11219090  0.00000000  0.09327375       0.005
   0.13462908  0.00000000  0.09327375       0.002
   0.02243818  0.02243818  0.09327375       0.005
   0.04487636  0.02243818  0.09327375       0.009
   0.06731454  0.02243818  0.09327375       0.009
   0.08975272  0.02243818  0.09327375       0.009
   0.11219090  0.02243818  0.09327375       0.009
   0.13462908  0.02243818  0.09327375       0.005
   0.04487636  0.04487636  0.09327375       0.005
   0.06731454  0.04487636  0.09327375       0.009
   0.08975272  0.04487636  0.09327375       0.009
   0.11219090  0.04487636  0.09327375       0.009
   0.13462908  0.04487636  0.09327375       0.005
   0.06731454  0.06731454  0.09327375       0.005
   0.08975272  0.06731454  0.09327375       0.009
   0.11219090  0.06731454  0.09327375       0.009
   0.13462908  0.06731454  0.09327375       0.005
   0.08975272  0.08975272  0.09327375       0.005
   0.11219090  0.08975272  0.09327375       0.009
   0.13462908  0.08975272  0.09327375       0.005
   0.11219090  0.11219090  0.09327375       0.005
   0.13462908  0.11219090  0.09327375       0.005
   0.13462908  0.13462908  0.09327375       0.001
   0.00000000  0.00000000  0.11659219       0.001
   0.02243818  0.00000000  0.11659219       0.005
   0.04487636  0.00000000  0.11659219       0.005
   0.06731454  0.00000000  0.11659219       0.005
   0.08975272  0.00000000  0.11659219       0.005
   0.11219090  0.00000000  0.11659219       0.005
   0.13462908  0.00000000  0.11659219       0.002
   0.02243818  0.02243818  0.11659219       0.005
   0.04487636  0.02243818  0.11659219       0.009
   0.06731454  0.02243818  0.11659219       0.009
   0.08975272  0.02243818  0.11659219       0.009
   0.11219090  0.02243818  0.11659219       0.009
   0.13462908  0.02243818  0.11659219       0.005
   0.04487636  0.04487636  0.11659219       0.005
   0.06731454  0.04487636  0.11659219       0.009
   0.08975272  0.04487636  0.11659219       0.009
   0.11219090  0.04487636  0.11659219       0.009
   0.13462908  0.04487636  0.11659219       0.005
   0.06731454  0.06731454  0.11659219       0.005
   0.08975272  0.06731454  0.11659219       0.009
   0.11219090  0.06731454  0.11659219       0.009
   0.13462908  0.06731454  0.11659219       0.005
   0.08975272  0.08975272  0.11659219       0.005
   0.11219090  0.08975272  0.11659219       0.009
   0.13462908  0.08975272  0.11659219       0.005
   0.11219090  0.11219090  0.11659219       0.005
   0.13462908  0.11219090  0.11659219       0.005
   0.13462908  0.13462908  0.11659219       0.001
   0.00000000  0.00000000  0.13991063       0.001
   0.02243818  0.00000000  0.13991063       0.002
   0.04487636  0.00000000  0.13991063       0.002
   0.06731454  0.00000000  0.13991063       0.002
   0.08975272  0.00000000  0.13991063       0.002
   0.11219090  0.00000000  0.13991063       0.002
   0.13462908  0.00000000  0.13991063       0.001
   0.02243818  0.02243818  0.13991063       0.002
   0.04487636  0.02243818  0.13991063       0.005
   0.06731454  0.02243818  0.13991063       0.005
   0.08975272  0.02243818  0.13991063       0.005
   0.11219090  0.02243818  0.13991063       0.005
   0.13462908  0.02243818  0.13991063       0.002
   0.04487636  0.04487636  0.13991063       0.002
   0.06731454  0.04487636  0.13991063       0.005
   0.08975272  0.04487636  0.13991063       0.005
   0.11219090  0.04487636  0.13991063       0.005
   0.13462908  0.04487636  0.13991063       0.002
   0.06731454  0.06731454  0.13991063       0.002
   0.08975272  0.06731454  0.13991063       0.005
   0.11219090  0.06731454  0.13991063       0.005
   0.13462908  0.06731454  0.13991063       0.002
   0.08975272  0.08975272  0.13991063       0.002
   0.11219090  0.08975272  0.13991063       0.005
   0.13462908  0.08975272  0.13991063       0.002
   0.11219090  0.11219090  0.13991063       0.002
   0.13462908  0.11219090  0.13991063       0.002
   0.13462908  0.13462908  0.13991063       0.001
 
 k-points in reciprocal lattice and weights: kpt_density=1000                        
   0.00000000  0.00000000  0.00000000       0.001
   0.08333333  0.00000000  0.00000000       0.002
   0.16666667  0.00000000  0.00000000       0.002
   0.25000000  0.00000000  0.00000000       0.002
   0.33333333  0.00000000  0.00000000       0.002
   0.41666667  0.00000000  0.00000000       0.002
   0.50000000  0.00000000  0.00000000       0.001
   0.08333333  0.08333333  0.00000000       0.002
   0.16666667  0.08333333  0.00000000       0.005
   0.25000000  0.08333333  0.00000000       0.005
   0.33333333  0.08333333  0.00000000       0.005
   0.41666667  0.08333333  0.00000000       0.005
   0.50000000  0.08333333  0.00000000       0.002
   0.16666667  0.16666667  0.00000000       0.002
   0.25000000  0.16666667  0.00000000       0.005
   0.33333333  0.16666667  0.00000000       0.005
   0.41666667  0.16666667  0.00000000       0.005
   0.50000000  0.16666667  0.00000000       0.002
   0.25000000  0.25000000  0.00000000       0.002
   0.33333333  0.25000000  0.00000000       0.005
   0.41666667  0.25000000  0.00000000       0.005
   0.50000000  0.25000000  0.00000000       0.002
   0.33333333  0.33333333  0.00000000       0.002
   0.41666667  0.33333333  0.00000000       0.005
   0.50000000  0.33333333  0.00000000       0.002
   0.41666667  0.41666667  0.00000000       0.002
   0.50000000  0.41666667  0.00000000       0.002
   0.50000000  0.50000000  0.00000000       0.001
   0.00000000  0.00000000  0.08333333       0.001
   0.08333333  0.00000000  0.08333333       0.005
   0.16666667  0.00000000  0.08333333       0.005
   0.25000000  0.00000000  0.08333333       0.005
   0.33333333  0.00000000  0.08333333       0.005
   0.41666667  0.00000000  0.08333333       0.005
   0.50000000  0.00000000  0.08333333       0.002
   0.08333333  0.08333333  0.08333333       0.005
   0.16666667  0.08333333  0.08333333       0.009
   0.25000000  0.08333333  0.08333333       0.009
   0.33333333  0.08333333  0.08333333       0.009
   0.41666667  0.08333333  0.08333333       0.009
   0.50000000  0.08333333  0.08333333       0.005
   0.16666667  0.16666667  0.08333333       0.005
   0.25000000  0.16666667  0.08333333       0.009
   0.33333333  0.16666667  0.08333333       0.009
   0.41666667  0.16666667  0.08333333       0.009
   0.50000000  0.16666667  0.08333333       0.005
   0.25000000  0.25000000  0.08333333       0.005
   0.33333333  0.25000000  0.08333333       0.009
   0.41666667  0.25000000  0.08333333       0.009
   0.50000000  0.25000000  0.08333333       0.005
   0.33333333  0.33333333  0.08333333       0.005
   0.41666667  0.33333333  0.08333333       0.009
   0.50000000  0.33333333  0.08333333       0.005
   0.41666667  0.41666667  0.08333333       0.005
   0.50000000  0.41666667  0.08333333       0.005
   0.50000000  0.50000000  0.08333333       0.001
   0.00000000  0.00000000  0.16666667       0.001
   0.08333333  0.00000000  0.16666667       0.005
   0.16666667  0.00000000  0.16666667       0.005
   0.25000000  0.00000000  0.16666667       0.005
   0.33333333  0.00000000  0.16666667       0.005
   0.41666667  0.00000000  0.16666667       0.005
   0.50000000  0.00000000  0.16666667       0.002
   0.08333333  0.08333333  0.16666667       0.005
   0.16666667  0.08333333  0.16666667       0.009
   0.25000000  0.08333333  0.16666667       0.009
   0.33333333  0.08333333  0.16666667       0.009
   0.41666667  0.08333333  0.16666667       0.009
   0.50000000  0.08333333  0.16666667       0.005
   0.16666667  0.16666667  0.16666667       0.005
   0.25000000  0.16666667  0.16666667       0.009
   0.33333333  0.16666667  0.16666667       0.009
   0.41666667  0.16666667  0.16666667       0.009
   0.50000000  0.16666667  0.16666667       0.005
   0.25000000  0.25000000  0.16666667       0.005
   0.33333333  0.25000000  0.16666667       0.009
   0.41666667  0.25000000  0.16666667       0.009
   0.50000000  0.25000000  0.16666667       0.005
   0.33333333  0.33333333  0.16666667       0.005
   0.41666667  0.33333333  0.16666667       0.009
   0.50000000  0.33333333  0.16666667       0.005
   0.41666667  0.41666667  0.16666667       0.005
   0.50000000  0.41666667  0.16666667       0.005
   0.50000000  0.50000000  0.16666667       0.001
   0.00000000  0.00000000  0.25000000       0.001
   0.08333333  0.00000000  0.25000000       0.005
   0.16666667  0.00000000  0.25000000       0.005
   0.25000000  0.00000000  0.25000000       0.005
   0.33333333  0.00000000  0.25000000       0.005
   0.41666667  0.00000000  0.25000000       0.005
   0.50000000  0.00000000  0.25000000       0.002
   0.08333333  0.08333333  0.25000000       0.005
   0.16666667  0.08333333  0.25000000       0.009
   0.25000000  0.08333333  0.25000000       0.009
   0.33333333  0.08333333  0.25000000       0.009
   0.41666667  0.08333333  0.25000000       0.009
   0.50000000  0.08333333  0.25000000       0.005
   0.16666667  0.16666667  0.25000000       0.005
   0.25000000  0.16666667  0.25000000       0.009
   0.33333333  0.16666667  0.25000000       0.009
   0.41666667  0.16666667  0.25000000       0.009
   0.50000000  0.16666667  0.25000000       0.005
   0.25000000  0.25000000  0.25000000       0.005
   0.33333333  0.25000000  0.25000000       0.009
   0.41666667  0.25000000  0.25000000       0.009
   0.50000000  0.25000000  0.25000000       0.005
   0.33333333  0.33333333  0.25000000       0.005
   0.41666667  0.33333333  0.25000000       0.009
   0.50000000  0.33333333  0.25000000       0.005
   0.41666667  0.41666667  0.25000000       0.005
   0.50000000  0.41666667  0.25000000       0.005
   0.50000000  0.50000000  0.25000000       0.001
   0.00000000  0.00000000  0.33333333       0.001
   0.08333333  0.00000000  0.33333333       0.005
   0.16666667  0.00000000  0.33333333       0.005
   0.25000000  0.00000000  0.33333333       0.005
   0.33333333  0.00000000  0.33333333       0.005
   0.41666667  0.00000000  0.33333333       0.005
   0.50000000  0.00000000  0.33333333       0.002
   0.08333333  0.08333333  0.33333333       0.005
   0.16666667  0.08333333  0.33333333       0.009
   0.25000000  0.08333333  0.33333333       0.009
   0.33333333  0.08333333  0.33333333       0.009
   0.41666667  0.08333333  0.33333333       0.009
   0.50000000  0.08333333  0.33333333       0.005
   0.16666667  0.16666667  0.33333333       0.005
   0.25000000  0.16666667  0.33333333       0.009
   0.33333333  0.16666667  0.33333333       0.009
   0.41666667  0.16666667  0.33333333       0.009
   0.50000000  0.16666667  0.33333333       0.005
   0.25000000  0.25000000  0.33333333       0.005
   0.33333333  0.25000000  0.33333333       0.009
   0.41666667  0.25000000  0.33333333       0.009
   0.50000000  0.25000000  0.33333333       0.005
   0.33333333  0.33333333  0.33333333       0.005
   0.41666667  0.33333333  0.33333333       0.009
   0.50000000  0.33333333  0.33333333       0.005
   0.41666667  0.41666667  0.33333333       0.005
   0.50000000  0.41666667  0.33333333       0.005
   0.50000000  0.50000000  0.33333333       0.001
   0.00000000  0.00000000  0.41666667       0.001
   0.08333333  0.00000000  0.41666667       0.005
   0.16666667  0.00000000  0.41666667       0.005
   0.25000000  0.00000000  0.41666667       0.005
   0.33333333  0.00000000  0.41666667       0.005
   0.41666667  0.00000000  0.41666667       0.005
   0.50000000  0.00000000  0.41666667       0.002
   0.08333333  0.08333333  0.41666667       0.005
   0.16666667  0.08333333  0.41666667       0.009
   0.25000000  0.08333333  0.41666667       0.009
   0.33333333  0.08333333  0.41666667       0.009
   0.41666667  0.08333333  0.41666667       0.009
   0.50000000  0.08333333  0.41666667       0.005
   0.16666667  0.16666667  0.41666667       0.005
   0.25000000  0.16666667  0.41666667       0.009
   0.33333333  0.16666667  0.41666667       0.009
   0.41666667  0.16666667  0.41666667       0.009
   0.50000000  0.16666667  0.41666667       0.005
   0.25000000  0.25000000  0.41666667       0.005
   0.33333333  0.25000000  0.41666667       0.009
   0.41666667  0.25000000  0.41666667       0.009
   0.50000000  0.25000000  0.41666667       0.005
   0.33333333  0.33333333  0.41666667       0.005
   0.41666667  0.33333333  0.41666667       0.009
   0.50000000  0.33333333  0.41666667       0.005
   0.41666667  0.41666667  0.41666667       0.005
   0.50000000  0.41666667  0.41666667       0.005
   0.50000000  0.50000000  0.41666667       0.001
   0.00000000  0.00000000  0.50000000       0.001
   0.08333333  0.00000000  0.50000000       0.002
   0.16666667  0.00000000  0.50000000       0.002
   0.25000000  0.00000000  0.50000000       0.002
   0.33333333  0.00000000  0.50000000       0.002
   0.41666667  0.00000000  0.50000000       0.002
   0.50000000  0.00000000  0.50000000       0.001
   0.08333333  0.08333333  0.50000000       0.002
   0.16666667  0.08333333  0.50000000       0.005
   0.25000000  0.08333333  0.50000000       0.005
   0.33333333  0.08333333  0.50000000       0.005
   0.41666667  0.08333333  0.50000000       0.005
   0.50000000  0.08333333  0.50000000       0.002
   0.16666667  0.16666667  0.50000000       0.002
   0.25000000  0.16666667  0.50000000       0.005
   0.33333333  0.16666667  0.50000000       0.005
   0.41666667  0.16666667  0.50000000       0.005
   0.50000000  0.16666667  0.50000000       0.002
   0.25000000  0.25000000  0.50000000       0.002
   0.33333333  0.25000000  0.50000000       0.005
   0.41666667  0.25000000  0.50000000       0.005
   0.50000000  0.25000000  0.50000000       0.002
   0.33333333  0.33333333  0.50000000       0.002
   0.41666667  0.33333333  0.50000000       0.005
   0.50000000  0.33333333  0.50000000       0.002
   0.41666667  0.41666667  0.50000000       0.002
   0.50000000  0.41666667  0.50000000       0.002
   0.50000000  0.50000000  0.50000000       0.001
 
 position of ions in fractional coordinates (direct lattice) 
   0.25000000  0.75000000  0.25000000
   0.00000000  0.00000000  0.50000000
   0.25000000  0.25000000  0.75000000
   0.00000000  0.50000000  0.00000000
   0.75000000  0.75000000  0.75000000
   0.50000000  0.00000000  0.00000000
   0.75000000  0.25000000  0.25000000
   0.50000000  0.50000000  0.50000000
 
 position of ions in cartesian coordinates  (Angst):
   0.93270910  2.79812730  0.89749984
   0.00000000  0.00000000  1.79499968
   0.93270910  0.93270910  2.69249952
   0.00000000  1.86541820  0.00000000
   2.79812730  2.79812730  2.69249952
   1.86541820  0.00000000  0.00000000
   2.79812730  0.93270910  0.89749984
   1.86541820  1.86541820  1.79499968
 


--------------------------------------------------------------------------------------------------------


 k-point  1 :   0.0000 0.0000 0.0000  plane waves:     915
 k-point  2 :   0.0833 0.0000 0.0000  plane waves:     913
 k-point  3 :   0.1667 0.0000 0.0000  plane waves:     910
 k-point  4 :   0.2500 0.0000 0.0000  plane waves:     912
 k-point  5 :   0.3333 0.0000 0.0000  plane waves:     898
 k-point  6 :   0.4167 0.0000 0.0000  plane waves:     900
 k-point  7 :   0.5000 0.0000 0.0000  plane waves:     892
 k-point  8 :   0.0833 0.0833 0.0000  plane waves:     921
 k-point  9 :   0.1667 0.0833 0.0000  plane waves:     911
 k-point 10 :   0.2500 0.0833 0.0000  plane waves:     903
 k-point 11 :   0.3333 0.0833 0.0000  plane waves:     906
 k-point 12 :   0.4167 0.0833 0.0000  plane waves:     902
 k-point 13 :   0.5000 0.0833 0.0000  plane waves:     900
 k-point 14 :   0.1667 0.1667 0.0000  plane waves:     905
 k-point 15 :   0.2500 0.1667 0.0000  plane waves:     904
 k-point 16 :   0.3333 0.1667 0.0000  plane waves:     902
 k-point 17 :   0.4167 0.1667 0.0000  plane waves:     899
 k-point 18 :   0.5000 0.1667 0.0000  plane waves:     900
 k-point 19 :   0.2500 0.2500 0.0000  plane waves:     899
 k-point 20 :   0.3333 0.2500 0.0000  plane waves:     901
 k-point 21 :   0.4167 0.2500 0.0000  plane waves:     903
 k-point 22 :   0.5000 0.2500 0.0000  plane waves:     900
 k-point 23 :   0.3333 0.3333 0.0000  plane waves:     916
 k-point 24 :   0.4167 0.3333 0.0000  plane waves:     911
 k-point 25 :   0.5000 0.3333 0.0000  plane waves:     912
 k-point 26 :   0.4167 0.4167 0.0000  plane waves:     918
 k-point 27 :   0.5000 0.4167 0.0000  plane waves:     914
 k-point 28 :   0.5000 0.5000 0.0000  plane waves:     928
 k-point 29 :   0.0000 0.0000 0.0833  plane waves:     919
 k-point 30 :   0.0833 0.0000 0.0833  plane waves:     910
 k-point 31 :   0.1667 0.0000 0.0833  plane waves:     913
 k-point 32 :   0.2500 0.0000 0.0833  plane waves:     906
 k-point 33 :   0.3333 0.0000 0.0833  plane waves:     896
 k-point 34 :   0.4167 0.0000 0.0833  plane waves:     897
 k-point 35 :   0.5000 0.0000 0.0833  plane waves:     890
 k-point 36 :   0.0833 0.0833 0.0833  plane waves:     908
 k-point 37 :   0.1667 0.0833 0.0833  plane waves:     912
 k-point 38 :   0.2500 0.0833 0.0833  plane waves:     906
 k-point 39 :   0.3333 0.0833 0.0833  plane waves:     904
 k-point 40 :   0.4167 0.0833 0.0833  plane waves:     897
 k-point 41 :   0.5000 0.0833 0.0833  plane waves:     904
 k-point 42 :   0.1667 0.1667 0.0833  plane waves:     909
 k-point 43 :   0.2500 0.1667 0.0833  plane waves:     904
 k-point 44 :   0.3333 0.1667 0.0833  plane waves:     903
 k-point 45 :   0.4167 0.1667 0.0833  plane waves:     902
 k-point 46 :   0.5000 0.1667 0.0833  plane waves:     902
 k-point 47 :   0.2500 0.2500 0.0833  plane waves:     900
 k-point 48 :   0.3333 0.2500 0.0833  plane waves:     905
 k-point 49 :   0.4167 0.2500 0.0833  plane waves:     906
 k-point 50 :   0.5000 0.2500 0.0833  plane waves:     910
 k-point 51 :   0.3333 0.3333 0.0833  plane waves:     910
 k-point 52 :   0.4167 0.3333 0.0833  plane waves:     910
 k-point 53 :   0.5000 0.3333 0.0833  plane waves:     908
 k-point 54 :   0.4167 0.4167 0.0833  plane waves:     910
 k-point 55 :   0.5000 0.4167 0.0833  plane waves:     916
 k-point 56 :   0.5000 0.5000 0.0833  plane waves:     912
 k-point 57 :   0.0000 0.0000 0.1667  plane waves:     904
 k-point 58 :   0.0833 0.0000 0.1667  plane waves:     909
 k-point 59 :   0.1667 0.0000 0.1667  plane waves:     903
 k-point 60 :   0.2500 0.0000 0.1667  plane waves:     902
 k-point 61 :   0.3333 0.0000 0.1667  plane waves:     904
 k-point 62 :   0.4167 0.0000 0.1667  plane waves:     906
 k-point 63 :   0.5000 0.0000 0.1667  plane waves:     908
 k-point 64 :   0.0833 0.0833 0.1667  plane waves:     909
 k-point 65 :   0.1667 0.0833 0.1667  plane waves:     905
 k-point 66 :   0.2500 0.0833 0.1667  plane waves:     900
 k-point 67 :   0.3333 0.0833 0.1667  plane waves:     904
 k-point 68 :   0.4167 0.0833 0.1667  plane waves:     903
 k-point 69 :   0.5000 0.0833 0.1667  plane waves:     904
 k-point 70 :   0.1667 0.1667 0.1667  plane waves:     910
 k-point 71 :   0.2500 0.1667 0.1667  plane waves:     903
 k-point 72 :   0.3333 0.1667 0.1667  plane waves:     902
 k-point 73 :   0.4167 0.1667 0.1667  plane waves:     907
 k-point 74 :   0.5000 0.1667 0.1667  plane waves:     906
 k-point 75 :   0.2500 0.2500 0.1667  plane waves:     912
 k-point 76 :   0.3333 0.2500 0.1667  plane waves:     906
 k-point 77 :   0.4167 0.2500 0.1667  plane waves:     912
 k-point 78 :   0.5000 0.2500 0.1667  plane waves:     914
 k-point 79 :   0.3333 0.3333 0.1667  plane waves:     905
 k-point 80 :   0.4167 0.3333 0.1667  plane waves:     906
 k-point 81 :   0.5000 0.3333 0.1667  plane waves:     912
 k-point 82 :   0.4167 0.4167 0.1667  plane waves:     905
 k-point 83 :   0.5000 0.4167 0.1667  plane waves:     910
 k-point 84 :   0.5000 0.5000 0.1667  plane waves:     896
 k-point 85 :   0.0000 0.0000 0.2500  plane waves:     892
 k-point 86 :   0.0833 0.0000 0.2500  plane waves:     908
 k-point 87 :   0.1667 0.0000 0.2500  plane waves:     907
 k-point 88 :   0.2500 0.0000 0.2500  plane waves:     899
 k-point 89 :   0.3333 0.0000 0.2500  plane waves:     907
 k-point 90 :   0.4167 0.0000 0.2500  plane waves:     907
 k-point 91 :   0.5000 0.0000 0.2500  plane waves:     914
 k-point 92 :   0.0833 0.0833 0.2500  plane waves:     904
 k-point 93 :   0.1667 0.0833 0.2500  plane waves:     905
 k-point 94 :   0.2500 0.0833 0.2500  plane waves:     902
 k-point 95 :   0.3333 0.0833 0.2500  plane waves:     905
 k-point 96 :   0.4167 0.0833 0.2500  plane waves:     906
 k-point 97 :   0.5000 0.0833 0.2500  plane waves:     910
 k-point 98 :   0.1667 0.1667 0.2500  plane waves:     902
 k-point 99 :   0.2500 0.1667 0.2500  plane waves:     900
 k-point ** :   0.3333 0.1667 0.2500  plane waves:     909
 k-point ** :   0.4167 0.1667 0.2500  plane waves:     909
 k-point ** :   0.5000 0.1667 0.2500  plane waves:     912
 k-point ** :   0.2500 0.2500 0.2500  plane waves:     911
 k-point ** :   0.3333 0.2500 0.2500  plane waves:     912
 k-point ** :   0.4167 0.2500 0.2500  plane waves:     912
 k-point ** :   0.5000 0.2500 0.2500  plane waves:     916
 k-point ** :   0.3333 0.3333 0.2500  plane waves:     908
 k-point ** :   0.4167 0.3333 0.2500  plane waves:     911
 k-point ** :   0.5000 0.3333 0.2500  plane waves:     910
 k-point ** :   0.4167 0.4167 0.2500  plane waves:     914
 k-point ** :   0.5000 0.4167 0.2500  plane waves:     912
 k-point ** :   0.5000 0.5000 0.2500  plane waves:     912
 k-point ** :   0.0000 0.0000 0.3333  plane waves:     912
 k-point ** :   0.0833 0.0000 0.3333  plane waves:     904
 k-point ** :   0.1667 0.0000 0.3333  plane waves:     903
 k-point ** :   0.2500 0.0000 0.3333  plane waves:     898
 k-point ** :   0.3333 0.0000 0.3333  plane waves:     904
 k-point ** :   0.4167 0.0000 0.3333  plane waves:     905
 k-point ** :   0.5000 0.0000 0.3333  plane waves:     916
 k-point ** :   0.0833 0.0833 0.3333  plane waves:     906
 k-point ** :   0.1667 0.0833 0.3333  plane waves:     906
 k-point ** :   0.2500 0.0833 0.3333  plane waves:     903
 k-point ** :   0.3333 0.0833 0.3333  plane waves:     900
 k-point ** :   0.4167 0.0833 0.3333  plane waves:     904
 k-point ** :   0.5000 0.0833 0.3333  plane waves:     912
 k-point ** :   0.1667 0.1667 0.3333  plane waves:     904
 k-point ** :   0.2500 0.1667 0.3333  plane waves:     907
 k-point ** :   0.3333 0.1667 0.3333  plane waves:     912
 k-point ** :   0.4167 0.1667 0.3333  plane waves:     912
 k-point ** :   0.5000 0.1667 0.3333  plane waves:     914
 k-point ** :   0.2500 0.2500 0.3333  plane waves:     911
 k-point ** :   0.3333 0.2500 0.3333  plane waves:     913
 k-point ** :   0.4167 0.2500 0.3333  plane waves:     913
 k-point ** :   0.5000 0.2500 0.3333  plane waves:     912
 k-point ** :   0.3333 0.3333 0.3333  plane waves:     919
 k-point ** :   0.4167 0.3333 0.3333  plane waves:     916
 k-point ** :   0.5000 0.3333 0.3333  plane waves:     912
 k-point ** :   0.4167 0.4167 0.3333  plane waves:     909
 k-point ** :   0.5000 0.4167 0.3333  plane waves:     908
 k-point ** :   0.5000 0.5000 0.3333  plane waves:     912
 k-point ** :   0.0000 0.0000 0.4167  plane waves:     896
 k-point ** :   0.0833 0.0000 0.4167  plane waves:     894
 k-point ** :   0.1667 0.0000 0.4167  plane waves:     900
 k-point ** :   0.2500 0.0000 0.4167  plane waves:     905
 k-point ** :   0.3333 0.0000 0.4167  plane waves:     906
 k-point ** :   0.4167 0.0000 0.4167  plane waves:     902
 k-point ** :   0.5000 0.0000 0.4167  plane waves:     910
 k-point ** :   0.0833 0.0833 0.4167  plane waves:     897
 k-point ** :   0.1667 0.0833 0.4167  plane waves:     899
 k-point ** :   0.2500 0.0833 0.4167  plane waves:     906
 k-point ** :   0.3333 0.0833 0.4167  plane waves:     906
 k-point ** :   0.4167 0.0833 0.4167  plane waves:     905
 k-point ** :   0.5000 0.0833 0.4167  plane waves:     906
 k-point ** :   0.1667 0.1667 0.4167  plane waves:     899
 k-point ** :   0.2500 0.1667 0.4167  plane waves:     909
 k-point ** :   0.3333 0.1667 0.4167  plane waves:     916
 k-point ** :   0.4167 0.1667 0.4167  plane waves:     915
 k-point ** :   0.5000 0.1667 0.4167  plane waves:     912
 k-point ** :   0.2500 0.2500 0.4167  plane waves:     921
 k-point ** :   0.3333 0.2500 0.4167  plane waves:     919
 k-point ** :   0.4167 0.2500 0.4167  plane waves:     916
 k-point ** :   0.5000 0.2500 0.4167  plane waves:     918
 k-point ** :   0.3333 0.3333 0.4167  plane waves:     915
 k-point ** :   0.4167 0.3333 0.4167  plane waves:     923
 k-point ** :   0.5000 0.3333 0.4167  plane waves:     922
 k-point ** :   0.4167 0.4167 0.4167  plane waves:     919
 k-point ** :   0.5000 0.4167 0.4167  plane waves:     920
 k-point ** :   0.5000 0.5000 0.4167  plane waves:     924
 k-point ** :   0.0000 0.0000 0.5000  plane waves:     892
 k-point ** :   0.0833 0.0000 0.5000  plane waves:     890
 k-point ** :   0.1667 0.0000 0.5000  plane waves:     894
 k-point ** :   0.2500 0.0000 0.5000  plane waves:     918
 k-point ** :   0.3333 0.0000 0.5000  plane waves:     910
 k-point ** :   0.4167 0.0000 0.5000  plane waves:     910
 k-point ** :   0.5000 0.0000 0.5000  plane waves:     908
 k-point ** :   0.0833 0.0833 0.5000  plane waves:     888
 k-point ** :   0.1667 0.0833 0.5000  plane waves:     894
 k-point ** :   0.2500 0.0833 0.5000  plane waves:     906
 k-point ** :   0.3333 0.0833 0.5000  plane waves:     906
 k-point ** :   0.4167 0.0833 0.5000  plane waves:     900
 k-point ** :   0.5000 0.0833 0.5000  plane waves:     900
 k-point ** :   0.1667 0.1667 0.5000  plane waves:     900
 k-point ** :   0.2500 0.1667 0.5000  plane waves:     904
 k-point ** :   0.3333 0.1667 0.5000  plane waves:     920
 k-point ** :   0.4167 0.1667 0.5000  plane waves:     924
 k-point ** :   0.5000 0.1667 0.5000  plane waves:     916
 k-point ** :   0.2500 0.2500 0.5000  plane waves:     914
 k-point ** :   0.3333 0.2500 0.5000  plane waves:     918
 k-point ** :   0.4167 0.2500 0.5000  plane waves:     922
 k-point ** :   0.5000 0.2500 0.5000  plane waves:     912
 k-point ** :   0.3333 0.3333 0.5000  plane waves:     916
 k-point ** :   0.4167 0.3333 0.5000  plane waves:     918
 k-point ** :   0.5000 0.3333 0.5000  plane waves:     916
 k-point ** :   0.4167 0.4167 0.5000  plane waves:     920
 k-point ** :   0.5000 0.4167 0.5000  plane waves:     920
 k-point ** :   0.5000 0.5000 0.5000  plane waves:     920

 maximum and minimum number of plane-waves per node :       244      216

 maximum number of plane-waves:       928
 maximum index in each direction: 
   IXMAX=    6   IYMAX=    6   IZMAX=    5
   IXMIN=   -6   IYMIN=   -6   IZMIN=   -6


 parallel 3D FFT for wavefunctions:
    minimum data exchange during FFTs selected (reduces bandwidth)
 parallel 3D FFT for charge:
    minimum data exchange during FFTs selected (reduces bandwidth)


 total amount of memory used by VASP MPI-rank0    38690. kBytes
=======================================================================

   base      :      30000. kBytes
   nonl-proj :       3041. kBytes
   fftplans  :        346. kBytes
   grid      :        481. kBytes
   one-center:          6. kBytes
   wavefun   :       4816. kBytes
 
     INWAV:  cpu time    0.0004: real time    0.0005
 Broyden mixing: mesh for mixing (old mesh)
   NGX = 13   NGY = 13   NGZ = 11
  (NGX  = 48   NGY  = 48   NGZ  = 48)
  gives a total of   1859 points

 initial charge density was supplied:
 charge density of overlapping atoms calculated
 number of electron      32.0000000 magnetization 
 keeping initial charge density in first step


--------------------------------------------------------------------------------------------------------


 Maximum index for augmentation-charges          259 (set IRDMAX)


--------------------------------------------------------------------------------------------------------


 First call to EWALD:  gamma=   0.481
 Maximum number of real-space cells 3x 3x 3
 Maximum number of reciprocal cells 3x 3x 3

    FEWALD:  cpu time    0.0052: real time    0.0052


--------------------------------------- Iteration      1(   1)  ---------------------------------------


    POTLOK:  cpu time    0.0253: real time    0.0296
    SETDIJ:  cpu time    0.0068: real time    0.0068
     EDDAV:  cpu time    9.0653: real time    9.0730
 BZINTS: Fermi energy: 17.004319; 32.000000 electrons
         Band energy:  98.418001;  BLOECHL correction: -0.221742
       DOS:  cpu time    0.4948: real time    0.4948
    --------------------------------------------
      LOOP:  cpu time    9.5923: real time    9.6043

 eigenvalue-minimisations  :  9416
 total energy-change (2. order) : 0.5542452E+02  (-0.1421532E+04)
 number of electron      32.0000000 magnetization 
 augmentation part       32.0000000 magnetization 

 Free energy of the ion-electron system (eV)
  ---------------------------------------------------
  alpha Z        PSCENC =       104.35784146
  Ewald energy   TEWEN  =     -1348.12260705
  -Hartree energ DENC   =       -79.04368858
  -exchange      EXHF   =         0.00000000
  -V(xc)+E(xc)   XCENC  =       112.00102275
  PAW double counting   =       302.65154477     -311.85538214
  entropy T*S    EENTRO =         0.00000000
  eigenvalues    EBANDS =        98.41800129
  atomic energy  EATOM  =      1177.01779097
  Solvation  Ediel_sol  =         0.00000000
  ---------------------------------------------------
  free energy    TOTEN  =        55.42452346 eV

  energy without entropy =       55.42452346  energy(sigma->0) =       55.42452346


--------------------------------------------------------------------------------------------------------




--------------------------------------- Iteration      1(   2)  ---------------------------------------


     EDDAV:  cpu time   11.2770: real time   11.2782
 BZINTS: Fermi energy:  7.884473; 32.000000 electrons
         Band energy: -26.704556;  BLOECHL correction:  0.000000
       DOS:  cpu time    0.1212: real time    0.1212
    --------------------------------------------
      LOOP:  cpu time   11.3982: real time   11.3994

 eigenvalue-minimisations  : 13032
 total energy-change (2. order) :-0.1251226E+03  (-0.1186846E+03)
 number of electron      32.0000000 magnetization 
 augmentation part       32.0000000 magnetization 

 Free energy of the ion-electron system (eV)
  ---------------------------------------------------
  alpha Z        PSCENC =       104.35784146
  Ewald energy   TEWEN  =     -1348.12260705
  -Hartree energ DENC   =       -79.04368858
  -exchange      EXHF   =         0.00000000
  -V(xc)+E(xc)   XCENC  =       112.00102275
  PAW double counting   =       302.65154477     -311.85538214
  entropy T*S    EENTRO =         0.00000000
  eigenvalues    EBANDS =       -26.70455557
  atomic energy  EATOM  =      1177.01779097
  Solvation  Ediel_sol  =         0.00000000
  ---------------------------------------------------
  free energy    TOTEN  =       -69.69803340 eV

  energy without entropy =      -69.69803340  energy(sigma->0) =      -69.69803340


--------------------------------------------------------------------------------------------------------




--------------------------------------- Iteration      1(   3)  ---------------------------------------


     EDDAV:  cpu time   10.9225: real time   10.9259
 BZINTS: Fermi energy:  7.661868; 32.000000 electrons
         Band energy: -30.935909;  BLOECHL correction:  0.000000
       DOS:  cpu time    0.1346: real time    0.1346
    --------------------------------------------
      LOOP:  cpu time   11.0571: real time   11.0605

 eigenvalue-minimisations  : 12272
 total energy-change (2. order) :-0.4231353E+01  (-0.4210086E+01)
 number of electron      32.0000000 magnetization 
 augmentation part       32.0000000 magnetization 

 Free energy of the ion-electron system (eV)
  ---------------------------------------------------
  alpha Z        PSCENC =       104.35784146
  Ewald energy   TEWEN  =     -1348.12260705
  -Hartree energ DENC   =       -79.04368858
  -exchange      EXHF   =         0.00000000
  -V(xc)+E(xc)   XCENC  =       112.00102275
  PAW double counting   =       302.65154477     -311.85538214
  entropy T*S    EENTRO =         0.00000000
  eigenvalues    EBANDS =       -30.93590862
  atomic energy  EATOM  =      1177.01779097
  Solvation  Ediel_sol  =         0.00000000
  ---------------------------------------------------
  free energy    TOTEN  =       -73.92938645 eV

  energy without entropy =      -73.92938645  energy(sigma->0) =      -73.92938645


--------------------------------------------------------------------------------------------------------




--------------------------------------- Iteration      1(   4)  ---------------------------------------


     EDDAV:  cpu time   10.7403: real time   10.7417
 BZINTS: Fermi energy:  7.625480; 32.000000 electrons
         Band energy: -30.984682;  BLOECHL correction:  0.000000
       DOS:  cpu time    0.1348: real time    0.1348
    --------------------------------------------
      LOOP:  cpu time   10.8751: real time   10.8765

 eigenvalue-minimisations  : 12128
 total energy-change (2. order) :-0.4877316E-01  (-0.4872004E-01)
 number of electron      32.0000000 magnetization 
 augmentation part       32.0000000 magnetization 

 Free energy of the ion-electron system (eV)
  ---------------------------------------------------
  alpha Z        PSCENC =       104.35784146
  Ewald energy   TEWEN  =     -1348.12260705
  -Hartree energ DENC   =       -79.04368858
  -exchange      EXHF   =         0.00000000
  -V(xc)+E(xc)   XCENC  =       112.00102275
  PAW double counting   =       302.65154477     -311.85538214
  entropy T*S    EENTRO =         0.00000000
  eigenvalues    EBANDS =       -30.98468177
  atomic energy  EATOM  =      1177.01779097
  Solvation  Ediel_sol  =         0.00000000
  ---------------------------------------------------
  free energy    TOTEN  =       -73.97815960 eV

  energy without entropy =      -73.97815960  energy(sigma->0) =      -73.97815960


--------------------------------------------------------------------------------------------------------




--------------------------------------- Iteration      1(   5)  ---------------------------------------


     EDDAV:  cpu time   10.8249: real time   10.8262
 BZINTS: Fermi energy:  7.612556; 32.000000 electrons
         Band energy: -30.985707;  BLOECHL correction:  0.000000
       DOS:  cpu time    0.1348: real time    0.1348
    CHARGE:  cpu time    0.2645: real time    0.2646
    MIXING:  cpu time    0.0016: real time    0.0016
    --------------------------------------------
      LOOP:  cpu time   11.2258: real time   11.2271

 eigenvalue-minimisations  : 12272
 total energy-change (2. order) :-0.1025221E-02  (-0.1024793E-02)
 number of electron      32.0000000 magnetization 
 augmentation part        0.7116773 magnetization 

 Broyden mixing:
  rms(total) = 0.84372E+00    rms(broyden)= 0.84360E+00
  rms(prec ) = 0.19265E+01
  weight for this iteration     100.00

 Free energy of the ion-electron system (eV)
  ---------------------------------------------------
  alpha Z        PSCENC =       104.35784146
  Ewald energy   TEWEN  =     -1348.12260705
  -Hartree energ DENC   =       -79.04368858
  -exchange      EXHF   =         0.00000000
  -V(xc)+E(xc)   XCENC  =       112.00102275
  PAW double counting   =       302.65154477     -311.85538214
  entropy T*S    EENTRO =         0.00000000
  eigenvalues    EBANDS =       -30.98570699
  atomic energy  EATOM  =      1177.01779097
  Solvation  Ediel_sol  =         0.00000000
  ---------------------------------------------------
  free energy    TOTEN  =       -73.97918483 eV

  energy without entropy =      -73.97918483  energy(sigma->0) =      -73.97918483


--------------------------------------------------------------------------------------------------------




--------------------------------------- Iteration      1(   6)  ---------------------------------------


    POTLOK:  cpu time    0.0199: real time    0.0481
    SETDIJ:  cpu time    0.0060: real time    0.0060
     EDDAV:  cpu time   10.0868: real time   10.0876
 BZINTS: Fermi energy:  8.185191; 32.000000 electrons
         Band energy: -16.699000;  BLOECHL correction:  0.000000
       DOS:  cpu time    0.1348: real time    0.1348
    CHARGE:  cpu time    0.2663: real time    0.2663
    MIXING:  cpu time    0.0018: real time    0.0018
    --------------------------------------------
      LOOP:  cpu time   10.5156: real time   10.5445

 eigenvalue-minimisations  : 11104
 total energy-change (2. order) : 0.1380400E+01  (-0.9343698E-01)
 number of electron      32.0000000 magnetization 
 augmentation part        0.6970026 magnetization 

 Broyden mixing:
  rms(total) = 0.47053E+00    rms(broyden)= 0.47052E+00
  rms(prec ) = 0.10557E+01
  weight for this iteration     100.00

 eigenvalues of (default mixing * dielectric matrix)
  average eigenvalue GAMMA=   2.2059
  2.2059

 Free energy of the ion-electron system (eV)
  ---------------------------------------------------
  alpha Z        PSCENC =       104.35784146
  Ewald energy   TEWEN  =     -1348.12260705
  -Hartree energ DENC   =       -92.80492955
  -exchange      EXHF   =         0.00000000
  -V(xc)+E(xc)   XCENC  =       113.27666197
  PAW double counting   =       376.79790400     -386.42244716
  entropy T*S    EENTRO =         0.00000000
  eigenvalues    EBANDS =       -16.69899978
  atomic energy  EATOM  =      1177.01779097
  Solvation  Ediel_sol  =         0.00000000
  ---------------------------------------------------
  free energy    TOTEN  =       -72.59878514 eV

  energy without entropy =      -72.59878514  energy(sigma->0) =      -72.59878514


--------------------------------------------------------------------------------------------------------




--------------------------------------- Iteration      1(   7)  ---------------------------------------


    POTLOK:  cpu time    0.0205: real time    0.0209
    SETDIJ:  cpu time    0.0056: real time    0.0056
     EDDAV:  cpu time   10.1445: real time   10.1453
 BZINTS: Fermi energy:  8.841214; 32.000000 electrons
         Band energy:   0.171757;  BLOECHL correction:  0.000000
       DOS:  cpu time    0.1352: real time    0.1352
    CHARGE:  cpu time    0.2619: real time    0.2620
    MIXING:  cpu time    0.0019: real time    0.0019
    --------------------------------------------
      LOOP:  cpu time   10.5697: real time   10.5710

 eigenvalue-minimisations  : 11272
 total energy-change (2. order) : 0.4676392E+00  (-0.1086001E+00)
 number of electron      32.0000000 magnetization 
 augmentation part        0.6812938 magnetization 

 Broyden mixing:
  rms(total) = 0.66318E-01    rms(broyden)= 0.66200E-01
  rms(prec ) = 0.11451E+00
  weight for this iteration     100.00

 eigenvalues of (default mixing * dielectric matrix)
  average eigenvalue GAMMA=   2.2641
  1.9975  2.5308

 Free energy of the ion-electron system (eV)
  ---------------------------------------------------
  alpha Z        PSCENC =       104.35784146
  Ewald energy   TEWEN  =     -1348.12260705
[...]

 k-point   184 :       0.3333    0.1667    0.5000
  band No.  band energies     occupation 
      1      -8.4740      2.00000
      2      -8.4740      2.00000
      3      -6.1039      2.00000
      4      -6.1039      2.00000
      5      -2.4381      2.00000
      6      -2.4381      2.00000
      7      -0.1163      2.00000
      8      -0.1163      2.00000
      9       2.0114      2.00000
     10       2.0114      2.00000
     11       4.0411      2.00000
     12       4.0411      2.00000
     13       4.6116      2.00000
     14       4.6116      2.00000
     15       6.0851      2.00000
     16       6.0851      2.00000
     17      15.1121      0.00000
     18      15.1121      0.00000
     19      16.3887      0.00000
     20      16.3887      0.00000
     21      17.0989      0.00000
     22      17.0989      0.00000
     23      18.0333      0.00000
     24      18.0363      0.00000

 k-point   185 :       0.4167    0.1667    0.5000
  band No.  band energies     occupation 
      1      -7.9951      2.00000
      2      -7.9951      2.00000
      3      -6.7852      2.00000
      4      -6.7852      2.00000
      5      -2.0400      2.00000
      6      -2.0400      2.00000
      7      -0.8563      2.00000
      8      -0.8563      2.00000
      9       2.4891      2.00000
     10       2.4891      2.00000
     11       3.5214      2.00000
     12       3.5214      2.00000
     13       5.3546      2.00000
     14       5.3546      2.00000
     15       6.1348      2.00000
     16       6.1348      2.00000
     17      16.0970      0.00000
     18      16.0970      0.00000
     19      16.1471      0.00000
     20      16.1471      0.00000
     21      16.5706      0.00000
     22      16.5706      0.00000
     23      17.9407      0.00000
     24      17.9457      0.00000

 k-point   186 :       0.5000    0.1667    0.5000
  band No.  band energies     occupation 
      1      -7.4265      2.00000
      2      -7.4265      2.00000
      3      -7.4265      2.00000
      4      -7.4265      2.00000
      5      -1.5038      2.00000
      6      -1.5038      2.00000
      7      -1.5038      2.00000
      8      -1.5038      2.00000
      9       2.9954      2.00000
     10       2.9954      2.00000
     11       2.9954      2.00000
     12       2.9954      2.00000
     13       5.8888      2.00000
     14       5.8888      2.00000
     15       5.8888      2.00000
     16       5.8888      2.00000
     17      16.1794      0.00000
     18      16.1794      0.00000
     19      16.1794      0.00000
     20      16.1794      0.00000
     21      17.2324      0.00000
     22      17.2324      0.00000
     23      17.2324      0.00000
     24      17.2324      0.00000

 k-point   187 :       0.2500    0.2500    0.5000
  band No.  band energies     occupation 
      1      -8.5839      2.00000
      2      -8.5839      2.00000
      3      -5.6401      2.00000
      4      -5.6401      2.00000
      5      -3.0831      2.00000
      6      -3.0831      2.00000
      7      -0.1984      2.00000
      8      -0.1984      2.00000
      9       2.3316      2.00000
     10       2.3316      2.00000
     11       4.2580      2.00000
     12       4.2580      2.00000
     13       4.9413      2.00000
     14       4.9413      2.00000
     15       5.7598      2.00000
     16       5.7598      2.00000
     17      14.5604      0.00000
     18      14.5604      0.00000
     19      16.6928      0.00000
     20      16.6928      0.00000
     21      17.6590      0.00000
     22      17.6618      0.00000
     23      17.6933      0.00000
     24      17.7026      0.00000

 k-point   188 :       0.3333    0.2500    0.5000
  band No.  band energies     occupation 
      1      -8.2127      2.00000
      2      -8.2127      2.00000
      3      -6.0585      2.00000
      4      -6.0585      2.00000
      5      -3.1407      2.00000
      6      -3.1407      2.00000
      7      -1.0287      2.00000
      8      -1.0287      2.00000
      9       2.9748      2.00000
     10       2.9748      2.00000
     11       4.8163      2.00000
     12       4.8163      2.00000
     13       4.8762      2.00000
     14       4.8762      2.00000
     15       5.9843      2.00000
     16       5.9843      2.00000
     17      15.0828      0.00000
     18      15.0828      0.00000
     19      16.4243      0.00000
     20      16.4243      0.00000
     21      17.1319      0.00000
     22      17.1320      0.00000
     23      17.5389      0.00000
     24      17.5534      0.00000

 k-point   189 :       0.4167    0.2500    0.5000
  band No.  band energies     occupation 
      1      -7.7484      2.00000
      2      -7.7484      2.00000
      3      -6.6212      2.00000
      4      -6.6212      2.00000
      5      -2.8761      2.00000
      6      -2.8761      2.00000
      7      -1.7702      2.00000
      8      -1.7702      2.00000
      9       3.5094      2.00000
     10       3.5094      2.00000
     11       4.4409      2.00000
     12       4.4409      2.00000
     13       5.4965      2.00000
     14       5.4965      2.00000
     15       6.1085      2.00000
     16       6.1085      2.00000
     17      15.7974      0.00000
     18      15.7974      0.00000
     19      16.2254      0.00000
     20      16.2254      0.00000
     21      16.6446      0.00000
     22      16.6446      0.00000
     23      17.5574      0.00000
     24      17.6362      0.00000

 k-point   190 :       0.5000    0.2500    0.5000
  band No.  band energies     occupation 
      1      -7.2072      2.00000
      2      -7.2072      2.00000
      3      -7.2072      2.00000
      4      -7.2072      2.00000
      5      -2.3975      2.00000
      6      -2.3975      2.00000
      7      -2.3975      2.00000
      8      -2.3975      2.00000
      9       3.9948      2.00000
     10       3.9948      2.00000
     11       3.9948      2.00000
     12       3.9948      2.00000
     13       5.9442      2.00000
     14       5.9442      2.00000
     15       5.9442      2.00000
     16       5.9442      2.00000
     17      16.2133      0.00000
     18      16.2133      0.00000
     19      16.2133      0.00000
     20      16.2133      0.00000
     21      16.8450      0.00000
     22      16.8450      0.00000
     23      16.8450      0.00000
     24      16.8453      0.00000

 k-point   191 :       0.3333    0.3333    0.5000
  band No.  band energies     occupation 
      1      -7.8566      2.00000
      2      -7.8566      2.00000
      3      -6.1528      2.00000
      4      -6.1528      2.00000
      5      -3.5380      2.00000
      6      -3.5380      2.00000
      7      -1.8631      2.00000
      8      -1.8631      2.00000
      9       3.7878      2.00000
     10       3.7878      2.00000
     11       5.2312      2.00000
     12       5.2312      2.00000
     13       5.2594      2.00000
     14       5.2594      2.00000
     15       5.9679      2.00000
     16       5.9679      2.00000
     17      15.2236      0.00000
     18      15.2236      0.00000
     19      16.3955      0.00000
     20      16.3955      0.00000
     21      17.0907      0.00000
     22      17.1264      0.00000
     23      17.1915      0.00000
     24      17.2154      0.00000

 k-point   192 :       0.4167    0.3333    0.5000
  band No.  band energies     occupation 
      1      -7.4209      2.00000
      2      -7.4209      2.00000
      3      -6.4730      2.00000
      4      -6.4730      2.00000
      5      -3.5216      2.00000
      6      -3.5216      2.00000
      7      -2.5884      2.00000
      8      -2.5884      2.00000
      9       4.3953      2.00000
     10       4.3953      2.00000
     11       5.1481      2.00000
     12       5.1481      2.00000
     13       5.6924      2.00000
     14       5.6924      2.00000
     15       6.0835      2.00000
     16       6.0835      2.00000
     17      15.5763      0.00000
     18      15.5763      0.00000
     19      16.2900      0.00000
     20      16.2900      0.00000
     21      16.6775      0.00000
     22      16.6775      0.00000
     23      16.9181      0.00000
     24      16.9181      0.00000

 k-point   193 :       0.5000    0.3333    0.5000
  band No.  band energies     occupation 
      1      -6.9368      2.00000
      2      -6.9368      2.00000
      3      -6.9368      2.00000
      4      -6.9368      2.00000
      5      -3.1649      2.00000
      6      -3.1649      2.00000
      7      -3.1649      2.00000
      8      -3.1649      2.00000
      9       4.8358      2.00000
     10       4.8358      2.00000
     11       4.8358      2.00000
     12       4.8358      2.00000
     13       6.0135      2.00000
     14       6.0135      2.00000
     15       6.0135      2.00000
     16       6.0135      2.00000
     17      16.0730      0.00000
     18      16.0730      0.00000
     19      16.0730      0.00000
     20      16.0730      0.00000
     21      16.5134      0.00000
     22      16.5134      0.00000
     23      16.5134      0.00000
     24      16.5134      0.00000

 k-point   194 :       0.4167    0.4167    0.5000
  band No.  band energies     occupation 
      1      -7.0428      2.00000
      2      -7.0428      2.00000
      3      -6.4639      2.00000
      4      -6.4639      2.00000
      5      -3.8357      2.00000
      6      -3.8357      2.00000
      7      -3.2643      2.00000
      8      -3.2643      2.00000
      9       5.0290      2.00000
     10       5.0290      2.00000
     11       5.4627      2.00000
     12       5.4627      2.00000
     13       5.9263      2.00000
     14       5.9263      2.00000
     15       6.1119      2.00000
     16       6.1119      2.00000
     17      15.5314      0.00000
     18      15.5314      0.00000
     19      16.2143      0.00000
     20      16.2143      0.00000
     21      16.3307      0.00000
     22      16.3307      0.00000
     23      16.5443      0.00000
     24      16.5444      0.00000

 k-point   195 :       0.5000    0.4167    0.5000
  band No.  band energies     occupation 
      1      -6.6821      2.00000
      2      -6.6821      2.00000
      3      -6.6821      2.00000
      4      -6.6821      2.00000
      5      -3.7223      2.00000
      6      -3.7223      2.00000
      7      -3.7223      2.00000
      8      -3.7223      2.00000
      9       5.3793      2.00000
     10       5.3793      2.00000
     11       5.3793      2.00000
     12       5.3793      2.00000
     13       6.1022      2.00000
     14       6.1022      2.00000
     15       6.1022      2.00000
     16       6.1022      2.00000
     17      15.7389      0.00000
     18      15.7389      0.00000
     19      15.7389      0.00000
     20      15.7389      0.00000
     21      16.3865      0.00000
     22      16.3865      0.00000
     23      16.3865      0.00000
     24      16.3865      0.00000

 k-point   196 :       0.5000    0.5000    0.5000
  band No.  band energies     occupation 
      1      -6.5681      2.00000
      2      -6.5681      2.00000
      3      -6.5681      2.00000
      4      -6.5681      2.00000
      5      -3.9379      2.00000
      6      -3.9379      2.00000
      7      -3.9379      2.00000
      8      -3.9379      2.00000
      9       5.5513      2.00000
     10       5.5513      2.00000
     11       5.5513      2.00000
     12       5.5513      2.00000
     13       6.1615      2.00000
     14       6.1615      2.00000
     15       6.1615      2.00000
     16       6.1615      2.00000
     17      15.5877      0.00000
     18      15.5877      0.00000
     19      15.5877      0.00000
     20      15.5877      0.00000
     21      16.3396      0.00000
     22      16.3396      0.00000
     23      16.3396      0.00000
     24      16.3396      0.00000


--------------------------------------------------------------------------------------------------------


 soft charge-density along one line, spin component           1
         0         1         2         3         4         5         6         7         8         9
 total charge-density along one line
 
 pseudopotential strength for first ion, spin component:           1
  9.514  -0.002   0.000   0.000   0.000  -0.000  -0.000  -0.000
 -0.002  -0.002  -0.000  -0.000  -0.000  -0.000  -0.000   0.000
  0.000  -0.000  -3.737  -0.000  -0.000  -0.006  -0.000  -0.000
  0.000  -0.000  -0.000  -3.736   0.000  -0.000  -0.006   0.000
  0.000  -0.000  -0.000   0.000  -3.737  -0.000   0.000  -0.006
 -0.000  -0.000  -0.006  -0.000  -0.000  -0.759  -0.000  -0.000
 -0.000  -0.000  -0.000  -0.006   0.000  -0.000  -0.759   0.000
 -0.000   0.000  -0.000   0.000  -0.006  -0.000   0.000  -0.759
 total augmentation occupancy for first ion, spin component:           1
  1.417  -0.903   0.000  -0.000  -0.000   0.000   0.000   0.000
 -0.903   0.841   0.000   0.000   0.000   0.000  -0.000  -0.000
  0.000   0.000   1.042   0.000   0.000   0.169  -0.000   0.000
  0.000   0.000  -0.000   1.054   0.000   0.000   0.165   0.000
 -0.000   0.000   0.000   0.000   1.042   0.000  -0.000   0.169
  0.000   0.000   0.169   0.000   0.000   0.032  -0.000  -0.000
  0.000  -0.000  -0.000   0.165  -0.000  -0.000   0.030   0.000
  0.000  -0.000   0.000   0.000   0.169   0.000  -0.000   0.032


------------------------ aborting loop because EDIFF is reached ----------------------------------------


    CHARGE:  cpu time    0.2599: real time    0.2599
    FORLOC:  cpu time    0.0019: real time    0.0019
    FORNL :  cpu time    0.4627: real time    0.4628
    STRESS:  cpu time    1.0985: real time    1.0988
    FORHAR:  cpu time    0.0054: real time    0.0054
    MIXING:  cpu time    0.0021: real time    0.0021
    OFIELD:  cpu time    0.0001: real time    0.0001

  FORCE on cell =-STRESS in cart. coord.  units (eV):
  Direction    XX          YY          ZZ          XY          YZ          ZX
  --------------------------------------------------------------------------------------
  Alpha Z   104.35784   104.35784   104.35784
  Ewald    -441.45908  -441.45908  -465.20648    -0.00000     0.00000     0.00000
  Hartree    38.75305    38.75305    33.31690    -0.00000    -0.00000    -0.00000
  E(xc)    -117.05867  -117.05867  -117.24069     0.00000     0.00000     0.00000
  Local     -62.38107   -62.38107   -34.69421    -0.00000     0.00000     0.00000
  n-local   -24.07805   -23.80405   -24.92846     0.64919     0.74380     0.62302
  augment    -2.49087    -2.49087    -2.47712    -0.00000    -0.00000     0.00000
  Kinetic   485.90868   492.85029   501.66973    -4.72071    -5.40421    -4.25790
  Fock        0.00000     0.00000     0.00000     0.00000     0.00000     0.00000
  -------------------------------------------------------------------------------------
  Total     -14.84036   -14.84036    -5.20248     0.00000     0.00000     0.00000
  in kB    -475.82600  -475.82600  -166.80707     0.00000     0.00000     0.00000
  external pressure =     -372.82 kB  Pullay stress =        0.00 kB


 VOLUME and BASIS-vectors are now :
 -----------------------------------------------------------------------------
  energy-cutoff  :      400.00
  volume of cell :       49.97
      direct lattice vectors                 reciprocal lattice vectors
     3.730836397  0.000000000  0.000000000     0.268036412  0.000000000  0.000000000
     0.000000000  3.730836397  0.000000000     0.000000000  0.268036412  0.000000000
     0.000000000  0.000000000  3.589999359     0.000000000  0.000000000  0.278551582

  length of vectors
     3.730836397  3.730836397  3.589999359     0.268036412  0.268036412  0.278551582


 FORCES acting on ions
    electron-ion (+dipol)            ewald-force                    non-local-force                 convergence-correction
 -----------------------------------------------------------------------------------------------
   0.457E-13 -.146E-12 -.911E-15   0.711E-14 0.711E-14 0.213E-13   -.510E-17 -.929E-17 0.525E-17   0.119E-14 -.146E-14 0.954E-15
   -.381E-13 0.135E-14 0.124E-13   -.906E-14 0.653E-14 0.198E-16   0.592E-17 0.242E-17 0.141E-16   0.204E-14 0.317E-14 0.573E-14
   0.457E-13 -.172E-12 0.241E-13   0.711E-14 0.000E+00 0.142E-13   0.117E-16 0.638E-19 -.144E-16   0.800E-15 -.210E-14 0.188E-14
   -.381E-13 0.223E-13 -.976E-14   -.919E-14 -.252E-16 -.737E-14   0.564E-18 0.672E-18 -.997E-17   0.191E-14 0.288E-14 0.481E-14
   0.838E-13 0.202E-12 0.394E-12   -.711E-14 0.000E+00 0.711E-14   -.121E-16 0.156E-17 -.121E-16   -.551E-14 -.316E-14 0.261E-14
   -.152E-13 0.458E-14 -.434E-12   0.452E-16 -.161E-15 -.145E-13   -.515E-17 0.120E-16 -.969E-17   0.285E-14 0.219E-14 0.668E-14
   0.838E-13 -.199E-12 -.107E-13   0.000E+00 -.711E-14 0.000E+00   0.226E-17 0.155E-18 0.641E-17   -.570E-14 -.342E-14 0.186E-14
   -.229E-13 0.371E-12 0.709E-14   0.701E-14 -.702E-14 -.213E-13   0.304E-17 -.304E-17 0.140E-16   0.291E-14 0.200E-14 0.680E-14
 -----------------------------------------------------------------------------------------------
   0.145E-12 0.838E-13 -.175E-13   -.409E-14 -.670E-15 -.514E-15   0.111E-17 0.453E-17 -.647E-17   0.486E-15 0.967E-16 0.313E-13
 
 
 POSITION                                       TOTAL-FORCE (eV/Angst)
 -----------------------------------------------------------------------------------
      0.93271      2.79813      0.89750        -0.000000     -0.000000      0.000000
      0.00000      0.00000      1.79500         0.000000      0.000000      0.000000
      0.93271      0.93271      2.69250        -0.000000     -0.000000     -0.000000
      0.00000      1.86542      0.00000        -0.000000      0.000000      0.000000
      2.79813      2.79813      2.69250         0.000000     -0.000000      0.000000
      1.86542      0.00000      0.00000         0.000000      0.000000     -0.000000
      2.79813      0.93271      0.89750        -0.000000     -0.000000     -0.000000
      1.86542      1.86542      1.79500         0.000000      0.000000     -0.000000
 -----------------------------------------------------------------------------------
    total drift:                                0.000000      0.000000      0.000000


--------------------------------------------------------------------------------------------------------



  FREE ENERGIE OF THE ION-ELECTRON SYSTEM (eV)
  ---------------------------------------------------
  free  energy   TOTEN  =       -72.13769984 eV

  energy  without entropy=      -72.13769984  energy(sigma->0) =      -72.13769984
 


--------------------------------------------------------------------------------------------------------


    POTLOK:  cpu time    0.0263: real time    0.0264


--------------------------------------------------------------------------------------------------------


     LOOP+:  cpu time  119.2617: real time  119.5753
    4ORBIT:  cpu time    0.0000: real time    0.0000
 BZINTS: Fermi energy:  8.786882; 32.000000 electrons
         Band energy:   0.349030;  BLOECHL correction:  0.000000

 total amount of memory used by VASP MPI-rank0    38690. kBytes
=======================================================================

   base      :      30000. kBytes
   nonl-proj :       3041. kBytes
   fftplans  :        346. kBytes
   grid      :        481. kBytes
   one-center:          6. kBytes
   wavefun   :       4816. kBytes
 
  
  
 General timing and accounting informations for this job:
 ========================================================
  
                  Total CPU time used (sec):      123.009
                            User time (sec):      119.328
                          System time (sec):        3.681
                         Elapsed time (sec):      123.480
  
                   Maximum memory used (kb):      195740.
                   Average memory used (kb):           0.
  
                          Minor page faults:        36864
                          Major page faults:           36
                 Voluntary context switches:          786
