   8   8   0   0
  0.5691087E+01  0.3573710E-09  0.3573710E-09  0.3573710E-09  0.2000000E-16
  1.000000000000000E-004
  CAR 
 unknown system                          
     23.93710658    -13.44106920  301      9.86578082      1.00000000
    -13.441  0.0000E+00  0.0000E+00
    -13.316  0.0000E+00  0.0000E+00
    -13.192  0.0000E+00  0.0000E+00
    -13.067  0.0000E+00  0.0000E+00
    -12.943  0.0000E+00  0.0000E+00
    -12.818  0.0000E+00  0.0000E+00
    -12.694  0.0000E+00  0.0000E+00
    -12.569  0.0000E+00  0.0000E+00
    -12.444  0.0000E+00  0.0000E+00
    -12.320  0.0000E+00  0.0000E+00
    -12.195  0.0000E+00  0.0000E+00
    -12.071  0.0000E+00  0.0000E+00
    -11.946  0.0000E+00  0.0000E+00
    -11.821  0.0000E+00  0.0000E+00
    -11.697  0.3717E-01  0.5614E-03
    -11.572  0.1565E+00  0.1559E-01
    -11.448  0.2433E+00  0.4073E-01
    -11.323  0.2769E+00  0.7273E-01
    -11.198  0.3262E+00  0.1103E+00
    -11.074  0.3633E+00  0.1537E+00
    -10.949  0.3939E+00  0.2009E+00
    -10.825  0.4278E+00  0.2520E+00
    -10.700  0.4660E+00  0.3077E+00
    -10.575  0.4876E+00  0.3671E+00
    -10.451  0.5120E+00  0.4294E+00
    -10.326  0.5394E+00  0.4948E+00
    -10.202  0.5684E+00  0.5638E+00
    -10.077  0.5933E+00  0.6364E+00
     -9.952  0.6158E+00  0.7116E+00
     -9.828  0.6413E+00  0.7899E+00
     -9.703  0.6714E+00  0.8717E+00
     -9.579  0.7048E+00  0.9574E+00
     -9.454  0.7399E+00  0.1047E+01
     -9.329  0.7316E+00  0.1138E+01
     -9.205  0.7366E+00  0.1229E+01
     -9.080  0.7550E+00  0.1322E+01
     -8.956  0.7736E+00  0.1417E+01
     -8.831  0.7986E+00  0.1515E+01
     -8.707  0.8227E+00  0.1616E+01
     -8.582  0.8407E+00  0.1720E+01
     -8.457  0.8645E+00  0.1826E+01
     -8.333  0.8883E+00  0.1936E+01
     -8.208  0.9105E+00  0.2048E+01
     -8.084  0.9253E+00  0.2162E+01
     -7.959  0.9361E+00  0.2278E+01
     -7.834  0.9642E+00  0.2396E+01
     -7.710  0.1072E+01  0.2522E+01
     -7.585  0.1105E+01  0.2659E+01
     -7.461  0.1102E+01  0.2796E+01
     -7.336  0.1053E+01  0.2931E+01
     -7.211  0.1061E+01  0.3063E+01
     -7.087  0.1057E+01  0.3195E+01
     -6.962  0.1109E+01  0.3330E+01
     -6.838  0.1183E+01  0.3472E+01
     -6.713  0.1177E+01  0.3621E+01
     -6.588  0.1195E+01  0.3769E+01
     -6.464  0.1280E+01  0.3925E+01
     -6.339  0.1333E+01  0.4087E+01
     -6.215  0.1430E+01  0.4261E+01
     -6.090  0.1483E+01  0.4438E+01
     -5.965  0.1527E+01  0.4627E+01
     -5.841  0.1413E+01  0.4810E+01
     -5.716  0.1357E+01  0.4981E+01
     -5.592  0.1363E+01  0.5152E+01
     -5.467  0.1440E+01  0.5327E+01
     -5.342  0.1387E+01  0.5501E+01
     -5.218  0.1319E+01  0.5670E+01
     -5.093  0.1301E+01  0.5833E+01
     -4.969  0.1280E+01  0.5994E+01
     -4.844  0.1260E+01  0.6152E+01
     -4.719  0.1219E+01  0.6308E+01
     -4.595  0.1149E+01  0.6454E+01
     -4.470  0.1089E+01  0.6594E+01
     -4.346  0.1184E+01  0.6732E+01
     -4.221  0.1077E+01  0.6874E+01
     -4.097  0.1087E+01  0.7008E+01
     -3.972  0.1027E+01  0.7138E+01
     -3.847  0.9953E+00  0.7265E+01
     -3.723  0.9302E+00  0.7386E+01
     -3.598  0.8874E+00  0.7499E+01
     -3.474  0.9668E+00  0.7612E+01
     -3.349  0.9871E+00  0.7738E+01
     -3.224  0.1071E+01  0.7872E+01
     -3.100  0.1021E+01  0.8004E+01
     -2.975  0.8407E+00  0.8122E+01
     -2.851  0.8543E+00  0.8224E+01
     -2.726  0.8536E+00  0.8329E+01
     -2.601  0.8200E+00  0.8429E+01
     -2.477  0.9356E+00  0.8538E+01
     -2.352  0.1093E+01  0.8664E+01
     -2.228  0.1329E+01  0.8813E+01
     -2.103  0.1743E+01  0.9007E+01
     -1.978  0.1922E+01  0.9239E+01
     -1.854  0.2035E+01  0.9484E+01
     -1.729  0.2396E+01  0.9758E+01
     -1.605  0.2435E+01  0.1008E+02
     -1.480  0.2347E+01  0.1038E+02
     -1.355  0.2144E+01  0.1066E+02
     -1.231  0.1870E+01  0.1091E+02
     -1.106  0.1755E+01  0.1114E+02
     -0.982  0.1555E+01  0.1134E+02
     -0.857  0.1471E+01  0.1153E+02
     -0.732  0.1412E+01  0.1171E+02
     -0.608  0.1357E+01  0.1188E+02
     -0.483  0.1250E+01  0.1204E+02
     -0.359  0.1215E+01  0.1220E+02
     -0.234  0.1185E+01  0.1235E+02
     -0.110  0.1188E+01  0.1249E+02
      0.015  0.1207E+01  0.1264E+02
      0.140  0.1068E+01  0.1278E+02
      0.264  0.9844E+00  0.1291E+02
      0.389  0.1060E+01  0.1304E+02
      0.513  0.1197E+01  0.1318E+02
      0.638  0.1547E+01  0.1335E+02
      0.763  0.1746E+01  0.1355E+02
      0.887  0.2233E+01  0.1380E+02
      1.012  0.2216E+01  0.1408E+02
      1.136  0.2167E+01  0.1435E+02
      1.261  0.2205E+01  0.1462E+02
      1.386  0.2264E+01  0.1489E+02
      1.510  0.2163E+01  0.1517E+02
      1.635  0.1885E+01  0.1543E+02
      1.759  0.1461E+01  0.1563E+02
      1.884  0.1485E+01  0.1581E+02
      2.009  0.1631E+01  0.1600E+02
      2.133  0.2256E+01  0.1625E+02
      2.258  0.2510E+01  0.1656E+02
      2.382  0.2322E+01  0.1685E+02
      2.507  0.2254E+01  0.1714E+02
      2.632  0.2319E+01  0.1742E+02
      2.756  0.2336E+01  0.1771E+02
      2.881  0.2593E+01  0.1802E+02
      3.005  0.2991E+01  0.1838E+02
      3.130  0.2826E+01  0.1874E+02
      3.255  0.2581E+01  0.1907E+02
      3.379  0.2672E+01  0.1940E+02
      3.504  0.2666E+01  0.1973E+02
      3.628  0.2783E+01  0.2007E+02
      3.753  0.3032E+01  0.2042E+02
      3.877  0.3381E+01  0.2082E+02
      4.002  0.3251E+01  0.2124E+02
      4.127  0.3113E+01  0.2164E+02
      4.251  0.3074E+01  0.2202E+02
      4.376  0.2892E+01  0.2240E+02
      4.500  0.2838E+01  0.2276E+02
      4.625  0.2767E+01  0.2311E+02
      4.750  0.2895E+01  0.2346E+02
      4.874  0.3137E+01  0.2384E+02
      4.999  0.2858E+01  0.2421E+02
      5.123  0.2839E+01  0.2456E+02
      5.248  0.2942E+01  0.2492E+02
      5.373  0.2957E+01  0.2529E+02
      5.497  0.2788E+01  0.2565E+02
      5.622  0.2661E+01  0.2599E+02
      5.746  0.2443E+01  0.2631E+02
      5.871  0.2645E+01  0.2662E+02
      5.996  0.2680E+01  0.2696E+02
      6.120  0.2729E+01  0.2730E+02
      6.245  0.2689E+01  0.2764E+02
      6.369  0.2741E+01  0.2798E+02
      6.494  0.2508E+01  0.2832E+02
      6.619  0.2377E+01  0.2862E+02
      6.743  0.2230E+01  0.2890E+02
      6.868  0.2198E+01  0.2917E+02
      6.992  0.2157E+01  0.2944E+02
      7.117  0.2267E+01  0.2972E+02
      7.242  0.1959E+01  0.2999E+02
      7.366  0.1664E+01  0.3021E+02
      7.491  0.1488E+01  0.3041E+02
      7.615  0.1363E+01  0.3059E+02
      7.740  0.1263E+01  0.3075E+02
      7.864  0.1165E+01  0.3090E+02
      7.989  0.1053E+01  0.3104E+02
      8.114  0.9593E+00  0.3116E+02
      8.238  0.8896E+00  0.3128E+02
      8.363  0.8367E+00  0.3139E+02
      8.487  0.7827E+00  0.3149E+02
      8.612  0.6803E+00  0.3158E+02
      8.737  0.6070E+00  0.3166E+02
      8.861  0.5682E+00  0.3173E+02
      8.986  0.5075E+00  0.3180E+02
      9.110  0.3979E+00  0.3186E+02
      9.235  0.3685E+00  0.3190E+02
      9.360  0.3442E+00  0.3195E+02
      9.484  0.1587E+00  0.3198E+02
      9.609  0.1403E+00  0.3199E+02
      9.733  0.1911E-02  0.3200E+02
      9.858  0.0000E+00  0.3200E+02
      9.983  0.0000E+00  0.3200E+02
     10.107  0.0000E+00  0.3200E+02
     10.232  0.0000E+00  0.3200E+02
     10.356  0.0000E+00  0.3200E+02
     10.481  0.0000E+00  0.3200E+02
     10.606  0.0000E+00  0.3200E+02
     10.730  0.0000E+00  0.3200E+02
     10.855  0.0000E+00  0.3200E+02
     10.979  0.0000E+00  0.3200E+02
     11.104  0.0000E+00  0.3200E+02
     11.229  0.0000E+00  0.3200E+02
     11.353  0.0000E+00  0.3200E+02
     11.478  0.0000E+00  0.3200E+02
     11.602  0.0000E+00  0.3200E+02
     11.727  0.0000E+00  0.3200E+02
     11.851  0.0000E+00  0.3200E+02
     11.976  0.0000E+00  0.3200E+02
     12.101  0.0000E+00  0.3200E+02
     12.225  0.0000E+00  0.3200E+02
     12.350  0.0000E+00  0.3200E+02
     12.474  0.0000E+00  0.3200E+02
     12.599  0.0000E+00  0.3200E+02
     12.724  0.0000E+00  0.3200E+02
     12.848  0.0000E+00  0.3200E+02
     12.973  0.0000E+00  0.3200E+02
     13.097  0.0000E+00  0.3200E+02
     13.222  0.0000E+00  0.3200E+02
     13.347  0.0000E+00  0.3200E+02
     13.471  0.0000E+00  0.3200E+02
     13.596  0.0000E+00  0.3200E+02
     13.720  0.1684E+00  0.3201E+02
     13.845  0.4192E+00  0.3204E+02
     13.970  0.5215E+00  0.3211E+02
     14.094  0.5901E+00  0.3218E+02
     14.219  0.6903E+00  0.3226E+02
     14.343  0.7332E+00  0.3235E+02
     14.468  0.8264E+00  0.3244E+02
     14.593  0.9510E+00  0.3256E+02
     14.717  0.1110E+01  0.3268E+02
     14.842  0.1297E+01  0.3284E+02
     14.966  0.1325E+01  0.3300E+02
     15.091  0.1367E+01  0.3317E+02
     15.216  0.1397E+01  0.3334E+02
     15.340  0.1460E+01  0.3352E+02
     15.465  0.1610E+01  0.3371E+02
     15.589  0.1730E+01  0.3391E+02
     15.714  0.1822E+01  0.3414E+02
     15.839  0.1853E+01  0.3436E+02
     15.963  0.1983E+01  0.3460E+02
     16.088  0.2180E+01  0.3486E+02
     16.212  0.2223E+01  0.3513E+02
     16.337  0.2212E+01  0.3541E+02
     16.461  0.2294E+01  0.3569E+02
     16.586  0.2418E+01  0.3598E+02
     16.711  0.2567E+01  0.3629E+02
     16.835  0.2668E+01  0.3662E+02
     16.960  0.2938E+01  0.3696E+02
     17.084  0.3236E+01  0.3735E+02
     17.209  0.3428E+01  0.3776E+02
     17.334  0.3613E+01  0.3821E+02
     17.458  0.3788E+01  0.3865E+02
     17.583  0.3855E+01  0.3913E+02
     17.707  0.4142E+01  0.3967E+02
     17.832  0.3658E+01  0.4016E+02
     17.957  0.3762E+01  0.4064E+02
     18.081  0.3573E+01  0.4109E+02
     18.206  0.3581E+01  0.4155E+02
     18.330  0.3099E+01  0.4196E+02
     18.455  0.3110E+01  0.4235E+02
     18.580  0.2923E+01  0.4272E+02
     18.704  0.2715E+01  0.4307E+02
     18.829  0.2727E+01  0.4341E+02
     18.953  0.2857E+01  0.4375E+02
     19.078  0.3243E+01  0.4413E+02
     19.203  0.3173E+01  0.4453E+02
     19.327  0.2919E+01  0.4491E+02
     19.452  0.2619E+01  0.4526E+02
     19.576  0.2719E+01  0.4559E+02
     19.701  0.2869E+01  0.4594E+02
     19.826  0.2860E+01  0.4630E+02
     19.950  0.2884E+01  0.4666E+02
     20.075  0.2758E+01  0.4700E+02
     20.199  0.2258E+01  0.4732E+02
     20.324  0.1631E+01  0.4755E+02
     20.448  0.1121E+01  0.4772E+02
     20.573  0.6242E+00  0.4783E+02
     20.698  0.3381E+00  0.4789E+02
     20.822  0.2048E+00  0.4792E+02
     20.947  0.1489E+00  0.4794E+02
     21.071  0.1158E+00  0.4796E+02
     21.196  0.9565E-01  0.4797E+02
     21.321  0.7904E-01  0.4798E+02
     21.445  0.4029E-01  0.4799E+02
     21.570  0.2429E-01  0.4799E+02
     21.694  0.1494E-01  0.4800E+02
     21.819  0.8865E-02  0.4800E+02
     21.944  0.4364E-02  0.4800E+02
     22.068  0.1442E-02  0.4800E+02
     22.193  0.9773E-04  0.4800E+02
     22.317  0.0000E+00  0.4800E+02
     22.442  0.0000E+00  0.4800E+02
     22.567  0.0000E+00  0.4800E+02
     22.691  0.0000E+00  0.4800E+02
     22.816  0.0000E+00  0.4800E+02
     22.940  0.0000E+00  0.4800E+02
     23.065  0.0000E+00  0.4800E+02
     23.190  0.0000E+00  0.4800E+02
     23.314  0.0000E+00  0.4800E+02
     23.439  0.0000E+00  0.4800E+02
     23.563  0.0000E+00  0.4800E+02
     23.688  0.0000E+00  0.4800E+02
     23.813  0.0000E+00  0.4800E+02
     23.937  0.0000E+00  0.4800E+02
