       N       E                     dE             d eps       ncg     rms          rms(c)
DAV:   1     0.578547415666E+02    0.57855E+02   -0.14426E+04  9072   0.105E+03
DAV:   2    -0.707217509340E+02   -0.12858E+03   -0.12189E+03 12544   0.221E+02
DAV:   3    -0.748697881972E+02   -0.41480E+01   -0.41278E+01 11896   0.373E+01
DAV:   4    -0.749112095986E+02   -0.41421E-01   -0.41390E-01 11200   0.412E+00
DAV:   5    -0.749120573719E+02   -0.84777E-03   -0.84744E-03 11848   0.526E-01    0.955E+00
DAV:   6    -0.729782480353E+02    0.19338E+01   -0.12934E+00 10264   0.656E+00    0.523E+00
DAV:   7    -0.723285248472E+02    0.64972E+00   -0.14784E+00 10792   0.721E+00    0.709E-01
DAV:   8    -0.723364206532E+02   -0.78958E-02   -0.35466E-02 11328   0.112E+00    0.770E-02
DAV:   9    -0.723366632104E+02   -0.24256E-03   -0.47470E-04 11248   0.148E-01    0.325E-02
DAV:  10    -0.723367229447E+02   -0.59734E-04   -0.42717E-05 11288   0.488E-02    0.372E-03
DAV:  11    -0.723367249077E+02   -0.19630E-05   -0.13955E-06  8624   0.900E-03    0.965E-04
DAV:  12    -0.723367248479E+02    0.59753E-07   -0.14197E-07  8136   0.267E-03
   1 F= -.72336725E+02 E0= -.72336725E+02  d E =0.000000E+00
