 vasp.5.4.4.18Apr17-6-g9f103f2a35 (build Mar 12 2022 03:36:41) complex          
  
 executed on IFC19.0.3.199_CrayMP date 2022.11.30  12:36:34
 running on   16 total cores
 distrk:  each k-point on   16 cores,    1 groups
 distr:  one band on NCORES_PER_BAND=   4 cores,    4 groups


--------------------------------------------------------------------------------------------------------


 INCAR:
 POTCAR:   PAW_PBE C 08Apr2002                    
 POTCAR:   PAW_PBE C 08Apr2002                    
   VRHFIN =C: s2p2                                                              
   LEXCH  = PE                                                                  
   EATOM  =   147.1560 eV,   10.8157 Ry                                         
                                                                                
   TITEL  = PAW_PBE C 08Apr2002                                                 
   LULTRA =        F    use ultrasoft PP ?                                      
   IUNSCR =        0    unscreen: 0-lin 1-nonlin 2-no                           
   RPACOR =     .000    partial core radius                                     
   POMASS =   12.011; ZVAL   =    4.000    mass and valenz                      
   RCORE  =    1.500    outmost cutoff radius                                   
   RWIGS  =    1.630; RWIGS  =     .863    wigner-seitz radius (au A)           
   ENMAX  =  400.000; ENMIN  =  300.000 eV                                      
   ICORE  =        2    local potential                                         
   LCOR   =        T    correct aug charges                                     
   LPAW   =        T    paw PP                                                  
   EAUG   =  644.873                                                            
   DEXC   =     .000                                                            
   RMAX   =    2.266    core radius for proj-oper                               
   RAUG   =    1.300    factor for augmentation sphere                          
   RDEP   =    1.501    radius for radial grids                                 
   RDEPT  =    1.300    core radius for aug-charge                              
   QCUT   =   -5.516; QGAM   =   11.032    optimization parameters              
                                                                                
   Description                                                                  
     l     E      TYP  RCUT    TYP  RCUT                                        
     0   .000     23  1.200                                                     
     0   .000     23  1.200                                                     
     1   .000     23  1.500                                                     
     1  2.500     23  1.500                                                     
     2   .000      7  1.500                                                     
  local pseudopotential read in
  atomic valenz-charges read in
  non local Contribution for L=           0  read in
    real space projection operators read in
  non local Contribution for L=           0  read in
    real space projection operators read in
  non local Contribution for L=           1  read in
    real space projection operators read in
  non local Contribution for L=           1  read in
    real space projection operators read in
    PAW grid and wavefunctions read in
 
   number of l-projection  operators is LMAX  =           4
   number of lm-projection operators is LMMAX =           8
 
 PAW_PBE C 08Apr2002                    :
 energy of atom  1       EATOM= -147.1560
 kinetic energy error for atom=    0.0288 (will be added to EATOM!!)
 
 
 POSCAR: C8                                      
  positions in direct lattice
  No initial velocities read in
 exchange correlation table for  LEXCH =        8
   RHO(1)=    0.500       N(1)  =     2000
   RHO(2)=  100.500       N(2)  =     4000
 


--------------------------------------------------------------------------------------------------------


 ion  position               nearest neighbor table
   1  0.250  0.750  0.250-   4 1.48   2 1.57   6 1.57   8 1.57
   2  0.000  0.000  0.500-   3 1.48   1 1.57   5 1.57   7 1.57
   3  0.250  0.250  0.750-   2 1.48   4 1.57   6 1.57   8 1.57
   4  0.000  0.500  0.000-   1 1.48   3 1.57   5 1.57   7 1.57
   5  0.750  0.750  0.750-   8 1.48   6 1.57   2 1.57   4 1.57
   6  0.500  0.000  0.000-   7 1.48   5 1.57   1 1.57   3 1.57
   7  0.750  0.250  0.250-   6 1.48   8 1.57   2 1.57   4 1.57
   8  0.500  0.500  0.500-   5 1.48   7 1.57   1 1.57   3 1.57
 
  LATTYP: Found a trigonal (rhomboedric) cell.
 ALAT       =     3.5737100964
 COS(alpha) =    -0.0399998870
  
  Lattice vectors:
  
 A1 = (   3.5737100000,   0.0000000000,   0.0000000000)
 A2 = (  -0.1429480000,   3.5708500000,   0.0000000000)
 A3 = (  -0.1429480000,  -0.1487850000,   3.5677490000)


Analysis of symmetry for initial positions (statically):
=====================================================================
 Subroutine PRICEL returns following result:
 
  LATTYP: Found a trigonal (rhomboedric) cell.
 ALAT       =     2.4759391306
 COS(alpha) =     0.4583334656
  
  Lattice vectors:
  
 A1 = (  -0.1429480000,   1.7110325000,   1.7838745000)
 A2 = (   1.7153810000,  -0.0743925000,   1.7838745000)
 A3 = (   1.7153810000,   1.7854250000,   0.0000000000)
 
   4 primitive cells build up your supercell.
 

 Routine SETGRP: Setting up the symmetry group for a 
 trigonal (rhombohedral) supercell.


 Subroutine GETGRP returns: Found 12 space group operations
 (whereof  6 operations were pure point group operations)
 out of a pool of 12 trial point group operations.


The static configuration has the point symmetry C_3v.
 The point group associated with its full space group is D_3d.


Analysis of symmetry for dynamics (positions and initial velocities):
=====================================================================
 Subroutine PRICEL returns following result:
 
  LATTYP: Found a trigonal (rhomboedric) cell.
 ALAT       =     2.4759391306
 COS(alpha) =     0.4583334656
  
  Lattice vectors:
  
 A1 = (  -0.1429480000,   1.7110325000,   1.7838745000)
 A2 = (   1.7153810000,  -0.0743925000,   1.7838745000)
 A3 = (   1.7153810000,   1.7854250000,   0.0000000000)
 
   4 primitive cells build up your supercell.
 

 Routine SETGRP: Setting up the symmetry group for a 
 trigonal (rhombohedral) supercell.


 Subroutine GETGRP returns: Found 12 space group operations
 (whereof  6 operations were pure point group operations)
 out of a pool of 12 trial point group operations.


The dynamic configuration has the point symmetry C_3v.
 The point group associated with its full space group is D_3d.


 Subroutine INISYM returns: Found 12 space group operations
 (whereof  6 operations are pure point group operations),
 and found     4 'primitive' translations

 
 
 KPOINTS: kpt_density=1000                        

Automatic generation of k-mesh.
Space group operators:
 irot       det(A)        alpha          n_x          n_y          n_z        tau_x        tau_y        tau_z
    1     1.000000     0.000001     1.000000     0.000000     0.000000     0.000000     0.000000     0.000000
    2    -1.000000   179.999999     0.000000    -0.721688     0.692219     0.000000     0.000000     0.000000
    3     1.000000   120.000000    -0.553775    -0.576387    -0.600925     0.000000     0.000000     0.000000
    4    -1.000000   179.999999    -0.721110     0.692820     0.000000     0.000000     0.000000     0.000000
    5     1.000000   120.000000     0.553775     0.576387     0.600925     0.000000     0.000000     0.000000
    6    -1.000000   180.000000     0.721110     0.028867    -0.692219     0.000000     0.000000     0.000000
    7    -1.000000     0.000001     1.000000     0.000000     0.000000     0.250000     0.250000     0.250000
    8     1.000000   179.999999     0.000000    -0.721688     0.692219     0.250000     0.250000     0.250000
    9    -1.000000   120.000000    -0.553775    -0.576387    -0.600925     0.250000     0.250000     0.250000
   10     1.000000   179.999999    -0.721110     0.692820     0.000000     0.250000     0.250000     0.250000
   11    -1.000000   120.000000     0.553775     0.576387     0.600925     0.250000     0.250000     0.250000
   12     1.000000   180.000000     0.721110     0.028867    -0.692219     0.250000     0.250000     0.250000
 
 Subroutine IBZKPT returns following result:
 ===========================================
 
 Found    189 irreducible k-points:
 
 Following reciprocal coordinates:
            Coordinates               Weight
  0.000000  0.000000  0.000000      1.000000
  0.083333  0.000000  0.000000      6.000000
  0.166667  0.000000 -0.000000      6.000000
  0.250000 -0.000000 -0.000000      6.000000
  0.333333  0.000000  0.000000      6.000000
  0.416667  0.000000  0.000000      6.000000
  0.500000 -0.000000 -0.000000      3.000000
  0.083333  0.083333 -0.000000      6.000000
  0.166667  0.083333 -0.000000     12.000000
  0.250000  0.083333 -0.000000     12.000000
  0.333333  0.083333  0.000000     12.000000
  0.416667  0.083333 -0.000000     12.000000
  0.500000  0.083333  0.000000     12.000000
 -0.416667  0.083333  0.000000     12.000000
 -0.333333  0.083333  0.000000     12.000000
 -0.250000  0.083333  0.000000     12.000000
 -0.166667  0.083333  0.000000     12.000000
 -0.083333  0.083333 -0.000000      6.000000
  0.166667  0.166667 -0.000000      6.000000
  0.250000  0.166667 -0.000000     12.000000
  0.333333  0.166667 -0.000000     12.000000
  0.416667  0.166667 -0.000000     12.000000
  0.500000  0.166667 -0.000000     12.000000
 -0.416667  0.166667  0.000000     12.000000
 -0.333333  0.166667 -0.000000     12.000000
 -0.250000  0.166667 -0.000000     12.000000
 -0.166667  0.166667 -0.000000      6.000000
  0.250000  0.250000 -0.000000      6.000000
  0.333333  0.250000 -0.000000     12.000000
  0.416667  0.250000 -0.000000     12.000000
  0.500000  0.250000 -0.000000     12.000000
 -0.416667  0.250000  0.000000     12.000000
 -0.333333  0.250000 -0.000000     12.000000
 -0.250000  0.250000  0.000000      6.000000
  0.333333  0.333333 -0.000000      6.000000
  0.416667  0.333333  0.000000     12.000000
  0.500000  0.333333 -0.000000     12.000000
 -0.416667  0.333333 -0.000000     12.000000
 -0.333333  0.333333 -0.000000      6.000000
  0.416667  0.416667  0.000000      6.000000
  0.500000  0.416667 -0.000000     12.000000
 -0.416667  0.416667  0.000000      6.000000
  0.500000  0.500000 -0.000000      3.000000
  0.083333  0.083333  0.083333      2.000000
  0.166667  0.083333  0.083333      6.000000
  0.250000  0.083333  0.083333      6.000000
  0.333333  0.083333  0.083333      6.000000
  0.416667  0.083333  0.083333      6.000000
  0.500000  0.083333  0.083333      6.000000
 -0.416667  0.083333  0.083333      6.000000
 -0.333333  0.083333  0.083333      6.000000
 -0.250000  0.083333  0.083333      6.000000
 -0.166667  0.083333  0.083333      6.000000
 -0.083333  0.083333  0.083333      6.000000
  0.166667  0.166667  0.083333      6.000000
  0.250000  0.166667  0.083333     12.000000
  0.333333  0.166667  0.083333     12.000000
  0.416667  0.166667  0.083333     12.000000
  0.500000  0.166667  0.083333     12.000000
 -0.416667  0.166667  0.083333     12.000000
 -0.333333  0.166667  0.083333     12.000000
 -0.250000  0.166667  0.083333     12.000000
 -0.166667  0.166667  0.083333     12.000000
 -0.083333  0.166667  0.083333     12.000000
  0.250000  0.250000  0.083333      6.000000
  0.333333  0.250000  0.083333     12.000000
  0.416667  0.250000  0.083333     12.000000
  0.500000  0.250000  0.083333     12.000000
 -0.416667  0.250000  0.083333     12.000000
 -0.333333  0.250000  0.083333     12.000000
 -0.250000  0.250000  0.083333     12.000000
 -0.166667  0.250000  0.083333     12.000000
 -0.083333  0.250000  0.083333     12.000000
  0.333333  0.333333  0.083333      6.000000
  0.416667  0.333333  0.083333     12.000000
  0.500000  0.333333  0.083333     12.000000
 -0.416667  0.333333  0.083333     12.000000
 -0.333333  0.333333  0.083333     12.000000
 -0.250000  0.333333  0.083333     12.000000
 -0.166667  0.333333  0.083333     12.000000
 -0.083333  0.333333  0.083333     12.000000
  0.416667  0.416667  0.083333      6.000000
  0.500000  0.416667  0.083333     12.000000
 -0.416667  0.416667  0.083333     12.000000
 -0.333333  0.416667  0.083333     12.000000
 -0.250000  0.416667  0.083333     12.000000
 -0.166667  0.416667  0.083333     12.000000
 -0.083333  0.416667  0.083333     12.000000
  0.500000  0.500000  0.083333      6.000000
 -0.416667  0.500000  0.083333     12.000000
 -0.333333  0.500000  0.083333     12.000000
 -0.250000  0.500000  0.083333     12.000000
 -0.166667  0.500000  0.083333     12.000000
 -0.083333  0.500000  0.083333      6.000000
 -0.416667 -0.416667  0.083333      6.000000
 -0.333333 -0.416667  0.083333     12.000000
 -0.250000 -0.416667  0.083333     12.000000
 -0.166667 -0.416667  0.083333     12.000000
 -0.333333 -0.333333  0.083333      6.000000
 -0.250000 -0.333333  0.083333     12.000000
 -0.166667 -0.333333  0.083333     12.000000
 -0.250000 -0.250000  0.083333      6.000000
 -0.166667 -0.250000  0.083333     12.000000
 -0.166667 -0.166667  0.083333      6.000000
  0.166667  0.166667  0.166667      2.000000
  0.250000  0.166667  0.166667      6.000000
  0.333333  0.166667  0.166667      6.000000
  0.416667  0.166667  0.166667      6.000000
  0.500000  0.166667  0.166667      6.000000
 -0.416667  0.166667  0.166667      6.000000
 -0.333333  0.166667  0.166667      6.000000
 -0.250000  0.166667  0.166667      6.000000
 -0.166667  0.166667  0.166667      6.000000
  0.250000  0.250000  0.166667      6.000000
  0.333333  0.250000  0.166667     12.000000
  0.416667  0.250000  0.166667     12.000000
  0.500000  0.250000  0.166667     12.000000
 -0.416667  0.250000  0.166667     12.000000
 -0.333333  0.250000  0.166667     12.000000
 -0.250000  0.250000  0.166667     12.000000
 -0.166667  0.250000  0.166667     12.000000
  0.333333  0.333333  0.166667      6.000000
  0.416667  0.333333  0.166667     12.000000
  0.500000  0.333333  0.166667     12.000000
 -0.416667  0.333333  0.166667     12.000000
 -0.333333  0.333333  0.166667     12.000000
 -0.250000  0.333333  0.166667     12.000000
 -0.166667  0.333333  0.166667     12.000000
  0.416667  0.416667  0.166667      6.000000
  0.500000  0.416667  0.166667     12.000000
 -0.416667  0.416667  0.166667     12.000000
 -0.333333  0.416667  0.166667     12.000000
 -0.250000  0.416667  0.166667     12.000000
 -0.166667  0.416667  0.166667     12.000000
  0.500000  0.500000  0.166667      6.000000
 -0.416667  0.500000  0.166667     12.000000
 -0.333333  0.500000  0.166667     12.000000
 -0.250000  0.500000  0.166667     12.000000
 -0.166667  0.500000  0.166667      6.000000
 -0.416667 -0.416667  0.166667      6.000000
 -0.333333 -0.416667  0.166667     12.000000
 -0.250000 -0.416667  0.166667     12.000000
 -0.333333 -0.333333  0.166667      6.000000
 -0.250000 -0.333333  0.166667     12.000000
 -0.250000 -0.250000  0.166667      6.000000
  0.250000  0.250000  0.250000      2.000000
  0.333333  0.250000  0.250000      6.000000
  0.416667  0.250000  0.250000      6.000000
  0.500000  0.250000  0.250000      6.000000
 -0.416667  0.250000  0.250000      6.000000
 -0.333333  0.250000  0.250000      6.000000
 -0.250000  0.250000  0.250000      6.000000
  0.333333  0.333333  0.250000      6.000000
  0.416667  0.333333  0.250000     12.000000
  0.500000  0.333333  0.250000     12.000000
 -0.416667  0.333333  0.250000     12.000000
 -0.333333  0.333333  0.250000     12.000000
 -0.250000  0.333333  0.250000     12.000000
  0.416667  0.416667  0.250000      6.000000
  0.500000  0.416667  0.250000     12.000000
 -0.416667  0.416667  0.250000     12.000000
 -0.333333  0.416667  0.250000     12.000000
 -0.250000  0.416667  0.250000     12.000000
  0.500000  0.500000  0.250000      6.000000
 -0.416667  0.500000  0.250000     12.000000
 -0.333333  0.500000  0.250000     12.000000
 -0.250000  0.500000  0.250000      6.000000
 -0.416667 -0.416667  0.250000      6.000000
 -0.333333 -0.416667  0.250000     12.000000
 -0.333333 -0.333333  0.250000      6.000000
  0.333333  0.333333  0.333333      2.000000
  0.416667  0.333333  0.333333      6.000000
  0.500000  0.333333  0.333333      6.000000
 -0.416667  0.333333  0.333333      6.000000
 -0.333333  0.333333  0.333333      6.000000
  0.416667  0.416667  0.333333      6.000000
  0.500000  0.416667  0.333333     12.000000
 -0.416667  0.416667  0.333333     12.000000
 -0.333333  0.416667  0.333333     12.000000
  0.500000  0.500000  0.333333      6.000000
 -0.416667  0.500000  0.333333     12.000000
 -0.333333  0.500000  0.333333      6.000000
 -0.416667 -0.416667  0.333333      6.000000
  0.416667  0.416667  0.416667      2.000000
  0.500000  0.416667  0.416667      6.000000
 -0.416667  0.416667  0.416667      6.000000
  0.500000  0.500000  0.416667      6.000000
 -0.416667  0.500000  0.416667      6.000000
  0.500000  0.500000  0.500000      1.000000
 
 Following cartesian coordinates:
            Coordinates               Weight
  0.000000  0.000000  0.000000      1.000000
  0.023318  0.000933  0.000973      6.000000
  0.046637  0.001867  0.001946      6.000000
  0.069955  0.002800  0.002920      6.000000
  0.093274  0.003734  0.003893      6.000000
  0.116592  0.004667  0.004866      6.000000
  0.139911  0.005601  0.005839      3.000000
  0.023318  0.024271  0.001946      6.000000
  0.046637  0.025204  0.002920     12.000000
  0.069955  0.026138  0.003893     12.000000
  0.093274  0.027071  0.004866     12.000000
  0.116592  0.028005  0.005839     12.000000
  0.139911  0.028938  0.006813     12.000000
 -0.116592  0.018670 -0.003893     12.000000
 -0.093274  0.019603 -0.002920     12.000000
 -0.069955  0.020537 -0.001946     12.000000
 -0.046637  0.021470 -0.000973     12.000000
 -0.023318  0.022404  0.000000      6.000000
  0.046637  0.048541  0.003893      6.000000
  0.069955  0.049475  0.004866     12.000000
  0.093274  0.050408  0.005839     12.000000
  0.116592  0.051342  0.006813     12.000000
  0.139911  0.052275  0.007786     12.000000
 -0.116592  0.042007 -0.002920     12.000000
 -0.093274  0.042940 -0.001946     12.000000
 -0.069955  0.043874 -0.000973     12.000000
 -0.046637  0.044807  0.000000      6.000000
  0.069955  0.072812  0.005839      6.000000
  0.093274  0.073745  0.006813     12.000000
  0.116592  0.074679  0.007786     12.000000
  0.139911  0.075612  0.008759     12.000000
 -0.116592  0.065344 -0.001946     12.000000
 -0.093274  0.066277 -0.000973     12.000000
 -0.069955  0.067211  0.000000      6.000000
  0.093274  0.097082  0.007786      6.000000
  0.116592  0.098016  0.008759     12.000000
  0.139911  0.098949  0.009732     12.000000
 -0.116592  0.088681 -0.000973     12.000000
 -0.093274  0.089615  0.000000      6.000000
  0.116592  0.121353  0.009732      6.000000
  0.139911  0.122286  0.010705     12.000000
 -0.116592  0.112018  0.000000      6.000000
  0.139911  0.145624  0.011679      3.000000
  0.023318  0.024271  0.025304      2.000000
  0.046637  0.025204  0.026277      6.000000
  0.069955  0.026138  0.027250      6.000000
  0.093274  0.027071  0.028224      6.000000
  0.116592  0.028005  0.029197      6.000000
  0.139911  0.028938  0.030170      6.000000
 -0.116592  0.018670  0.019465      6.000000
 -0.093274  0.019603  0.020438      6.000000
 -0.069955  0.020537  0.021411      6.000000
 -0.046637  0.021470  0.022384      6.000000
 -0.023318  0.022404  0.023357      6.000000
  0.046637  0.048541  0.027250      6.000000
  0.069955  0.049475  0.028224     12.000000
  0.093274  0.050408  0.029197     12.000000
  0.116592  0.051342  0.030170     12.000000
  0.139911  0.052275  0.031143     12.000000
 -0.116592  0.042007  0.020438     12.000000
 -0.093274  0.042940  0.021411     12.000000
 -0.069955  0.043874  0.022384     12.000000
 -0.046637  0.044807  0.023357     12.000000
 -0.023318  0.045741  0.024331     12.000000
  0.069955  0.072812  0.029197      6.000000
  0.093274  0.073745  0.030170     12.000000
  0.116592  0.074679  0.031143     12.000000
  0.139911  0.075612  0.032116     12.000000
 -0.116592  0.065344  0.021411     12.000000
 -0.093274  0.066277  0.022384     12.000000
 -0.069955  0.067211  0.023357     12.000000
 -0.046637  0.068144  0.024331     12.000000
 -0.023318  0.069078  0.025304     12.000000
  0.093274  0.097082  0.031143      6.000000
  0.116592  0.098016  0.032116     12.000000
  0.139911  0.098949  0.033090     12.000000
 -0.116592  0.088681  0.022384     12.000000
 -0.093274  0.089615  0.023357     12.000000
 -0.069955  0.090548  0.024331     12.000000
 -0.046637  0.091481  0.025304     12.000000
 -0.023318  0.092415  0.026277     12.000000
  0.116592  0.121353  0.033090      6.000000
  0.139911  0.122286  0.034063     12.000000
 -0.116592  0.112018  0.023357     12.000000
 -0.093274  0.112952  0.024331     12.000000
 -0.069955  0.113885  0.025304     12.000000
 -0.046637  0.114819  0.026277     12.000000
 -0.023318  0.115752  0.027250     12.000000
  0.139911  0.145624  0.035036      6.000000
 -0.116592  0.135355  0.024331     12.000000
 -0.093274  0.136289  0.025304     12.000000
 -0.069955  0.137222  0.026277     12.000000
 -0.046637  0.138156  0.027250     12.000000
 -0.023318  0.139089  0.028224      6.000000
 -0.116592 -0.121353  0.013625      6.000000
 -0.093274 -0.120419  0.014598     12.000000
 -0.069955 -0.119486  0.015572     12.000000
 -0.046637 -0.118553  0.016545     12.000000
 -0.093274 -0.097082  0.015572      6.000000
 -0.069955 -0.096149  0.016545     12.000000
 -0.046637 -0.095215  0.017518     12.000000
 -0.069955 -0.072812  0.017518      6.000000
 -0.046637 -0.071878  0.018491     12.000000
 -0.046637 -0.048541  0.019465      6.000000
  0.046637  0.048541  0.050608      2.000000
  0.069955  0.049475  0.051581      6.000000
  0.093274  0.050408  0.052554      6.000000
  0.116592  0.051342  0.053527      6.000000
  0.139911  0.052275  0.054501      6.000000
 -0.116592  0.042007  0.043795      6.000000
 -0.093274  0.042940  0.044768      6.000000
 -0.069955  0.043874  0.045742      6.000000
 -0.046637  0.044807  0.046715      6.000000
  0.069955  0.072812  0.052554      6.000000
  0.093274  0.073745  0.053527     12.000000
  0.116592  0.074679  0.054501     12.000000
  0.139911  0.075612  0.055474     12.000000
 -0.116592  0.065344  0.044768     12.000000
 -0.093274  0.066277  0.045742     12.000000
 -0.069955  0.067211  0.046715     12.000000
 -0.046637  0.068144  0.047688     12.000000
  0.093274  0.097082  0.054501      6.000000
  0.116592  0.098016  0.055474     12.000000
  0.139911  0.098949  0.056447     12.000000
 -0.116592  0.088681  0.045742     12.000000
 -0.093274  0.089615  0.046715     12.000000
 -0.069955  0.090548  0.047688     12.000000
 -0.046637  0.091481  0.048661     12.000000
  0.116592  0.121353  0.056447      6.000000
  0.139911  0.122286  0.057420     12.000000
 -0.116592  0.112018  0.046715     12.000000
 -0.093274  0.112952  0.047688     12.000000
 -0.069955  0.113885  0.048661     12.000000
 -0.046637  0.114819  0.049634     12.000000
  0.139911  0.145624  0.058393      6.000000
 -0.116592  0.135355  0.047688     12.000000
 -0.093274  0.136289  0.048661     12.000000
 -0.069955  0.137222  0.049634     12.000000
 -0.046637  0.138156  0.050608      6.000000
 -0.116592 -0.121353  0.036983      6.000000
 -0.093274 -0.120419  0.037956     12.000000
 -0.069955 -0.119486  0.038929     12.000000
 -0.093274 -0.097082  0.038929      6.000000
 -0.069955 -0.096149  0.039902     12.000000
 -0.069955 -0.072812  0.040875      6.000000
  0.069955  0.072812  0.075912      2.000000
  0.093274  0.073745  0.076885      6.000000
  0.116592  0.074679  0.077858      6.000000
  0.139911  0.075612  0.078831      6.000000
 -0.116592  0.065344  0.068126      6.000000
 -0.093274  0.066277  0.069099      6.000000
 -0.069955  0.067211  0.070072      6.000000
  0.093274  0.097082  0.077858      6.000000
  0.116592  0.098016  0.078831     12.000000
  0.139911  0.098949  0.079804     12.000000
 -0.116592  0.088681  0.069099     12.000000
 -0.093274  0.089615  0.070072     12.000000
 -0.069955  0.090548  0.071045     12.000000
  0.116592  0.121353  0.079804      6.000000
  0.139911  0.122286  0.080778     12.000000
 -0.116592  0.112018  0.070072     12.000000
 -0.093274  0.112952  0.071045     12.000000
 -0.069955  0.113885  0.072019     12.000000
  0.139911  0.145624  0.081751      6.000000
 -0.116592  0.135355  0.071045     12.000000
 -0.093274  0.136289  0.072019     12.000000
 -0.069955  0.137222  0.072992      6.000000
 -0.116592 -0.121353  0.060340      6.000000
 -0.093274 -0.120419  0.061313     12.000000
 -0.093274 -0.097082  0.062286      6.000000
  0.093274  0.097082  0.101215      2.000000
  0.116592  0.098016  0.102189      6.000000
  0.139911  0.098949  0.103162      6.000000
 -0.116592  0.088681  0.092456      6.000000
 -0.093274  0.089615  0.093430      6.000000
  0.116592  0.121353  0.103162      6.000000
  0.139911  0.122286  0.104135     12.000000
 -0.116592  0.112018  0.093430     12.000000
 -0.093274  0.112952  0.094403     12.000000
  0.139911  0.145624  0.105108      6.000000
 -0.116592  0.135355  0.094403     12.000000
 -0.093274  0.136289  0.095376      6.000000
 -0.116592 -0.121353  0.083697      6.000000
  0.116592  0.121353  0.126519      2.000000
  0.139911  0.122286  0.127492      6.000000
 -0.116592  0.112018  0.116787      6.000000
  0.139911  0.145624  0.128466      6.000000
 -0.116592  0.135355  0.117760      6.000000
  0.139911  0.145624  0.151823      1.000000
 
 TETIRR: Found   2550 inequivalent tetrahedra from    10368


--------------------------------------------------------------------------------------------------------




 Dimension of arrays:
   k-points           NKPTS =    189   k-points in BZ     NKDIM =    189   number of bands    NBANDS=     24
   number of dos      NEDOS =    301   number of ions     NIONS =      8
   non local maximal  LDIM  =      4   non local SUM 2l+1 LMDIM =      8
   total plane-waves  NPLWV =  13824
   max r-space proj   IRMAX =      1   max aug-charges    IRDMAX=   3782
   dimension x,y,z NGX =    24 NGY =   24 NGZ =   24
   dimension x,y,z NGXF=    48 NGYF=   48 NGZF=   48
   support grid    NGXF=    48 NGYF=   48 NGZF=   48
   ions per type =               8
   NGX,Y,Z   is equivalent  to a cutoff of  11.16, 11.16, 11.16 a.u.
   NGXF,Y,Z  is equivalent  to a cutoff of  22.33, 22.33, 22.33 a.u.

 SYSTEM =  unknown system                          
 POSCAR =  C8                                      

 Startparameter for this run:
   NWRITE =      2    write-flag & timer
   PREC   = accura    normal or accurate (medium, high low for compatibility)
   ISTART =      0    job   : 0-new  1-cont  2-samecut
   ICHARG =      2    charge: 1-file 2-atom 10-const
   ISPIN  =      1    spin polarized calculation?
   LNONCOLLINEAR =      F non collinear calculations
   LSORBIT =      F    spin-orbit coupling
   INIWAV =      1    electr: 0-lowe 1-rand  2-diag
   LASPH  =      F    aspherical Exc in radial PAW
   METAGGA=      F    non-selfconsistent MetaGGA calc.

 Electronic Relaxation 1
   ENCUT  =  400.0 eV  29.40 Ry    5.42 a.u.   5.83  5.83  5.83*2*pi/ulx,y,z
   ENINI  =  400.0     initial cutoff
   ENAUG  =  644.9 eV  augmentation charge cutoff
   NELM   =     60;   NELMIN=  2; NELMDL= -5     # of ELM steps 
   EDIFF  = 0.1E-05   stopping-criterion for ELM
   LREAL  =      F    real-space projection
   NLSPLINE    = F    spline interpolate recip. space projectors
   LCOMPAT=      F    compatible to vasp.4.4
   GGA_COMPAT  = T    GGA compatible to vasp.4.4-vasp.4.6
   LMAXPAW     = -100 max onsite density
   LMAXMIX     =    2 max onsite mixed and CHGCAR
   VOSKOWN=      0    Vosko Wilk Nusair interpolation
   ROPT   =    0.00000
 Ionic relaxation
   EDIFFG = 0.1E-04   stopping-criterion for IOM
   NSW    =      0    number of steps for IOM
   NBLOCK =      1;   KBLOCK =      1    inner block; outer block 
   IBRION =     -1    ionic relax: 0-MD 1-quasi-New 2-CG
   NFREE  =      0    steps in history (QN), initial steepest desc. (CG)
   ISIF   =      2    stress and relaxation
   IWAVPR =     10    prediction:  0-non 1-charg 2-wave 3-comb
   ISYM   =      2    0-nonsym 1-usesym 2-fastsym
   LCORR  =      T    Harris-Foulkes like correction to forces

   POTIM  = 0.0200    time-step for ionic-motion
   TEIN   =    0.0    initial temperature
   TEBEG  =    0.0;   TEEND  =   0.0 temperature during run
   SMASS  =  -3.00    Nose mass-parameter (am)
   estimated Nose-frequenzy (Omega)   =  0.10E-29 period in steps =****** mass=  -0.292E-27a.u.
   SCALEE = 1.0000    scale energy and forces
   NPACO  =    256;   APACO  = 16.0  distance and # of slots for P.C.
   PSTRESS=    0.0 pullay stress

  Mass of Ions in am
   POMASS =  12.01
  Ionic Valenz
   ZVAL   =   4.00
  Atomic Wigner-Seitz radii
   RWIGS  =  -1.00
  virtual crystal weights 
   VCA    =   1.00
   NELECT =      32.0000    total number of electrons
   NUPDOWN=      -1.0000    fix difference up-down

 DOS related values:
   EMIN   =  10.00;   EMAX   =-10.00  energy-range for DOS
   EFERMI =   0.00
   ISMEAR =    -5;   SIGMA  =   0.06  broadening in eV -4-tet -1-fermi 0-gaus

 Electronic relaxation 2 (details)
   IALGO  =     38    algorithm
   LDIAG  =      T    sub-space diagonalisation (order eigenvalues)
   LSUBROT=      F    optimize rotation matrix (better conditioning)
   TURBO    =      0    0=normal 1=particle mesh
   IRESTART =      0    0=no restart 2=restart with 2 vectors
   NREBOOT  =      0    no. of reboots
   NMIN     =      0    reboot dimension
   EREF     =   0.00    reference energy to select bands
   IMIX   =      4    mixing-type and parameters
     AMIX     =   0.40;   BMIX     =  1.00
     AMIX_MAG =   1.60;   BMIX_MAG =  1.00
     AMIN     =   0.10
     WC   =   100.;   INIMIX=   1;  MIXPRE=   1;  MAXMIX= -45

 Intra band minimization:
   WEIMIN = 0.0000     energy-eigenvalue tresh-hold
   EBREAK =  0.10E-07  absolut break condition
   DEPER  =   0.30     relativ break condition  

   TIME   =   0.40     timestep for ELM

  volume/ion in A,a.u.               =       5.69        38.41
  Fermi-wavevector in a.u.,A,eV,Ry     =   1.455559  2.750607 28.826003  2.118651
  Thomas-Fermi vector in A             =   2.572579
 
 Write flags
   LWAVE        =      F    write WAVECAR
   LDOWNSAMPLE  =      F    k-point downsampling of WAVECAR
   LCHARG       =      F    write CHGCAR
   LVTOT        =      F    write LOCPOT, total local potential
   LVHAR        =      F    write LOCPOT, Hartree potential only
   LELF         =      F    write electronic localiz. function (ELF)
   LORBIT       =      0    0 simple, 1 ext, 2 COOP (PROOUT), +10 PAW based schemes


 Dipole corrections
   LMONO  =      F    monopole corrections only (constant potential shift)
   LDIPOL =      F    correct potential (dipole corrections)
   IDIPOL =      0    1-x, 2-y, 3-z, 4-all directions 
   EPSILON=  1.0000000 bulk dielectric constant

 Exchange correlation treatment:
   GGA     =    --    GGA type
   LEXCH   =     8    internal setting for exchange type
   VOSKOWN=      0    Vosko Wilk Nusair interpolation
   LHFCALC =     F    Hartree Fock is set to
   LHFONE  =     F    Hartree Fock one center treatment
   AEXX    =    0.0000 exact exchange contribution

 Linear response parameters
   LEPSILON=     F    determine dielectric tensor
   LRPA    =     F    only Hartree local field effects (RPA)
   LNABLA  =     F    use nabla operator in PAW spheres
   LVEL    =     F    velocity operator in full k-point grid
   LINTERFAST=   F  fast interpolation
   KINTER  =     0    interpolate to denser k-point grid
   CSHIFT  =0.1000    complex shift for real part using Kramers Kronig
   OMEGAMAX=  -1.0    maximum frequency
   DEG_THRESHOLD= 0.2000000E-02 threshold for treating states as degnerate
   RTIME   =   -0.100 relaxation time in fs
  (WPLASMAI=    0.000 imaginary part of plasma frequency in eV, 0.658/RTIME)
   DFIELD  = 0.0000000 0.0000000 0.0000000 field for delta impulse in time
 
 Orbital magnetization related:
   ORBITALMAG=     F  switch on orbital magnetization
   LCHIMAG   =     F  perturbation theory with respect to B field
   DQ        =  0.001000  dq finite difference perturbation B field
   LLRAUG    =     F  two centre corrections for induced B field



--------------------------------------------------------------------------------------------------------


 Static calculation
 charge density and potential will be updated during run
 non-spin polarized calculation
 Variant of blocked Davidson
 Davidson routine will perform the subspace rotation
 perform sub-space diagonalisation
    after iterative eigenvector-optimisation
 modified Broyden-mixing scheme, WC =      100.0
 initial mixing is a Kerker type mixing with AMIX =  0.4000 and BMIX =      1.0000
 Hartree-type preconditioning will be used
 using additional bands            8
 reciprocal scheme for non local part
 calculate Harris-corrections to forces 
   (improved forces if not selfconsistent)
 use gradient corrections 
 use of overlap-Matrix (Vanderbilt PP)
 Fermi weights with tetrahedron method with Bloechl corrections


--------------------------------------------------------------------------------------------------------


  energy-cutoff  :      400.00
  volume of cell :       45.53
      direct lattice vectors                 reciprocal lattice vectors
     3.573710000  0.000000000  0.000000000     0.279821250  0.011201783  0.011678665
    -0.142948000  3.570850000  0.000000000     0.000000000  0.280045367  0.011678666
    -0.142948000 -0.148785000  3.567749000     0.000000000  0.000000000  0.280288776

  length of vectors
     3.573710000  3.573710096  3.573710122     0.280288785  0.280288778  0.280288776


 
 k-points in units of 2pi/SCALE and weight: kpt_density=1000                        
   0.00000000  0.00000000  0.00000000       0.001
   0.02331844  0.00093348  0.00097322       0.003
   0.04663688  0.00186696  0.00194644       0.003
   0.06995531  0.00280045  0.00291967       0.003
   0.09327375  0.00373393  0.00389289       0.003
   0.11659219  0.00466741  0.00486611       0.003
   0.13991063  0.00560089  0.00583933       0.002
   0.02331844  0.02427060  0.00194644       0.003
   0.04663688  0.02520408  0.00291967       0.007
   0.06995531  0.02613756  0.00389289       0.007
   0.09327375  0.02707104  0.00486611       0.007
   0.11659219  0.02800452  0.00583933       0.007
   0.13991063  0.02893801  0.00681255       0.007
  -0.11659219  0.01866970 -0.00389289       0.007
  -0.09327375  0.01960319 -0.00291967       0.007
  -0.06995531  0.02053667 -0.00194644       0.007
  -0.04663688  0.02147015 -0.00097322       0.007
  -0.02331844  0.02240363  0.00000000       0.003
   0.04663688  0.04854119  0.00389289       0.003
   0.06995531  0.04947467  0.00486611       0.007
   0.09327375  0.05040816  0.00583933       0.007
   0.11659219  0.05134164  0.00681255       0.007
   0.13991063  0.05227512  0.00778578       0.007
  -0.11659219  0.04200682 -0.00291967       0.007
  -0.09327375  0.04294030 -0.00194644       0.007
  -0.06995531  0.04387378 -0.00097322       0.007
  -0.04663688  0.04480726  0.00000000       0.003
   0.06995531  0.07281179  0.00583933       0.003
   0.09327375  0.07374527  0.00681255       0.007
   0.11659219  0.07467875  0.00778578       0.007
   0.13991063  0.07561223  0.00875900       0.007
  -0.11659219  0.06534393 -0.00194644       0.007
  -0.09327375  0.06627741 -0.00097322       0.007
  -0.06995531  0.06721090  0.00000000       0.003
   0.09327375  0.09708238  0.00778578       0.003
   0.11659219  0.09801587  0.00875900       0.007
   0.13991063  0.09894935  0.00973222       0.007
  -0.11659219  0.08868105 -0.00097322       0.007
  -0.09327375  0.08961453  0.00000000       0.003
   0.11659219  0.12135298  0.00973222       0.003
   0.13991063  0.12228646  0.01070544       0.007
  -0.11659219  0.11201816  0.00000000       0.003
   0.13991063  0.14562358  0.01167867       0.002
   0.02331844  0.02427060  0.02530384       0.001
   0.04663688  0.02520408  0.02627706       0.003
   0.06995531  0.02613756  0.02725029       0.003
   0.09327375  0.02707104  0.02822351       0.003
   0.11659219  0.02800452  0.02919673       0.003
   0.13991063  0.02893801  0.03016995       0.003
  -0.11659219  0.01866970  0.01946451       0.003
  -0.09327375  0.01960319  0.02043773       0.003
  -0.06995531  0.02053667  0.02141095       0.003
  -0.04663688  0.02147015  0.02238418       0.003
  -0.02331844  0.02240363  0.02335740       0.003
   0.04663688  0.04854119  0.02725029       0.003
   0.06995531  0.04947467  0.02822351       0.007
   0.09327375  0.05040816  0.02919673       0.007
   0.11659219  0.05134164  0.03016995       0.007
   0.13991063  0.05227512  0.03114317       0.007
  -0.11659219  0.04200682  0.02043773       0.007
  -0.09327375  0.04294030  0.02141095       0.007
  -0.06995531  0.04387378  0.02238418       0.007
  -0.04663688  0.04480726  0.02335740       0.007
  -0.02331844  0.04574075  0.02433062       0.007
   0.06995531  0.07281179  0.02919673       0.003
   0.09327375  0.07374527  0.03016995       0.007
   0.11659219  0.07467875  0.03114317       0.007
   0.13991063  0.07561223  0.03211640       0.007
  -0.11659219  0.06534393  0.02141095       0.007
  -0.09327375  0.06627741  0.02238418       0.007
  -0.06995531  0.06721090  0.02335740       0.007
  -0.04663688  0.06814438  0.02433062       0.007
  -0.02331844  0.06907786  0.02530384       0.007
   0.09327375  0.09708238  0.03114318       0.003
   0.11659219  0.09801587  0.03211640       0.007
   0.13991063  0.09894935  0.03308962       0.007
  -0.11659219  0.08868105  0.02238418       0.007
  -0.09327375  0.08961453  0.02335740       0.007
  -0.06995531  0.09054801  0.02433062       0.007
  -0.04663688  0.09148149  0.02530384       0.007
  -0.02331844  0.09241497  0.02627706       0.007
   0.11659219  0.12135298  0.03308962       0.003
   0.13991063  0.12228646  0.03406284       0.007
  -0.11659219  0.11201816  0.02335740       0.007
  -0.09327375  0.11295164  0.02433062       0.007
  -0.06995531  0.11388512  0.02530384       0.007
  -0.04663688  0.11481861  0.02627706       0.007
  -0.02331844  0.11575209  0.02725029       0.007
   0.13991063  0.14562358  0.03503606       0.003
  -0.11659219  0.13535527  0.02433062       0.007
  -0.09327375  0.13628876  0.02530384       0.007
  -0.06995531  0.13722224  0.02627706       0.007
  -0.04663688  0.13815572  0.02725029       0.007
  -0.02331844  0.13908920  0.02822351       0.003
  -0.11659219 -0.12135298  0.01362518       0.003
  -0.09327375 -0.12041950  0.01459840       0.007
  -0.06995531 -0.11948602  0.01557162       0.007
  -0.04663688 -0.11855253  0.01654484       0.007
  -0.09327375 -0.09708238  0.01557162       0.003
  -0.06995531 -0.09614890  0.01654484       0.007
  -0.04663688 -0.09521542  0.01751807       0.007
  -0.06995531 -0.07281179  0.01751807       0.003
  -0.04663688 -0.07187831  0.01849129       0.007
  -0.04663688 -0.04854119  0.01946451       0.003
   0.04663688  0.04854119  0.05060768       0.001
   0.06995531  0.04947467  0.05158091       0.003
   0.09327375  0.05040816  0.05255413       0.003
   0.11659219  0.05134164  0.05352735       0.003
   0.13991063  0.05227512  0.05450057       0.003
  -0.11659219  0.04200682  0.04379513       0.003
  -0.09327375  0.04294030  0.04476835       0.003
  -0.06995531  0.04387378  0.04574157       0.003
  -0.04663688  0.04480726  0.04671480       0.003
   0.06995531  0.07281179  0.05255413       0.003
   0.09327375  0.07374527  0.05352735       0.007
   0.11659219  0.07467875  0.05450057       0.007
   0.13991063  0.07561223  0.05547380       0.007
  -0.11659219  0.06534393  0.04476835       0.007
  -0.09327375  0.06627741  0.04574157       0.007
  -0.06995531  0.06721090  0.04671480       0.007
  -0.04663688  0.06814438  0.04768802       0.007
   0.09327375  0.09708238  0.05450057       0.003
   0.11659219  0.09801587  0.05547380       0.007
   0.13991063  0.09894935  0.05644702       0.007
  -0.11659219  0.08868105  0.04574157       0.007
  -0.09327375  0.08961453  0.04671480       0.007
  -0.06995531  0.09054801  0.04768802       0.007
  -0.04663688  0.09148149  0.04866124       0.007
   0.11659219  0.12135298  0.05644702       0.003
   0.13991063  0.12228646  0.05742024       0.007
  -0.11659219  0.11201816  0.04671480       0.007
  -0.09327375  0.11295164  0.04768802       0.007
  -0.06995531  0.11388512  0.04866124       0.007
  -0.04663688  0.11481861  0.04963446       0.007
   0.13991063  0.14562358  0.05839346       0.003
  -0.11659219  0.13535527  0.04768802       0.007
  -0.09327375  0.13628876  0.04866124       0.007
  -0.06995531  0.13722224  0.04963446       0.007
  -0.04663688  0.13815572  0.05060768       0.003
  -0.11659219 -0.12135298  0.03698257       0.003
  -0.09327375 -0.12041950  0.03795580       0.007
  -0.06995531 -0.11948602  0.03892902       0.007
  -0.09327375 -0.09708238  0.03892902       0.003
  -0.06995531 -0.09614890  0.03990224       0.007
  -0.06995531 -0.07281179  0.04087546       0.003
   0.06995531  0.07281179  0.07591153       0.001
   0.09327375  0.07374527  0.07688475       0.003
   0.11659219  0.07467875  0.07785797       0.003
   0.13991063  0.07561223  0.07883119       0.003
  -0.11659219  0.06534393  0.06812575       0.003
  -0.09327375  0.06627741  0.06909897       0.003
  -0.06995531  0.06721090  0.07007219       0.003
   0.09327375  0.09708238  0.07785797       0.003
   0.11659219  0.09801587  0.07883119       0.007
   0.13991063  0.09894935  0.07980442       0.007
  -0.11659219  0.08868105  0.06909897       0.007
  -0.09327375  0.08961453  0.07007219       0.007
  -0.06995531  0.09054801  0.07104542       0.007
   0.11659219  0.12135298  0.07980442       0.003
   0.13991063  0.12228646  0.08077764       0.007
  -0.11659219  0.11201816  0.07007219       0.007
  -0.09327375  0.11295164  0.07104542       0.007
  -0.06995531  0.11388512  0.07201864       0.007
   0.13991063  0.14562358  0.08175086       0.003
  -0.11659219  0.13535527  0.07104542       0.007
  -0.09327375  0.13628876  0.07201864       0.007
  -0.06995531  0.13722224  0.07299186       0.003
  -0.11659219 -0.12135298  0.06033997       0.003
  -0.09327375 -0.12041950  0.06131319       0.007
  -0.09327375 -0.09708238  0.06228642       0.003
   0.09327375  0.09708238  0.10121537       0.001
   0.11659219  0.09801587  0.10218859       0.003
   0.13991063  0.09894935  0.10316181       0.003
  -0.11659219  0.08868105  0.09245637       0.003
  -0.09327375  0.08961453  0.09342959       0.003
   0.11659219  0.12135298  0.10316181       0.003
   0.13991063  0.12228646  0.10413504       0.007
  -0.11659219  0.11201816  0.09342959       0.007
  -0.09327375  0.11295164  0.09440281       0.007
   0.13991063  0.14562358  0.10510826       0.003
  -0.11659219  0.13535527  0.09440281       0.007
  -0.09327375  0.13628876  0.09537604       0.003
  -0.11659219 -0.12135298  0.08369737       0.003
   0.11659219  0.12135298  0.12651921       0.001
   0.13991063  0.12228646  0.12749243       0.003
  -0.11659219  0.11201816  0.11678699       0.003
   0.13991063  0.14562358  0.12846566       0.003
  -0.11659219  0.13535527  0.11776021       0.003
   0.13991063  0.14562358  0.15182305       0.001
 
 k-points in reciprocal lattice and weights: kpt_density=1000                        
   0.00000000  0.00000000  0.00000000       0.001
   0.08333333  0.00000000  0.00000000       0.003
   0.16666667  0.00000000 -0.00000000       0.003
   0.25000000 -0.00000000 -0.00000000       0.003
   0.33333333  0.00000000  0.00000000       0.003
   0.41666667  0.00000000  0.00000000       0.003
   0.50000000 -0.00000000 -0.00000000       0.002
   0.08333333  0.08333333 -0.00000000       0.003
   0.16666667  0.08333333 -0.00000000       0.007
   0.25000000  0.08333333 -0.00000000       0.007
   0.33333333  0.08333333  0.00000000       0.007
   0.41666667  0.08333333 -0.00000000       0.007
   0.50000000  0.08333333  0.00000000       0.007
  -0.41666667  0.08333333  0.00000000       0.007
  -0.33333333  0.08333333  0.00000000       0.007
  -0.25000000  0.08333333  0.00000000       0.007
  -0.16666667  0.08333333  0.00000000       0.007
  -0.08333333  0.08333333 -0.00000000       0.003
   0.16666667  0.16666667 -0.00000000       0.003
   0.25000000  0.16666667 -0.00000000       0.007
   0.33333333  0.16666667 -0.00000000       0.007
   0.41666667  0.16666667 -0.00000000       0.007
   0.50000000  0.16666667 -0.00000000       0.007
  -0.41666667  0.16666667  0.00000000       0.007
  -0.33333333  0.16666667 -0.00000000       0.007
  -0.25000000  0.16666667 -0.00000000       0.007
  -0.16666667  0.16666667 -0.00000000       0.003
   0.25000000  0.25000000 -0.00000000       0.003
   0.33333333  0.25000000 -0.00000000       0.007
   0.41666667  0.25000000 -0.00000000       0.007
   0.50000000  0.25000000 -0.00000000       0.007
  -0.41666667  0.25000000  0.00000000       0.007
  -0.33333333  0.25000000 -0.00000000       0.007
  -0.25000000  0.25000000  0.00000000       0.003
   0.33333333  0.33333333 -0.00000000       0.003
   0.41666667  0.33333333  0.00000000       0.007
   0.50000000  0.33333333 -0.00000000       0.007
  -0.41666667  0.33333333 -0.00000000       0.007
  -0.33333333  0.33333333 -0.00000000       0.003
   0.41666667  0.41666667  0.00000000       0.003
   0.50000000  0.41666667 -0.00000000       0.007
  -0.41666667  0.41666667  0.00000000       0.003
   0.50000000  0.50000000 -0.00000000       0.002
   0.08333333  0.08333333  0.08333333       0.001
   0.16666667  0.08333333  0.08333333       0.003
   0.25000000  0.08333333  0.08333333       0.003
   0.33333333  0.08333333  0.08333333       0.003
   0.41666667  0.08333333  0.08333333       0.003
   0.50000000  0.08333333  0.08333333       0.003
  -0.41666667  0.08333333  0.08333333       0.003
  -0.33333333  0.08333333  0.08333333       0.003
  -0.25000000  0.08333333  0.08333333       0.003
  -0.16666667  0.08333333  0.08333333       0.003
  -0.08333333  0.08333333  0.08333333       0.003
   0.16666667  0.16666667  0.08333333       0.003
   0.25000000  0.16666667  0.08333333       0.007
   0.33333333  0.16666667  0.08333333       0.007
   0.41666667  0.16666667  0.08333333       0.007
   0.50000000  0.16666667  0.08333333       0.007
  -0.41666667  0.16666667  0.08333333       0.007
  -0.33333333  0.16666667  0.08333333       0.007
  -0.25000000  0.16666667  0.08333333       0.007
  -0.16666667  0.16666667  0.08333333       0.007
  -0.08333333  0.16666667  0.08333333       0.007
   0.25000000  0.25000000  0.08333333       0.003
   0.33333333  0.25000000  0.08333333       0.007
   0.41666667  0.25000000  0.08333333       0.007
   0.50000000  0.25000000  0.08333333       0.007
  -0.41666667  0.25000000  0.08333333       0.007
  -0.33333333  0.25000000  0.08333333       0.007
  -0.25000000  0.25000000  0.08333333       0.007
  -0.16666667  0.25000000  0.08333333       0.007
  -0.08333333  0.25000000  0.08333333       0.007
   0.33333333  0.33333333  0.08333333       0.003
   0.41666667  0.33333333  0.08333333       0.007
   0.50000000  0.33333333  0.08333333       0.007
  -0.41666667  0.33333333  0.08333333       0.007
  -0.33333333  0.33333333  0.08333333       0.007
  -0.25000000  0.33333333  0.08333333       0.007
  -0.16666667  0.33333333  0.08333333       0.007
  -0.08333333  0.33333333  0.08333333       0.007
   0.41666667  0.41666667  0.08333333       0.003
   0.50000000  0.41666667  0.08333333       0.007
  -0.41666667  0.41666667  0.08333333       0.007
  -0.33333333  0.41666667  0.08333333       0.007
  -0.25000000  0.41666667  0.08333333       0.007
  -0.16666667  0.41666667  0.08333333       0.007
  -0.08333333  0.41666667  0.08333333       0.007
   0.50000000  0.50000000  0.08333333       0.003
  -0.41666667  0.50000000  0.08333333       0.007
  -0.33333333  0.50000000  0.08333333       0.007
  -0.25000000  0.50000000  0.08333333       0.007
  -0.16666667  0.50000000  0.08333333       0.007
  -0.08333333  0.50000000  0.08333333       0.003
  -0.41666667 -0.41666667  0.08333333       0.003
  -0.33333333 -0.41666667  0.08333333       0.007
  -0.25000000 -0.41666667  0.08333333       0.007
  -0.16666667 -0.41666667  0.08333333       0.007
  -0.33333333 -0.33333333  0.08333333       0.003
  -0.25000000 -0.33333333  0.08333333       0.007
  -0.16666667 -0.33333333  0.08333333       0.007
  -0.25000000 -0.25000000  0.08333333       0.003
  -0.16666667 -0.25000000  0.08333333       0.007
  -0.16666667 -0.16666667  0.08333333       0.003
   0.16666667  0.16666667  0.16666667       0.001
   0.25000000  0.16666667  0.16666667       0.003
   0.33333333  0.16666667  0.16666667       0.003
   0.41666667  0.16666667  0.16666667       0.003
   0.50000000  0.16666667  0.16666667       0.003
  -0.41666667  0.16666667  0.16666667       0.003
  -0.33333333  0.16666667  0.16666667       0.003
  -0.25000000  0.16666667  0.16666667       0.003
  -0.16666667  0.16666667  0.16666667       0.003
   0.25000000  0.25000000  0.16666667       0.003
   0.33333333  0.25000000  0.16666667       0.007
   0.41666667  0.25000000  0.16666667       0.007
   0.50000000  0.25000000  0.16666667       0.007
  -0.41666667  0.25000000  0.16666667       0.007
  -0.33333333  0.25000000  0.16666667       0.007
  -0.25000000  0.25000000  0.16666667       0.007
  -0.16666667  0.25000000  0.16666667       0.007
   0.33333333  0.33333333  0.16666667       0.003
   0.41666667  0.33333333  0.16666667       0.007
   0.50000000  0.33333333  0.16666667       0.007
  -0.41666667  0.33333333  0.16666667       0.007
  -0.33333333  0.33333333  0.16666667       0.007
  -0.25000000  0.33333333  0.16666667       0.007
  -0.16666667  0.33333333  0.16666667       0.007
   0.41666667  0.41666667  0.16666667       0.003
   0.50000000  0.41666667  0.16666667       0.007
  -0.41666667  0.41666667  0.16666667       0.007
  -0.33333333  0.41666667  0.16666667       0.007
  -0.25000000  0.41666667  0.16666667       0.007
  -0.16666667  0.41666667  0.16666667       0.007
   0.50000000  0.50000000  0.16666667       0.003
  -0.41666667  0.50000000  0.16666667       0.007
  -0.33333333  0.50000000  0.16666667       0.007
  -0.25000000  0.50000000  0.16666667       0.007
  -0.16666667  0.50000000  0.16666667       0.003
  -0.41666667 -0.41666667  0.16666667       0.003
  -0.33333333 -0.41666667  0.16666667       0.007
  -0.25000000 -0.41666667  0.16666667       0.007
  -0.33333333 -0.33333333  0.16666667       0.003
  -0.25000000 -0.33333333  0.16666667       0.007
  -0.25000000 -0.25000000  0.16666667       0.003
   0.25000000  0.25000000  0.25000000       0.001
   0.33333333  0.25000000  0.25000000       0.003
   0.41666667  0.25000000  0.25000000       0.003
   0.50000000  0.25000000  0.25000000       0.003
  -0.41666667  0.25000000  0.25000000       0.003
  -0.33333333  0.25000000  0.25000000       0.003
  -0.25000000  0.25000000  0.25000000       0.003
   0.33333333  0.33333333  0.25000000       0.003
   0.41666667  0.33333333  0.25000000       0.007
   0.50000000  0.33333333  0.25000000       0.007
  -0.41666667  0.33333333  0.25000000       0.007
  -0.33333333  0.33333333  0.25000000       0.007
  -0.25000000  0.33333333  0.25000000       0.007
   0.41666667  0.41666667  0.25000000       0.003
   0.50000000  0.41666667  0.25000000       0.007
  -0.41666667  0.41666667  0.25000000       0.007
  -0.33333333  0.41666667  0.25000000       0.007
  -0.25000000  0.41666667  0.25000000       0.007
   0.50000000  0.50000000  0.25000000       0.003
  -0.41666667  0.50000000  0.25000000       0.007
  -0.33333333  0.50000000  0.25000000       0.007
  -0.25000000  0.50000000  0.25000000       0.003
  -0.41666667 -0.41666667  0.25000000       0.003
  -0.33333333 -0.41666667  0.25000000       0.007
  -0.33333333 -0.33333333  0.25000000       0.003
   0.33333333  0.33333333  0.33333333       0.001
   0.41666667  0.33333333  0.33333333       0.003
   0.50000000  0.33333333  0.33333333       0.003
  -0.41666667  0.33333333  0.33333333       0.003
  -0.33333333  0.33333333  0.33333333       0.003
   0.41666667  0.41666667  0.33333333       0.003
   0.50000000  0.41666667  0.33333333       0.007
  -0.41666667  0.41666667  0.33333333       0.007
  -0.33333333  0.41666667  0.33333333       0.007
   0.50000000  0.50000000  0.33333333       0.003
  -0.41666667  0.50000000  0.33333333       0.007
  -0.33333333  0.50000000  0.33333333       0.003
  -0.41666667 -0.41666667  0.33333333       0.003
   0.41666667  0.41666667  0.41666667       0.001
   0.50000000  0.41666667  0.41666667       0.003
  -0.41666667  0.41666667  0.41666667       0.003
   0.50000000  0.50000000  0.41666667       0.003
  -0.41666667  0.50000000  0.41666667       0.003
   0.50000000  0.50000000  0.50000000       0.001
 
 position of ions in fractional coordinates (direct lattice) 
   0.25000000  0.75000000  0.25000000
   0.00000000  0.00000000  0.50000000
   0.25000000  0.25000000  0.75000000
   0.00000000  0.50000000  0.00000000
   0.75000000  0.75000000  0.75000000
   0.50000000  0.00000000  0.00000000
   0.75000000  0.25000000  0.25000000
   0.50000000  0.50000000  0.50000000
 
 position of ions in cartesian coordinates  (Angst):
   0.75047950  2.64094125  0.89193725
  -0.07147400 -0.07439250  1.78387450
   0.75047950  0.78112375  2.67581175
  -0.07147400  1.78542500  0.00000000
   2.46586050  2.56654875  2.67581175
   1.78685500  0.00000000  0.00000000
   2.60880850  0.85551625  0.89193725
   1.64390700  1.71103250  1.78387450
 


--------------------------------------------------------------------------------------------------------


 k-point  1 :   0.0000 0.0000 0.0000  plane waves:     829
 k-point  2 :   0.0833 0.0000 0.0000  plane waves:     825
 k-point  3 :   0.1667 0.0000-0.0000  plane waves:     822
 k-point  4 :   0.2500-0.0000-0.0000  plane waves:     824
 k-point  5 :   0.3333 0.0000 0.0000  plane waves:     827
 k-point  6 :   0.4167 0.0000 0.0000  plane waves:     824
 k-point  7 :   0.5000-0.0000-0.0000  plane waves:     826
 k-point  8 :   0.0833 0.0833-0.0000  plane waves:     824
 k-point  9 :   0.1667 0.0833-0.0000  plane waves:     825
 k-point 10 :   0.2500 0.0833-0.0000  plane waves:     827
 k-point 11 :   0.3333 0.0833 0.0000  plane waves:     830
 k-point 12 :   0.4167 0.0833-0.0000  plane waves:     828
 k-point 13 :   0.5000 0.0833 0.0000  plane waves:     825
 k-point 14 :  -0.4167 0.0833 0.0000  plane waves:     822
 k-point 15 :  -0.3333 0.0833 0.0000  plane waves:     823
 k-point 16 :  -0.2500 0.0833 0.0000  plane waves:     823
 k-point 17 :  -0.1667 0.0833 0.0000  plane waves:     819
 k-point 18 :  -0.0833 0.0833-0.0000  plane waves:     821
 k-point 19 :   0.1667 0.1667-0.0000  plane waves:     829
 k-point 20 :   0.2500 0.1667-0.0000  plane waves:     827
 k-point 21 :   0.3333 0.1667-0.0000  plane waves:     827
 k-point 22 :   0.4167 0.1667-0.0000  plane waves:     825
 k-point 23 :   0.5000 0.1667-0.0000  plane waves:     823
 k-point 24 :  -0.4167 0.1667 0.0000  plane waves:     822
 k-point 25 :  -0.3333 0.1667-0.0000  plane waves:     822
 k-point 26 :  -0.2500 0.1667-0.0000  plane waves:     821
 k-point 27 :  -0.1667 0.1667-0.0000  plane waves:     815
 k-point 28 :   0.2500 0.2500-0.0000  plane waves:     826
 k-point 29 :   0.3333 0.2500-0.0000  plane waves:     831
 k-point 30 :   0.4167 0.2500-0.0000  plane waves:     832
 k-point 31 :   0.5000 0.2500-0.0000  plane waves:     828
 k-point 32 :  -0.4167 0.2500 0.0000  plane waves:     828
 k-point 33 :  -0.3333 0.2500-0.0000  plane waves:     826
 k-point 34 :  -0.2500 0.2500 0.0000  plane waves:     832
 k-point 35 :   0.3333 0.3333-0.0000  plane waves:     834
 k-point 36 :   0.4167 0.3333 0.0000  plane waves:     828
 k-point 37 :   0.5000 0.3333-0.0000  plane waves:     831
 k-point 38 :  -0.4167 0.3333-0.0000  plane waves:     833
 k-point 39 :  -0.3333 0.3333-0.0000  plane waves:     830
 k-point 40 :   0.4167 0.4167 0.0000  plane waves:     825
 k-point 41 :   0.5000 0.4167-0.0000  plane waves:     832
 k-point 42 :  -0.4167 0.4167 0.0000  plane waves:     828
 k-point 43 :   0.5000 0.5000-0.0000  plane waves:     838
 k-point 44 :   0.0833 0.0833 0.0833  plane waves:     835
 k-point 45 :   0.1667 0.0833 0.0833  plane waves:     831
 k-point 46 :   0.2500 0.0833 0.0833  plane waves:     835
 k-point 47 :   0.3333 0.0833 0.0833  plane waves:     828
 k-point 48 :   0.4167 0.0833 0.0833  plane waves:     831
 k-point 49 :   0.5000 0.0833 0.0833  plane waves:     830
 k-point 50 :  -0.4167 0.0833 0.0833  plane waves:     827
 k-point 51 :  -0.3333 0.0833 0.0833  plane waves:     823
 k-point 52 :  -0.2500 0.0833 0.0833  plane waves:     817
 k-point 53 :  -0.1667 0.0833 0.0833  plane waves:     807
 k-point 54 :  -0.0833 0.0833 0.0833  plane waves:     821
 k-point 55 :   0.1667 0.1667 0.0833  plane waves:     823
 k-point 56 :   0.2500 0.1667 0.0833  plane waves:     830
 k-point 57 :   0.3333 0.1667 0.0833  plane waves:     827
 k-point 58 :   0.4167 0.1667 0.0833  plane waves:     832
 k-point 59 :   0.5000 0.1667 0.0833  plane waves:     827
 k-point 60 :  -0.4167 0.1667 0.0833  plane waves:     827
 k-point 61 :  -0.3333 0.1667 0.0833  plane waves:     820
 k-point 62 :  -0.2500 0.1667 0.0833  plane waves:     820
 k-point 63 :  -0.1667 0.1667 0.0833  plane waves:     820
 k-point 64 :  -0.0833 0.1667 0.0833  plane waves:     824
 k-point 65 :   0.2500 0.2500 0.0833  plane waves:     824
 k-point 66 :   0.3333 0.2500 0.0833  plane waves:     834
 k-point 67 :   0.4167 0.2500 0.0833  plane waves:     833
 k-point 68 :   0.5000 0.2500 0.0833  plane waves:     832
 k-point 69 :  -0.4167 0.2500 0.0833  plane waves:     831
 k-point 70 :  -0.3333 0.2500 0.0833  plane waves:     828
 k-point 71 :  -0.2500 0.2500 0.0833  plane waves:     825
 k-point 72 :  -0.1667 0.2500 0.0833  plane waves:     820
 k-point 73 :  -0.0833 0.2500 0.0833  plane waves:     822
 k-point 74 :   0.3333 0.3333 0.0833  plane waves:     830
 k-point 75 :   0.4167 0.3333 0.0833  plane waves:     832
 k-point 76 :   0.5000 0.3333 0.0833  plane waves:     834
 k-point 77 :  -0.4167 0.3333 0.0833  plane waves:     834
 k-point 78 :  -0.3333 0.3333 0.0833  plane waves:     827
 k-point 79 :  -0.2500 0.3333 0.0833  plane waves:     828
 k-point 80 :  -0.1667 0.3333 0.0833  plane waves:     824
 k-point 81 :  -0.0833 0.3333 0.0833  plane waves:     824
 k-point 82 :   0.4167 0.4167 0.0833  plane waves:     833
 k-point 83 :   0.5000 0.4167 0.0833  plane waves:     831
 k-point 84 :  -0.4167 0.4167 0.0833  plane waves:     831
 k-point 85 :  -0.3333 0.4167 0.0833  plane waves:     825
 k-point 86 :  -0.2500 0.4167 0.0833  plane waves:     830
 k-point 87 :  -0.1667 0.4167 0.0833  plane waves:     822
 k-point 88 :  -0.0833 0.4167 0.0833  plane waves:     823
 k-point 89 :   0.5000 0.5000 0.0833  plane waves:     830
 k-point 90 :  -0.4167 0.5000 0.0833  plane waves:     829
 k-point 91 :  -0.3333 0.5000 0.0833  plane waves:     827
 k-point 92 :  -0.2500 0.5000 0.0833  plane waves:     827
 k-point 93 :  -0.1667 0.5000 0.0833  plane waves:     822
 k-point 94 :  -0.0833 0.5000 0.0833  plane waves:     818
 k-point 95 :  -0.4167-0.4167 0.0833  plane waves:     820
 k-point 96 :  -0.3333-0.4167 0.0833  plane waves:     826
 k-point 97 :  -0.2500-0.4167 0.0833  plane waves:     826
 k-point 98 :  -0.1667-0.4167 0.0833  plane waves:     825
 k-point 99 :  -0.3333-0.3333 0.0833  plane waves:     826
 k-point ** :  -0.2500-0.3333 0.0833  plane waves:     828
 k-point ** :  -0.1667-0.3333 0.0833  plane waves:     828
 k-point ** :  -0.2500-0.2500 0.0833  plane waves:     826
 k-point ** :  -0.1667-0.2500 0.0833  plane waves:     817
 k-point ** :  -0.1667-0.1667 0.0833  plane waves:     822
 k-point ** :   0.1667 0.1667 0.1667  plane waves:     826
 k-point ** :   0.2500 0.1667 0.1667  plane waves:     833
 k-point ** :   0.3333 0.1667 0.1667  plane waves:     832
 k-point ** :   0.4167 0.1667 0.1667  plane waves:     836
 k-point ** :   0.5000 0.1667 0.1667  plane waves:     832
 k-point ** :  -0.4167 0.1667 0.1667  plane waves:     826
 k-point ** :  -0.3333 0.1667 0.1667  plane waves:     824
 k-point ** :  -0.2500 0.1667 0.1667  plane waves:     821
 k-point ** :  -0.1667 0.1667 0.1667  plane waves:     817
 k-point ** :   0.2500 0.2500 0.1667  plane waves:     831
 k-point ** :   0.3333 0.2500 0.1667  plane waves:     832
 k-point ** :   0.4167 0.2500 0.1667  plane waves:     834
 k-point ** :   0.5000 0.2500 0.1667  plane waves:     830
 k-point ** :  -0.4167 0.2500 0.1667  plane waves:     829
 k-point ** :  -0.3333 0.2500 0.1667  plane waves:     826
 k-point ** :  -0.2500 0.2500 0.1667  plane waves:     822
 k-point ** :  -0.1667 0.2500 0.1667  plane waves:     820
 k-point ** :   0.3333 0.3333 0.1667  plane waves:     834
 k-point ** :   0.4167 0.3333 0.1667  plane waves:     831
 k-point ** :   0.5000 0.3333 0.1667  plane waves:     828
 k-point ** :  -0.4167 0.3333 0.1667  plane waves:     829
 k-point ** :  -0.3333 0.3333 0.1667  plane waves:     828
 k-point ** :  -0.2500 0.3333 0.1667  plane waves:     825
 k-point ** :  -0.1667 0.3333 0.1667  plane waves:     828
 k-point ** :   0.4167 0.4167 0.1667  plane waves:     830
 k-point ** :   0.5000 0.4167 0.1667  plane waves:     828
 k-point ** :  -0.4167 0.4167 0.1667  plane waves:     826
 k-point ** :  -0.3333 0.4167 0.1667  plane waves:     826
 k-point ** :  -0.2500 0.4167 0.1667  plane waves:     825
 k-point ** :  -0.1667 0.4167 0.1667  plane waves:     827
 k-point ** :   0.5000 0.5000 0.1667  plane waves:     826
 k-point ** :  -0.4167 0.5000 0.1667  plane waves:     824
 k-point ** :  -0.3333 0.5000 0.1667  plane waves:     826
 k-point ** :  -0.2500 0.5000 0.1667  plane waves:     827
 k-point ** :  -0.1667 0.5000 0.1667  plane waves:     820
 k-point ** :  -0.4167-0.4167 0.1667  plane waves:     828
 k-point ** :  -0.3333-0.4167 0.1667  plane waves:     825
 k-point ** :  -0.2500-0.4167 0.1667  plane waves:     824
 k-point ** :  -0.3333-0.3333 0.1667  plane waves:     819
 k-point ** :  -0.2500-0.3333 0.1667  plane waves:     821
 k-point ** :  -0.2500-0.2500 0.1667  plane waves:     817
 k-point ** :   0.2500 0.2500 0.2500  plane waves:     831
 k-point ** :   0.3333 0.2500 0.2500  plane waves:     828
 k-point ** :   0.4167 0.2500 0.2500  plane waves:     837
 k-point ** :   0.5000 0.2500 0.2500  plane waves:     822
 k-point ** :  -0.4167 0.2500 0.2500  plane waves:     826
 k-point ** :  -0.3333 0.2500 0.2500  plane waves:     827
 k-point ** :  -0.2500 0.2500 0.2500  plane waves:     821
 k-point ** :   0.3333 0.3333 0.2500  plane waves:     833
 k-point ** :   0.4167 0.3333 0.2500  plane waves:     837
 k-point ** :   0.5000 0.3333 0.2500  plane waves:     835
 k-point ** :  -0.4167 0.3333 0.2500  plane waves:     830
 k-point ** :  -0.3333 0.3333 0.2500  plane waves:     820
 k-point ** :  -0.2500 0.3333 0.2500  plane waves:     818
 k-point ** :   0.4167 0.4167 0.2500  plane waves:     831
 k-point ** :   0.5000 0.4167 0.2500  plane waves:     832
 k-point ** :  -0.4167 0.4167 0.2500  plane waves:     828
 k-point ** :  -0.3333 0.4167 0.2500  plane waves:     820
 k-point ** :  -0.2500 0.4167 0.2500  plane waves:     827
 k-point ** :   0.5000 0.5000 0.2500  plane waves:     831
 k-point ** :  -0.4167 0.5000 0.2500  plane waves:     828
 k-point ** :  -0.3333 0.5000 0.2500  plane waves:     826
 k-point ** :  -0.2500 0.5000 0.2500  plane waves:     828
 k-point ** :  -0.4167-0.4167 0.2500  plane waves:     826
 k-point ** :  -0.3333-0.4167 0.2500  plane waves:     830
 k-point ** :  -0.3333-0.3333 0.2500  plane waves:     823
 k-point ** :   0.3333 0.3333 0.3333  plane waves:     840
 k-point ** :   0.4167 0.3333 0.3333  plane waves:     842
 k-point ** :   0.5000 0.3333 0.3333  plane waves:     834
 k-point ** :  -0.4167 0.3333 0.3333  plane waves:     835
 k-point ** :  -0.3333 0.3333 0.3333  plane waves:     820
 k-point ** :   0.4167 0.4167 0.3333  plane waves:     839
 k-point ** :   0.5000 0.4167 0.3333  plane waves:     833
 k-point ** :  -0.4167 0.4167 0.3333  plane waves:     830
 k-point ** :  -0.3333 0.4167 0.3333  plane waves:     824
 k-point ** :   0.5000 0.5000 0.3333  plane waves:     833
 k-point ** :  -0.4167 0.5000 0.3333  plane waves:     832
 k-point ** :  -0.3333 0.5000 0.3333  plane waves:     828
 k-point ** :  -0.4167-0.4167 0.3333  plane waves:     830
 k-point ** :   0.4167 0.4167 0.4167  plane waves:     837
 k-point ** :   0.5000 0.4167 0.4167  plane waves:     834
 k-point ** :  -0.4167 0.4167 0.4167  plane waves:     834
 k-point ** :   0.5000 0.5000 0.4167  plane waves:     835
 k-point ** :  -0.4167 0.5000 0.4167  plane waves:     830
 k-point ** :   0.5000 0.5000 0.5000  plane waves:     852

 maximum and minimum number of plane-waves per node :       229      177

 maximum number of plane-waves:       852
 maximum index in each direction: 
   IXMAX=    6   IYMAX=    6   IZMAX=    5
   IXMIN=   -6   IYMIN=   -6   IZMIN=   -6


 parallel 3D FFT for wavefunctions:
    minimum data exchange during FFTs selected (reduces bandwidth)
 parallel 3D FFT for charge:
    minimum data exchange during FFTs selected (reduces bandwidth)


 total amount of memory used by VASP MPI-rank0    37682. kBytes
=======================================================================

   base      :      30000. kBytes
   nonl-proj :       2640. kBytes
   fftplans  :        346. kBytes
   grid      :        481. kBytes
   one-center:          6. kBytes
   wavefun   :       4209. kBytes
 
     INWAV:  cpu time    0.0003: real time    0.0005
 Broyden mixing: mesh for mixing (old mesh)
   NGX = 11   NGY = 11   NGZ = 11
  (NGX  = 48   NGY  = 48   NGZ  = 48)
  gives a total of   1331 points

 initial charge density was supplied:
 charge density of overlapping atoms calculated
 number of electron      32.0000000 magnetization 
 keeping initial charge density in first step


--------------------------------------------------------------------------------------------------------


 Maximum index for augmentation-charges          281 (set IRDMAX)


--------------------------------------------------------------------------------------------------------


 First call to EWALD:  gamma=   0.496
 Maximum number of real-space cells 3x 3x 3
 Maximum number of reciprocal cells 3x 3x 3

    FEWALD:  cpu time    0.0053: real time    0.0053


--------------------------------------- Iteration      1(   1)  ---------------------------------------


    POTLOK:  cpu time    0.0278: real time    0.0319
    SETDIJ:  cpu time    0.0065: real time    0.0065
     EDDAV:  cpu time    9.6189: real time    9.6315
 BZINTS: Fermi energy: 18.599984; 32.000000 electrons
         Band energy: 121.488646;  BLOECHL correction: -0.197368
       DOS:  cpu time    0.4921: real time    0.4921
    --------------------------------------------
      LOOP:  cpu time   10.1453: real time   10.1621

 eigenvalue-minimisations  :  9072
 total energy-change (2. order) : 0.5785474E+02  (-0.1442616E+04)
 number of electron      32.0000000 magnetization 
 augmentation part       32.0000000 magnetization 

 Free energy of the ion-electron system (eV)
  ---------------------------------------------------
  alpha Z        PSCENC =       114.53722602
  Ewald energy   TEWEN  =     -1388.99509004
  -Hartree energ DENC   =       -71.31241091
  -exchange      EXHF   =         0.00000000
  -V(xc)+E(xc)   XCENC  =       114.32241645
  PAW double counting   =       302.65154477     -311.85538214
  entropy T*S    EENTRO =         0.00000000
  eigenvalues    EBANDS =       121.48864644
  atomic energy  EATOM  =      1177.01779097
  Solvation  Ediel_sol  =         0.00000000
  ---------------------------------------------------
  free energy    TOTEN  =        57.85474157 eV

  energy without entropy =       57.85474157  energy(sigma->0) =       57.85474157


--------------------------------------------------------------------------------------------------------




--------------------------------------- Iteration      1(   2)  ---------------------------------------


     EDDAV:  cpu time   12.0135: real time   12.0154
 BZINTS: Fermi energy:  8.947589; 32.000000 electrons
         Band energy:  -7.087846;  BLOECHL correction:  0.000000
       DOS:  cpu time    0.1220: real time    0.1220
    --------------------------------------------
      LOOP:  cpu time   12.1355: real time   12.1374

 eigenvalue-minimisations  : 12544
 total energy-change (2. order) :-0.1285765E+03  (-0.1218942E+03)
 number of electron      32.0000000 magnetization 
 augmentation part       32.0000000 magnetization 

 Free energy of the ion-electron system (eV)
  ---------------------------------------------------
  alpha Z        PSCENC =       114.53722602
  Ewald energy   TEWEN  =     -1388.99509004
  -Hartree energ DENC   =       -71.31241091
  -exchange      EXHF   =         0.00000000
  -V(xc)+E(xc)   XCENC  =       114.32241645
  PAW double counting   =       302.65154477     -311.85538214
  entropy T*S    EENTRO =         0.00000000
  eigenvalues    EBANDS =        -7.08784606
  atomic energy  EATOM  =      1177.01779097
  Solvation  Ediel_sol  =         0.00000000
  ---------------------------------------------------
  free energy    TOTEN  =       -70.72175093 eV

  energy without entropy =      -70.72175093  energy(sigma->0) =      -70.72175093


--------------------------------------------------------------------------------------------------------




--------------------------------------- Iteration      1(   3)  ---------------------------------------


     EDDAV:  cpu time   11.4998: real time   11.5031
 BZINTS: Fermi energy:  8.410924; 32.000000 electrons
         Band energy: -11.235883;  BLOECHL correction:  0.000000
       DOS:  cpu time    0.1079: real time    0.1079
    --------------------------------------------
      LOOP:  cpu time   11.6076: real time   11.6110

 eigenvalue-minimisations  : 11896
 total energy-change (2. order) :-0.4148037E+01  (-0.4127753E+01)
 number of electron      32.0000000 magnetization 
 augmentation part       32.0000000 magnetization 

 Free energy of the ion-electron system (eV)
  ---------------------------------------------------
  alpha Z        PSCENC =       114.53722602
  Ewald energy   TEWEN  =     -1388.99509004
  -Hartree energ DENC   =       -71.31241091
  -exchange      EXHF   =         0.00000000
  -V(xc)+E(xc)   XCENC  =       114.32241645
  PAW double counting   =       302.65154477     -311.85538214
  entropy T*S    EENTRO =         0.00000000
  eigenvalues    EBANDS =       -11.23588333
  atomic energy  EATOM  =      1177.01779097
  Solvation  Ediel_sol  =         0.00000000
  ---------------------------------------------------
  free energy    TOTEN  =       -74.86978820 eV

  energy without entropy =      -74.86978820  energy(sigma->0) =      -74.86978820


--------------------------------------------------------------------------------------------------------




--------------------------------------- Iteration      1(   4)  ---------------------------------------


     EDDAV:  cpu time   11.0448: real time   11.0458
 BZINTS: Fermi energy:  8.489642; 32.000000 electrons
         Band energy: -11.277305;  BLOECHL correction:  0.000000
       DOS:  cpu time    0.1213: real time    0.1213
    --------------------------------------------
      LOOP:  cpu time   11.1661: real time   11.1671

 eigenvalue-minimisations  : 11200
 total energy-change (2. order) :-0.4142140E-01  (-0.4139030E-01)
 number of electron      32.0000000 magnetization 
 augmentation part       32.0000000 magnetization 

 Free energy of the ion-electron system (eV)
  ---------------------------------------------------
  alpha Z        PSCENC =       114.53722602
  Ewald energy   TEWEN  =     -1388.99509004
  -Hartree energ DENC   =       -71.31241091
  -exchange      EXHF   =         0.00000000
  -V(xc)+E(xc)   XCENC  =       114.32241645
  PAW double counting   =       302.65154477     -311.85538214
  entropy T*S    EENTRO =         0.00000000
  eigenvalues    EBANDS =       -11.27730473
  atomic energy  EATOM  =      1177.01779097
  Solvation  Ediel_sol  =         0.00000000
  ---------------------------------------------------
  free energy    TOTEN  =       -74.91120960 eV

  energy without entropy =      -74.91120960  energy(sigma->0) =      -74.91120960


--------------------------------------------------------------------------------------------------------




--------------------------------------- Iteration      1(   5)  ---------------------------------------


     EDDAV:  cpu time   11.3430: real time   11.3438
 BZINTS: Fermi energy:  8.479199; 32.000000 electrons
         Band energy: -11.278153;  BLOECHL correction:  0.000000
       DOS:  cpu time    0.1211: real time    0.1211
    CHARGE:  cpu time    0.2649: real time    0.2649
    MIXING:  cpu time    0.0016: real time    0.0016
    --------------------------------------------
      LOOP:  cpu time   11.7306: real time   11.7315

 eigenvalue-minimisations  : 11848
 total energy-change (2. order) :-0.8477733E-03  (-0.8474435E-03)
 number of electron      32.0000013 magnetization 
 augmentation part        0.7875498 magnetization 

 Broyden mixing:
  rms(total) = 0.95520E+00    rms(broyden)= 0.95500E+00
  rms(prec ) = 0.22602E+01
  weight for this iteration     100.00

 Free energy of the ion-electron system (eV)
  ---------------------------------------------------
  alpha Z        PSCENC =       114.53722602
  Ewald energy   TEWEN  =     -1388.99509004
  -Hartree energ DENC   =       -71.31241091
  -exchange      EXHF   =         0.00000000
  -V(xc)+E(xc)   XCENC  =       114.32241645
  PAW double counting   =       302.65154477     -311.85538214
  entropy T*S    EENTRO =         0.00000000
  eigenvalues    EBANDS =       -11.27815250
  atomic energy  EATOM  =      1177.01779097
  Solvation  Ediel_sol  =         0.00000000
  ---------------------------------------------------
  free energy    TOTEN  =       -74.91205737 eV

  energy without entropy =      -74.91205737  energy(sigma->0) =      -74.91205737


--------------------------------------------------------------------------------------------------------




--------------------------------------- Iteration      1(   6)  ---------------------------------------


    POTLOK:  cpu time    0.0214: real time    0.0217
    SETDIJ:  cpu time    0.0060: real time    0.0061
     EDDAV:  cpu time   10.4240: real time   10.4249
 BZINTS: Fermi energy:  9.124416; 32.000000 electrons
         Band energy:   5.082921;  BLOECHL correction:  0.000000
       DOS:  cpu time    0.1216: real time    0.1216
    CHARGE:  cpu time    0.2613: real time    0.2613
    MIXING:  cpu time    0.0018: real time    0.0018
    --------------------------------------------
      LOOP:  cpu time   10.8361: real time   10.8374

 eigenvalue-minimisations  : 10264
 total energy-change (2. order) : 0.1933809E+01  (-0.1293426E+00)
 number of electron      32.0000013 magnetization 
 augmentation part        0.7694761 magnetization 

 Broyden mixing:
  rms(total) = 0.52313E+00    rms(broyden)= 0.52312E+00
  rms(prec ) = 0.12200E+01
  weight for this iteration     100.00

 eigenvalues of (default mixing * dielectric matrix)
  average eigenvalue GAMMA=   2.1640
  2.1640

 Free energy of the ion-electron system (eV)
  ---------------------------------------------------
  alpha Z        PSCENC =       114.53722602
  Ewald energy   TEWEN  =     -1388.99509004
  -Hartree energ DENC   =       -86.62090256
  -exchange      EXHF   =         0.00000000
  -V(xc)+E(xc)   XCENC  =       115.74755943
  PAW double counting   =       394.03086094     -403.77861363
  entropy T*S    EENTRO =         0.00000000
  eigenvalues    EBANDS =         5.08292083
  atomic energy  EATOM  =      1177.01779097
  Solvation  Ediel_sol  =         0.00000000
  ---------------------------------------------------
  free energy    TOTEN  =       -72.97824804 eV

  energy without entropy =      -72.97824804  energy(sigma->0) =      -72.97824804


--------------------------------------------------------------------------------------------------------




--------------------------------------- Iteration      1(   7)  ---------------------------------------


    POTLOK:  cpu time    0.0203: real time    0.0207
    SETDIJ:  cpu time    0.0059: real time    0.0059
     EDDAV:  cpu time   10.5253: real time   10.5263
 BZINTS: Fermi energy:  9.851982; 32.000000 electrons
         Band energy:  23.904839;  BLOECHL correction:  0.000000
       DOS:  cpu time    0.1222: real time    0.1222
    CHARGE:  cpu time    0.2655: real time    0.2655
    MIXING:  cpu time    0.0021: real time    0.0020
    --------------------------------------------
      LOOP:  cpu time   10.9413: real time   10.9426

 eigenvalue-minimisations  : 10792
 total energy-change (2. order) : 0.6497232E+00  (-0.1478411E+00)
 number of electron      32.0000012 magnetization 
 augmentation part        0.7500676 magnetization 

 Broyden mixing:
  rms(total) = 0.70850E-01    rms(broyden)= 0.70509E-01
  rms(prec ) = 0.12423E+00
  weight for this iteration     100.00

 eigenvalues of (default mixing * dielectric matrix)
  average eigenvalue GAMMA=   2.2705
  2.0287  2.5123

 Free energy of the ion-electron system (eV)
  ---------------------------------------------------
  alpha Z        PSCENC =       114.53722602
  Ewald energy   TEWEN  =     -1388.99509004
  -Hartree energ DENC   =      -106.11356747
  -exchange      EXHF   =         0.00000000
  -V(xc)+E(xc)   XCENC  =       117.58379830
  PAW double counting   =       518.09411250     -528.35763422
  entropy T*S    EENTRO =         0.00000000
  eigenvalues    EBANDS =        23.90483908
  atomic energy  EATOM  =      1177.01779097
  Solvation  Ediel_sol  =         0.00000000
  ---------------------------------------------------
  free energy    TOTEN  =       -72.32852485 eV

  energy without entropy =      -72.32852485  energy(sigma->0) =      -72.32852485


--------------------------------------------------------------------------------------------------------




--------------------------------------- Iteration      1(   8)  ---------------------------------------


    POTLOK:  cpu time    0.0214: real time    0.0217
    SETDIJ:  cpu time    0.0059: real time    0.0059
     EDDAV:  cpu time   10.9825: real time   10.9833
 BZINTS: Fermi energy:  9.837273; 32.000000 electrons
         Band energy:  24.146873;  BLOECHL correction:  0.000000
       DOS:  cpu time    0.1224: real time    0.1224
    CHARGE:  cpu time    0.2719: real time    0.2720
    MIXING:  cpu time    0.0020: real time    0.0020
    --------------------------------------------
      LOOP:  cpu time   11.4060: real time   11.4072

 eigenvalue-minimisations  : 11328
 total energy-change (2. order) :-0.7895806E-02  (-0.3546593E-02)
 number of electron      32.0000012 magnetization 
 augmentation part        0.7505159 magnetization 

 Broyden mixing:
  rms(total) = 0.77020E-02    rms(broyden)= 0.75932E-02
  rms(prec ) = 0.13095E-01
  weight for this iteration     100.00

 eigenvalues of (default mixing * dielectric matrix)
  average eigenvalue GAMMA=   2.0392
  1.3751  2.6438  2.0988

 Free energy of the ion-electron system (eV)
  ---------------------------------------------------
  alpha Z        PSCENC =       114.53722602
  Ewald energy   TEWEN  =     -1388.99509004
  -Hartree energ DENC   =      -106.53937600
  -exchange      EXHF   =         0.00000000
  -V(xc)+E(xc)   XCENC  =       117.62912733
  PAW double counting   =       527.56793136     -537.70090351
[...]

 k-point   177 :       0.5000    0.4167    0.3333
  band No.  band energies     occupation 
      1      -7.2583      2.00000
      2      -6.5599      2.00000
      3      -6.2132      2.00000
      4      -6.1126      2.00000
      5      -3.1798      2.00000
      6      -3.0758      2.00000
      7      -2.0496      2.00000
      8      -1.6999      2.00000
      9       5.7088      2.00000
     10       5.7974      2.00000
     11       5.8456      2.00000
     12       6.4417      2.00000
     13       6.4778      2.00000
     14       6.7375      2.00000
     15       6.7631      2.00000
     16       7.0833      2.00000
     17      17.3337      0.00000
     18      17.6899      0.00000
     19      17.8428      0.00000
     20      17.8452      0.00000
     21      18.0481      0.00000
     22      18.1895      0.00000
     23      18.3173      0.00000
     24      18.3608      0.00000

 k-point   178 :      -0.4167    0.4167    0.3333
  band No.  band energies     occupation 
      1      -7.8226      2.00000
      2      -6.5040      2.00000
      3      -5.9447      2.00000
      4      -5.7688      2.00000
      5      -3.2650      2.00000
      6      -2.7214      2.00000
      7      -2.3860      2.00000
      8      -1.4251      2.00000
      9       5.3395      2.00000
     10       5.5085      2.00000
     11       5.9211      2.00000
     12       5.9418      2.00000
     13       6.5718      2.00000
     14       6.7383      2.00000
     15       6.9327      2.00000
     16       7.3909      2.00000
     17      17.0580      0.00000
     18      17.6431      0.00000
     19      17.6670      0.00000
     20      17.6703      0.00000
     21      18.0759      0.00000
     22      18.1351      0.00000
     23      18.5976      0.00000
     24      19.0838      0.00000

 k-point   179 :      -0.3333    0.4167    0.3333
  band No.  band energies     occupation 
      1      -8.2938      2.00000
      2      -6.9326      2.00000
      3      -5.9468      2.00000
      4      -4.9424      2.00000
      5      -2.9631      2.00000
      6      -2.9021      2.00000
      7      -2.0055      2.00000
      8      -0.6733      2.00000
      9       4.5201      2.00000
     10       5.2540      2.00000
     11       5.4954      2.00000
     12       5.9964      2.00000
     13       6.0604      2.00000
     14       6.4157      2.00000
     15       7.1246      2.00000
     16       7.5403      2.00000
     17      16.7082      0.00000
     18      17.2803      0.00000
     19      17.3544      0.00000
     20      17.5785      0.00000
     21      18.2151      0.00000
     22      18.6954      0.00000
     23      19.4651      0.00000
     24      19.6936      0.00000

 k-point   180 :       0.5000    0.5000    0.3333
  band No.  band energies     occupation 
      1      -6.7197      2.00000
      2      -6.7197      2.00000
      3      -6.6158      2.00000
      4      -5.8813      2.00000
      5      -2.8245      2.00000
      6      -2.7159      2.00000
      7      -2.7159      2.00000
      8      -2.4787      2.00000
      9       5.5346      2.00000
     10       6.2164      2.00000
     11       6.2164      2.00000
     12       6.2595      2.00000
     13       6.3696      2.00000
     14       7.0444      2.00000
     15       7.0444      2.00000
     16       7.1138      2.00000
     17      17.3724      0.00000
     18      17.8191      0.00000
     19      17.8191      0.00000
     20      17.9305      0.00000
     21      18.0169      0.00000
     22      18.0857      0.00000
     23      18.1224      0.00000
     24      18.6024      0.00000

 k-point   181 :      -0.4167    0.5000    0.3333
  band No.  band energies     occupation 
      1      -7.2200      2.00000
      2      -7.1598      2.00000
      3      -6.1986      2.00000
      4      -5.1624      2.00000
      5      -3.1395      2.00000
      6      -3.0909      2.00000
      7      -2.2037      2.00000
      8      -2.1394      2.00000
      9       5.1455      2.00000
     10       5.9197      2.00000
     11       6.0158      2.00000
     12       6.5514      2.00000
     13       6.6019      2.00000
     14       6.6039      2.00000
     15       7.0812      2.00000
     16       7.2244      2.00000
     17      17.3565      0.00000
     18      17.6071      0.00000
     19      17.6178      0.00000
     20      17.7527      0.00000
     21      17.8512      0.00000
     22      18.2511      0.00000
     23      18.7284      0.00000
     24      18.9661      0.00000

 k-point   182 :      -0.3333    0.5000    0.3333
  band No.  band energies     occupation 
      1      -7.6545      2.00000
      2      -7.6545      2.00000
      3      -5.8462      2.00000
      4      -4.6517      2.00000
      5      -3.2906      2.00000
      6      -3.1710      2.00000
      7      -1.4097      2.00000
      8      -1.4097      2.00000
      9       4.5629      2.00000
     10       5.4336      2.00000
     11       5.5813      2.00000
     12       6.0077      2.00000
     13       6.7006      2.00000
     14       6.7006      2.00000
     15       7.0078      2.00000
     16       7.0078      2.00000
     17      17.3474      0.00000
     18      17.3474      0.00000
     19      17.3996      0.00000
     20      17.7975      0.00000
     21      17.8652      0.00000
     22      18.7660      0.00000
     23      18.7660      0.00000
     24      19.9336      0.00000

 k-point   183 :      -0.4167   -0.4167    0.3333
  band No.  band energies     occupation 
      1      -7.7698      2.00000
      2      -6.5663      2.00000
      3      -6.5663      2.00000
      4      -4.7575      2.00000
      5      -3.3913      2.00000
      6      -2.6803      2.00000
      7      -2.6803      2.00000
      8      -1.5065      2.00000
      9       4.8917      2.00000
     10       5.8442      2.00000
     11       6.1989      2.00000
     12       6.1989      2.00000
     13       6.4331      2.00000
     14       6.4331      2.00000
     15       6.9386      2.00000
     16       7.5347      2.00000
     17      16.8746      0.00000
     18      17.4731      0.00000
     19      17.6057      0.00000
     20      17.6057      0.00000
     21      18.1083      0.00000
     22      18.7491      0.00000
     23      18.9310      0.00000
     24      19.4834      0.00000

 k-point   184 :       0.4167    0.4167    0.4167
  band No.  band energies     occupation 
      1      -6.6730      2.00000
      2      -6.3212      2.00000
      3      -6.3212      2.00000
      4      -6.3212      2.00000
      5      -3.1869      2.00000
      6      -3.1869      2.00000
      7      -3.1869      2.00000
      8      -1.7938      2.00000
      9       6.3648      2.00000
     10       6.3648      2.00000
     11       6.3648      2.00000
     12       6.5021      2.00000
     13       6.5021      2.00000
     14       6.7890      2.00000
     15       6.7890      2.00000
     16       6.7890      2.00000
     17      17.1162      0.00000
     18      17.6820      0.00000
     19      17.6820      0.00000
     20      17.6820      0.00000
     21      17.8248      0.00000
     22      17.8248      0.00000
     23      18.3670      0.00000
     24      18.3670      0.00000

 k-point   185 :       0.5000    0.4167    0.4167
  band No.  band energies     occupation 
      1      -6.8305      2.00000
      2      -6.1596      2.00000
      3      -6.1596      2.00000
      4      -5.9911      2.00000
      5      -3.4866      2.00000
      6      -3.4866      2.00000
      7      -2.8246      2.00000
      8      -2.5791      2.00000
      9       6.2631      2.00000
     10       6.3430      2.00000
     11       6.4639      2.00000
     12       6.4639      2.00000
     13       6.9218      2.00000
     14       6.9728      2.00000
     15       6.9728      2.00000
     16       7.0861      2.00000
     17      17.2322      0.00000
     18      17.6947      0.00000
     19      17.8856      0.00000
     20      17.9305      0.00000
     21      17.9306      0.00000
     22      17.9316      0.00000
     23      18.0578      0.00000
     24      18.0952      0.00000

 k-point   186 :      -0.4167    0.4167    0.4167
  band No.  band energies     occupation 
      1      -7.3333      2.00000
      2      -6.2730      2.00000
      3      -6.2730      2.00000
      4      -5.2686      2.00000
      5      -3.2854      2.00000
      6      -3.2854      2.00000
      7      -3.1955      2.00000
      8      -2.2437      2.00000
      9       5.7722      2.00000
     10       6.0379      2.00000
     11       6.4419      2.00000
     12       6.4419      2.00000
     13       6.8100      2.00000
     14       6.8100      2.00000
     15       7.1225      2.00000
     16       7.3440      2.00000
     17      17.1527      0.00000
     18      17.5833      0.00000
     19      17.6423      0.00000
     20      17.6423      0.00000
     21      18.0156      0.00000
     22      18.0592      0.00000
     23      18.4292      0.00000
     24      18.7224      0.00000

 k-point   187 :       0.5000    0.5000    0.4167
  band No.  band energies     occupation 
      1      -6.4160      2.00000
      2      -6.4160      2.00000
      3      -6.3823      2.00000
      4      -5.3780      2.00000
      5      -3.3951      2.00000
      6      -3.3604      2.00000
      7      -3.3604      2.00000
      8      -3.2967      2.00000
      9       6.1497      2.00000
     10       6.3680      2.00000
     11       6.8059      2.00000
     12       6.8581      2.00000
     13       6.8581      2.00000
     14       7.1226      2.00000
     15       7.1226      2.00000
     16       7.2052      2.00000
     17      17.2617      0.00000
     18      17.6897      0.00000
     19      17.6897      0.00000
     20      17.7248      0.00000
     21      17.8186      0.00000
     22      17.8854      0.00000
     23      18.0631      0.00000
     24      18.2355      0.00000

 k-point   188 :      -0.4167    0.5000    0.4167
  band No.  band energies     occupation 
      1      -6.7888      2.00000
      2      -6.7888      2.00000
      3      -6.1682      2.00000
      4      -4.9701      2.00000
      5      -3.5981      2.00000
      6      -3.5019      2.00000
      7      -2.8924      2.00000
      8      -2.8924      2.00000
      9       5.8376      2.00000
     10       6.1685      2.00000
     11       6.7113      2.00000
     12       6.7398      2.00000
     13       6.9189      2.00000
     14       6.9189      2.00000
     15       7.1783      2.00000
     16       7.1783      2.00000
     17      17.4250      0.00000
     18      17.5862      0.00000
     19      17.5862      0.00000
     20      17.6478      0.00000
     21      17.6665      0.00000
     22      18.2798      0.00000
     23      18.2799      0.00000
     24      18.3072      0.00000

 k-point   189 :       0.5000    0.5000    0.5000
  band No.  band energies     occupation 
      1      -6.2762      2.00000
      2      -6.2762      2.00000
      3      -6.2762      2.00000
      4      -5.0770      2.00000
      5      -3.7041      2.00000
      6      -3.6144      2.00000
      7      -3.6144      2.00000
      8      -3.6144      2.00000
      9       6.3662      2.00000
     10       6.3662      2.00000
     11       6.9979      2.00000
     12       6.9979      2.00000
     13       6.9979      2.00000
     14       7.2397      2.00000
     15       7.2397      2.00000
     16       7.2397      2.00000
     17      17.1419      0.00000
     18      17.6205      0.00000
     19      17.6205      0.00000
     20      17.6205      0.00000
     21      17.8010      0.00000
     22      17.8019      0.00000
     23      18.1002      0.00000
     24      18.1002      0.00000


--------------------------------------------------------------------------------------------------------


 soft charge-density along one line, spin component           1
         0         1         2         3         4         5         6         7         8         9
 total charge-density along one line
 
 pseudopotential strength for first ion, spin component:           1
  9.442  -0.005  -0.000  -0.000  -0.000   0.000   0.000   0.000
 -0.005  -0.002  -0.000  -0.000  -0.000   0.000   0.000   0.000
 -0.000  -0.000  -3.662   0.000   0.000  -0.009  -0.000  -0.000
 -0.000  -0.000   0.000  -3.662   0.000  -0.000  -0.009  -0.000
 -0.000  -0.000   0.000   0.000  -3.662  -0.000  -0.000  -0.009
  0.000   0.000  -0.009  -0.000  -0.000  -0.757   0.000   0.000
  0.000   0.000  -0.000  -0.009  -0.000   0.000  -0.757   0.000
  0.000   0.000  -0.000  -0.000  -0.009   0.000   0.000  -0.757
 total augmentation occupancy for first ion, spin component:           1
  1.426  -1.033  -0.014  -0.015  -0.013  -0.007  -0.008  -0.007
 -1.033   1.035   0.034   0.035   0.033   0.011   0.012   0.011
 -0.014   0.034   1.099   0.030   0.028   0.185   0.004   0.004
 -0.015   0.035   0.030   1.102   0.029   0.004   0.185   0.004
 -0.013   0.033   0.028   0.029   1.097   0.004   0.004   0.184
 -0.007   0.011   0.185   0.004   0.004   0.037   0.001   0.001
 -0.008   0.012   0.004   0.185   0.004   0.001   0.037   0.001
 -0.007   0.011   0.004   0.004   0.184   0.001   0.001   0.036


------------------------ aborting loop because EDIFF is reached ----------------------------------------


    CHARGE:  cpu time    0.2737: real time    0.2738
    FORLOC:  cpu time    0.0020: real time    0.0020
    FORNL :  cpu time    0.4463: real time    0.4463
    STRESS:  cpu time    1.0778: real time    1.0780
    FORHAR:  cpu time    0.0059: real time    0.0059
    MIXING:  cpu time    0.0023: real time    0.0023
    OFIELD:  cpu time    0.0001: real time    0.0001

  FORCE on cell =-STRESS in cart. coord.  units (eV):
  Direction    XX          YY          ZZ          XY          YZ          ZX
  --------------------------------------------------------------------------------------
  Alpha Z   114.53723   114.53723   114.53723
  Ewald    -464.67895  -463.06912  -461.24932    20.10668    21.81863    20.96266
  Hartree    35.12351    35.50028    35.92618     4.70579     5.10646     4.90612
  E(xc)    -119.66110  -119.65910  -119.65684     0.02493     0.02705     0.02599
  Local     -45.56228   -47.36132   -49.39499   -22.46970   -24.38284   -23.42628
  n-local   -28.03321   -28.49432   -28.21298    -0.96329    -0.46587    -1.35700
  augment    -2.84027    -2.84089    -2.84158    -0.00765    -0.00830    -0.00798
  Kinetic   504.25925   510.77946   517.50467     5.81107     1.40839     8.46090
  Fock        0.00000     0.00000     0.00000     0.00000     0.00000     0.00000
  -------------------------------------------------------------------------------------
  Total      -0.83419    -0.30669     0.28963     6.58859     7.14957     6.86908
  in kB     -29.35570   -10.79243    10.19213   231.85579   251.59674   241.72635
  external pressure =       -9.99 kB  Pullay stress =        0.00 kB


 VOLUME and BASIS-vectors are now :
 -----------------------------------------------------------------------------
  energy-cutoff  :      400.00
  volume of cell :       45.53
      direct lattice vectors                 reciprocal lattice vectors
     3.573710000  0.000000000  0.000000000     0.279821250  0.011201783  0.011678665
    -0.142948000  3.570850000  0.000000000     0.000000000  0.280045367  0.011678666
    -0.142948000 -0.148785000  3.567749000     0.000000000  0.000000000  0.280288776

  length of vectors
     3.573710000  3.573710096  3.573710122     0.280288785  0.280288778  0.280288776


 FORCES acting on ions
    electron-ion (+dipol)            ewald-force                    non-local-force                 convergence-correction
 -----------------------------------------------------------------------------------------------
   -.692E+01 -.720E+01 -.750E+01   0.718E+01 0.748E+01 0.780E+01   -.200E-01 -.208E-01 -.217E-01   -.216E-04 -.225E-04 -.234E-04
   0.692E+01 0.720E+01 0.750E+01   -.718E+01 -.748E+01 -.780E+01   0.200E-01 0.208E-01 0.217E-01   0.216E-04 0.225E-04 0.234E-04
   -.692E+01 -.720E+01 -.750E+01   0.718E+01 0.748E+01 0.780E+01   -.200E-01 -.208E-01 -.217E-01   -.216E-04 -.225E-04 -.234E-04
   0.692E+01 0.720E+01 0.750E+01   -.718E+01 -.748E+01 -.780E+01   0.200E-01 0.208E-01 0.217E-01   0.216E-04 0.225E-04 0.234E-04
   -.692E+01 -.720E+01 -.750E+01   0.718E+01 0.748E+01 0.780E+01   -.200E-01 -.208E-01 -.217E-01   -.216E-04 -.225E-04 -.234E-04
   0.692E+01 0.720E+01 0.750E+01   -.718E+01 -.748E+01 -.780E+01   0.200E-01 0.208E-01 0.217E-01   0.216E-04 0.225E-04 0.234E-04
   -.692E+01 -.720E+01 -.750E+01   0.718E+01 0.748E+01 0.780E+01   -.200E-01 -.208E-01 -.217E-01   -.216E-04 -.225E-04 -.234E-04
   0.692E+01 0.720E+01 0.750E+01   -.718E+01 -.748E+01 -.780E+01   0.200E-01 0.208E-01 0.217E-01   0.216E-04 0.225E-04 0.234E-04
 -----------------------------------------------------------------------------------------------
   -.799E-14 0.631E-13 0.195E-13   0.444E-14 -.178E-14 -.888E-15   -.208E-16 0.000E+00 0.694E-17   -.328E-15 -.246E-13 0.148E-13
 
 
 POSITION                                       TOTAL-FORCE (eV/Angst)
 -----------------------------------------------------------------------------------
      0.75048      2.64094      0.89194         0.248589      0.258740      0.269755
     -0.07147     -0.07439      1.78387        -0.248589     -0.258740     -0.269755
      0.75048      0.78112      2.67581         0.248589      0.258740      0.269755
     -0.07147      1.78543      0.00000        -0.248589     -0.258740     -0.269755
      2.46586      2.56655      2.67581         0.248589      0.258740      0.269755
      1.78686      0.00000      0.00000        -0.248589     -0.258740     -0.269755
      2.60881      0.85552      0.89194         0.248589      0.258740      0.269755
      1.64391      1.71103      1.78387        -0.248589     -0.258740     -0.269755
 -----------------------------------------------------------------------------------
    total drift:                               -0.000000      0.000000      0.000000


--------------------------------------------------------------------------------------------------------



  FREE ENERGIE OF THE ION-ELECTRON SYSTEM (eV)
  ---------------------------------------------------
  free  energy   TOTEN  =       -72.33672485 eV

  energy  without entropy=      -72.33672485  energy(sigma->0) =      -72.33672485
 


--------------------------------------------------------------------------------------------------------


    POTLOK:  cpu time    0.0275: real time    0.0275


--------------------------------------------------------------------------------------------------------


     LOOP+:  cpu time  133.4109: real time  133.4519
    4ORBIT:  cpu time    0.0000: real time    0.0000
 BZINTS: Fermi energy:  9.865781; 32.000000 electrons
         Band energy:  24.147908;  BLOECHL correction:  0.000000

 total amount of memory used by VASP MPI-rank0    37682. kBytes
=======================================================================

   base      :      30000. kBytes
   nonl-proj :       2640. kBytes
   fftplans  :        346. kBytes
   grid      :        481. kBytes
   one-center:          6. kBytes
   wavefun   :       4209. kBytes
 
  
  
 General timing and accounting informations for this job:
 ========================================================
  
                  Total CPU time used (sec):      137.059
                            User time (sec):      132.991
                          System time (sec):        4.068
                         Elapsed time (sec):      137.133
  
                   Maximum memory used (kb):      193692.
                   Average memory used (kb):           0.
  
                          Minor page faults:        36888
                          Major page faults:           36
                 Voluntary context switches:          785
