<?xml version="1.0" encoding="ISO-8859-1"?>
<modeling>
 <generator>
  <i name="program" type="string">vasp </i>
  <i name="version" type="string">5.4.4.18Apr17-6-g9f103f2a35  </i>
  <i name="subversion" type="string">(build Mar 12 2022 03:36:41) complex            parallel </i>
  <i name="platform" type="string">IFC19.0.3.199_CrayMPICH7.7.19 </i>
  <i name="date" type="string">2022 11 30 </i>
  <i name="time" type="string">12:36:34 </i>
 </generator>
 <incar>
  <i type="int" name="ISTART">     0</i>
  <i type="string" name="PREC">accurate</i>
  <i name="EDIFF">      0.00000100</i>
  <i name="POTIM">      0.02000000</i>
  <i type="int" name="ISMEAR">    -5</i>
  <i name="SIGMA">      0.06000000</i>
  <i type="logical" name="LWAVE"> F  </i>
  <i type="logical" name="LCHARG"> F  </i>
  <v type="int" name="KPOINT_BSE">    -1     0     0     0</v>
 </incar>
 <structure name="primitive_cell" >
  <crystal>
   <varray name="basis" >
    <v>      -0.14294800       1.71103250       1.78387450 </v>
    <v>       1.71538100      -0.07439250       1.78387450 </v>
    <v>       1.71538100       1.78542500       0.00000000 </v>
   </varray>
   <i name="volume">     11.38217390 </i>
   <varray name="rec_basis" >
    <v>      -0.27982125       0.26884358       0.28028878 </v>
    <v>       0.27982125      -0.26884358       0.28028877 </v>
    <v>       0.27982125       0.29124715      -0.25693144 </v>
   </varray>
  </crystal>
  <varray name="positions" >
   <v>      -0.25000000      -0.25000000      -0.25000000 </v>
   <v>      -0.50000000      -0.50000000      -0.50000000 </v>
  </varray>
 </structure>
 <varray name="primitive_index" >
  <v type="int" >        1 </v>
  <v type="int" >        4 </v>
 </varray>
 <kpoints>
  <generation param="Gamma">
   <v type="int" name="divisions">      12       12       12 </v>
   <v name="usershift">      0.00000000       0.00000000       0.00000000 </v>
   <v name="genvec1">      0.08333333       0.00000000      -0.00000000 </v>
   <v name="genvec2">      0.00000000       0.08333333      -0.00000000 </v>
   <v name="genvec3">      0.00000000       0.00000000       0.08333333 </v>
   <v name="shift">      0.00000000       0.00000000       0.00000000 </v>
  </generation>
  <varray name="kpointlist" >
   <v>       0.00000000       0.00000000       0.00000000 </v>
   <v>       0.08333333       0.00000000       0.00000000 </v>
   <v>       0.16666667       0.00000000      -0.00000000 </v>
   <v>       0.25000000      -0.00000000      -0.00000000 </v>
   <v>       0.33333333       0.00000000       0.00000000 </v>
   <v>       0.41666667       0.00000000       0.00000000 </v>
   <v>       0.50000000      -0.00000000      -0.00000000 </v>
   <v>       0.08333333       0.08333333      -0.00000000 </v>
   <v>       0.16666667       0.08333333      -0.00000000 </v>
   <v>       0.25000000       0.08333333      -0.00000000 </v>
   <v>       0.33333333       0.08333333       0.00000000 </v>
   <v>       0.41666667       0.08333333      -0.00000000 </v>
   <v>       0.50000000       0.08333333       0.00000000 </v>
   <v>      -0.41666667       0.08333333       0.00000000 </v>
   <v>      -0.33333333       0.08333333       0.00000000 </v>
   <v>      -0.25000000       0.08333333       0.00000000 </v>
   <v>      -0.16666667       0.08333333       0.00000000 </v>
   <v>      -0.08333333       0.08333333      -0.00000000 </v>
   <v>       0.16666667       0.16666667      -0.00000000 </v>
   <v>       0.25000000       0.16666667      -0.00000000 </v>
   <v>       0.33333333       0.16666667      -0.00000000 </v>
   <v>       0.41666667       0.16666667      -0.00000000 </v>
   <v>       0.50000000       0.16666667      -0.00000000 </v>
   <v>      -0.41666667       0.16666667       0.00000000 </v>
   <v>      -0.33333333       0.16666667      -0.00000000 </v>
   <v>      -0.25000000       0.16666667      -0.00000000 </v>
   <v>      -0.16666667       0.16666667      -0.00000000 </v>
   <v>       0.25000000       0.25000000      -0.00000000 </v>
   <v>       0.33333333       0.25000000      -0.00000000 </v>
   <v>       0.41666667       0.25000000      -0.00000000 </v>
   <v>       0.50000000       0.25000000      -0.00000000 </v>
   <v>      -0.41666667       0.25000000       0.00000000 </v>
   <v>      -0.33333333       0.25000000      -0.00000000 </v>
   <v>      -0.25000000       0.25000000       0.00000000 </v>
   <v>       0.33333333       0.33333333      -0.00000000 </v>
   <v>       0.41666667       0.33333333       0.00000000 </v>
   <v>       0.50000000       0.33333333      -0.00000000 </v>
   <v>      -0.41666667       0.33333333      -0.00000000 </v>
   <v>      -0.33333333       0.33333333      -0.00000000 </v>
   <v>       0.41666667       0.41666667       0.00000000 </v>
   <v>       0.50000000       0.41666667      -0.00000000 </v>
   <v>      -0.41666667       0.41666667       0.00000000 </v>
   <v>       0.50000000       0.50000000      -0.00000000 </v>
   <v>       0.08333333       0.08333333       0.08333333 </v>
   <v>       0.16666667       0.08333333       0.08333333 </v>
   <v>       0.25000000       0.08333333       0.08333333 </v>
   <v>       0.33333333       0.08333333       0.08333333 </v>
   <v>       0.41666667       0.08333333       0.08333333 </v>
   <v>       0.50000000       0.08333333       0.08333333 </v>
   <v>      -0.41666667       0.08333333       0.08333333 </v>
   <v>      -0.33333333       0.08333333       0.08333333 </v>
   <v>      -0.25000000       0.08333333       0.08333333 </v>
   <v>      -0.16666667       0.08333333       0.08333333 </v>
   <v>      -0.08333333       0.08333333       0.08333333 </v>
   <v>       0.16666667       0.16666667       0.08333333 </v>
   <v>       0.25000000       0.16666667       0.08333333 </v>
   <v>       0.33333333       0.16666667       0.08333333 </v>
   <v>       0.41666667       0.16666667       0.08333333 </v>
   <v>       0.50000000       0.16666667       0.08333333 </v>
   <v>      -0.41666667       0.16666667       0.08333333 </v>
   <v>      -0.33333333       0.16666667       0.08333333 </v>
   <v>      -0.25000000       0.16666667       0.08333333 </v>
   <v>      -0.16666667       0.16666667       0.08333333 </v>
   <v>      -0.08333333       0.16666667       0.08333333 </v>
   <v>       0.25000000       0.25000000       0.08333333 </v>
   <v>       0.33333333       0.25000000       0.08333333 </v>
   <v>       0.41666667       0.25000000       0.08333333 </v>
   <v>       0.50000000       0.25000000       0.08333333 </v>
   <v>      -0.41666667       0.25000000       0.08333333 </v>
   <v>      -0.33333333       0.25000000       0.08333333 </v>
   <v>      -0.25000000       0.25000000       0.08333333 </v>
   <v>      -0.16666667       0.25000000       0.08333333 </v>
   <v>      -0.08333333       0.25000000       0.08333333 </v>
   <v>       0.33333333       0.33333333       0.08333333 </v>
   <v>       0.41666667       0.33333333       0.08333333 </v>
   <v>       0.50000000       0.33333333       0.08333333 </v>
   <v>      -0.41666667       0.33333333       0.08333333 </v>
   <v>      -0.33333333       0.33333333       0.08333333 </v>
   <v>      -0.25000000       0.33333333       0.08333333 </v>
   <v>      -0.16666667       0.33333333       0.08333333 </v>
   <v>      -0.08333333       0.33333333       0.08333333 </v>
   <v>       0.41666667       0.41666667       0.08333333 </v>
   <v>       0.50000000       0.41666667       0.08333333 </v>
   <v>      -0.41666667       0.41666667       0.08333333 </v>
   <v>      -0.33333333       0.41666667       0.08333333 </v>
   <v>      -0.25000000       0.41666667       0.08333333 </v>
   <v>      -0.16666667       0.41666667       0.08333333 </v>
   <v>      -0.08333333       0.41666667       0.08333333 </v>
   <v>       0.50000000       0.50000000       0.08333333 </v>
   <v>      -0.41666667       0.50000000       0.08333333 </v>
   <v>      -0.33333333       0.50000000       0.08333333 </v>
   <v>      -0.25000000       0.50000000       0.08333333 </v>
   <v>      -0.16666667       0.50000000       0.08333333 </v>
   <v>      -0.08333333       0.50000000       0.08333333 </v>
   <v>      -0.41666667      -0.41666667       0.08333333 </v>
   <v>      -0.33333333      -0.41666667       0.08333333 </v>
   <v>      -0.25000000      -0.41666667       0.08333333 </v>
   <v>      -0.16666667      -0.41666667       0.08333333 </v>
   <v>      -0.33333333      -0.33333333       0.08333333 </v>
   <v>      -0.25000000      -0.33333333       0.08333333 </v>
   <v>      -0.16666667      -0.33333333       0.08333333 </v>
   <v>      -0.25000000      -0.25000000       0.08333333 </v>
   <v>      -0.16666667      -0.25000000       0.08333333 </v>
   <v>      -0.16666667      -0.16666667       0.08333333 </v>
   <v>       0.16666667       0.16666667       0.16666667 </v>
   <v>       0.25000000       0.16666667       0.16666667 </v>
   <v>       0.33333333       0.16666667       0.16666667 </v>
   <v>       0.41666667       0.16666667       0.16666667 </v>
   <v>       0.50000000       0.16666667       0.16666667 </v>
   <v>      -0.41666667       0.16666667       0.16666667 </v>
   <v>      -0.33333333       0.16666667       0.16666667 </v>
   <v>      -0.25000000       0.16666667       0.16666667 </v>
   <v>      -0.16666667       0.16666667       0.16666667 </v>
   <v>       0.25000000       0.25000000       0.16666667 </v>
   <v>       0.33333333       0.25000000       0.16666667 </v>
   <v>       0.41666667       0.25000000       0.16666667 </v>
   <v>       0.50000000       0.25000000       0.16666667 </v>
   <v>      -0.41666667       0.25000000       0.16666667 </v>
   <v>      -0.33333333       0.25000000       0.16666667 </v>
   <v>      -0.25000000       0.25000000       0.16666667 </v>
   <v>      -0.16666667       0.25000000       0.16666667 </v>
   <v>       0.33333333       0.33333333       0.16666667 </v>
   <v>       0.41666667       0.33333333       0.16666667 </v>
   <v>       0.50000000       0.33333333       0.16666667 </v>
   <v>      -0.41666667       0.33333333       0.16666667 </v>
   <v>      -0.33333333       0.33333333       0.16666667 </v>
   <v>      -0.25000000       0.33333333       0.16666667 </v>
   <v>      -0.16666667       0.33333333       0.16666667 </v>
   <v>       0.41666667       0.41666667       0.16666667 </v>
   <v>       0.50000000       0.41666667       0.16666667 </v>
   <v>      -0.41666667       0.41666667       0.16666667 </v>
   <v>      -0.33333333       0.41666667       0.16666667 </v>
   <v>      -0.25000000       0.41666667       0.16666667 </v>
   <v>      -0.16666667       0.41666667       0.16666667 </v>
   <v>       0.50000000       0.50000000       0.16666667 </v>
   <v>      -0.41666667       0.50000000       0.16666667 </v>
   <v>      -0.33333333       0.50000000       0.16666667 </v>
   <v>      -0.25000000       0.50000000       0.16666667 </v>
   <v>      -0.16666667       0.50000000       0.16666667 </v>
   <v>      -0.41666667      -0.41666667       0.16666667 </v>
   <v>      -0.33333333      -0.41666667       0.16666667 </v>
   <v>      -0.25000000      -0.41666667       0.16666667 </v>
   <v>      -0.33333333      -0.33333333       0.16666667 </v>
   <v>      -0.25000000      -0.33333333       0.16666667 </v>
   <v>      -0.25000000      -0.25000000       0.16666667 </v>
   <v>       0.25000000       0.25000000       0.25000000 </v>
   <v>       0.33333333       0.25000000       0.25000000 </v>
   <v>       0.41666667       0.25000000       0.25000000 </v>
   <v>       0.50000000       0.25000000       0.25000000 </v>
   <v>      -0.41666667       0.25000000       0.25000000 </v>
   <v>      -0.33333333       0.25000000       0.25000000 </v>
   <v>      -0.25000000       0.25000000       0.25000000 </v>
   <v>       0.33333333       0.33333333       0.25000000 </v>
   <v>       0.41666667       0.33333333       0.25000000 </v>
   <v>       0.50000000       0.33333333       0.25000000 </v>
   <v>      -0.41666667       0.33333333       0.25000000 </v>
   <v>      -0.33333333       0.33333333       0.25000000 </v>
   <v>      -0.25000000       0.33333333       0.25000000 </v>
   <v>       0.41666667       0.41666667       0.25000000 </v>
   <v>       0.50000000       0.41666667       0.25000000 </v>
   <v>      -0.41666667       0.41666667       0.25000000 </v>
   <v>      -0.33333333       0.41666667       0.25000000 </v>
   <v>      -0.25000000       0.41666667       0.25000000 </v>
   <v>       0.50000000       0.50000000       0.25000000 </v>
   <v>      -0.41666667       0.50000000       0.25000000 </v>
   <v>      -0.33333333       0.50000000       0.25000000 </v>
   <v>      -0.25000000       0.50000000       0.25000000 </v>
   <v>      -0.41666667      -0.41666667       0.25000000 </v>
   <v>      -0.33333333      -0.41666667       0.25000000 </v>
   <v>      -0.33333333      -0.33333333       0.25000000 </v>
   <v>       0.33333333       0.33333333       0.33333333 </v>
   <v>       0.41666667       0.33333333       0.33333333 </v>
   <v>       0.50000000       0.33333333       0.33333333 </v>
   <v>      -0.41666667       0.33333333       0.33333333 </v>
   <v>      -0.33333333       0.33333333       0.33333333 </v>
   <v>       0.41666667       0.41666667       0.33333333 </v>
   <v>       0.50000000       0.41666667       0.33333333 </v>
   <v>      -0.41666667       0.41666667       0.33333333 </v>
   <v>      -0.33333333       0.41666667       0.33333333 </v>
   <v>       0.50000000       0.50000000       0.33333333 </v>
   <v>      -0.41666667       0.50000000       0.33333333 </v>
   <v>      -0.33333333       0.50000000       0.33333333 </v>
   <v>      -0.41666667      -0.41666667       0.33333333 </v>
   <v>       0.41666667       0.41666667       0.41666667 </v>
   <v>       0.50000000       0.41666667       0.41666667 </v>
   <v>      -0.41666667       0.41666667       0.41666667 </v>
   <v>       0.50000000       0.50000000       0.41666667 </v>
   <v>      -0.41666667       0.50000000       0.41666667 </v>
   <v>       0.50000000       0.50000000       0.50000000 </v>
  </varray>
  <varray name="weights" >
   <v>       0.00057870 </v>
   <v>       0.00347222 </v>
   <v>       0.00347222 </v>
   <v>       0.00347222 </v>
   <v>       0.00347222 </v>
   <v>       0.00347222 </v>
   <v>       0.00173611 </v>
   <v>       0.00347222 </v>
   <v>       0.00694444 </v>
   <v>       0.00694444 </v>
   <v>       0.00694444 </v>
   <v>       0.00694444 </v>
   <v>       0.00694444 </v>
   <v>       0.00694444 </v>
   <v>       0.00694444 </v>
   <v>       0.00694444 </v>
   <v>       0.00694444 </v>
   <v>       0.00347222 </v>
   <v>       0.00347222 </v>
   <v>       0.00694444 </v>
   <v>       0.00694444 </v>
   <v>       0.00694444 </v>
   <v>       0.00694444 </v>
   <v>       0.00694444 </v>
   <v>       0.00694444 </v>
   <v>       0.00694444 </v>
   <v>       0.00347222 </v>
   <v>       0.00347222 </v>
   <v>       0.00694444 </v>
   <v>       0.00694444 </v>
   <v>       0.00694444 </v>
   <v>       0.00694444 </v>
   <v>       0.00694444 </v>
   <v>       0.00347222 </v>
   <v>       0.00347222 </v>
   <v>       0.00694444 </v>
   <v>       0.00694444 </v>
   <v>       0.00694444 </v>
   <v>       0.00347222 </v>
   <v>       0.00347222 </v>
   <v>       0.00694444 </v>
   <v>       0.00347222 </v>
   <v>       0.00173611 </v>
   <v>       0.00115741 </v>
   <v>       0.00347222 </v>
   <v>       0.00347222 </v>
   <v>       0.00347222 </v>
   <v>       0.00347222 </v>
   <v>       0.00347222 </v>
   <v>       0.00347222 </v>
   <v>       0.00347222 </v>
   <v>       0.00347222 </v>
   <v>       0.00347222 </v>
   <v>       0.00347222 </v>
   <v>       0.00347222 </v>
   <v>       0.00694444 </v>
   <v>       0.00694444 </v>
   <v>       0.00694444 </v>
   <v>       0.00694444 </v>
   <v>       0.00694444 </v>
   <v>       0.00694444 </v>
   <v>       0.00694444 </v>
   <v>       0.00694444 </v>
   <v>       0.00694444 </v>
   <v>       0.00347222 </v>
   <v>       0.00694444 </v>
   <v>       0.00694444 </v>
   <v>       0.00694444 </v>
   <v>       0.00694444 </v>
   <v>       0.00694444 </v>
   <v>       0.00694444 </v>
   <v>       0.00694444 </v>
   <v>       0.00694444 </v>
   <v>       0.00347222 </v>
   <v>       0.00694444 </v>
   <v>       0.00694444 </v>
   <v>       0.00694444 </v>
   <v>       0.00694444 </v>
   <v>       0.00694444 </v>
   <v>       0.00694444 </v>
   <v>       0.00694444 </v>
   <v>       0.00347222 </v>
   <v>       0.00694444 </v>
   <v>       0.00694444 </v>
   <v>       0.00694444 </v>
   <v>       0.00694444 </v>
   <v>       0.00694444 </v>
   <v>       0.00694444 </v>
   <v>       0.00347222 </v>
   <v>       0.00694444 </v>
   <v>       0.00694444 </v>
   <v>       0.00694444 </v>
   <v>       0.00694444 </v>
   <v>       0.00347222 </v>
   <v>       0.00347222 </v>
   <v>       0.00694444 </v>
   <v>       0.00694444 </v>
   <v>       0.00694444 </v>
   <v>       0.00347222 </v>
   <v>       0.00694444 </v>
   <v>       0.00694444 </v>
   <v>       0.00347222 </v>
   <v>       0.00694444 </v>
   <v>       0.00347222 </v>
   <v>       0.00115741 </v>
   <v>       0.00347222 </v>
   <v>       0.00347222 </v>
   <v>       0.00347222 </v>
   <v>       0.00347222 </v>
   <v>       0.00347222 </v>
   <v>       0.00347222 </v>
   <v>       0.00347222 </v>
   <v>       0.00347222 </v>
   <v>       0.00347222 </v>
   <v>       0.00694444 </v>
   <v>       0.00694444 </v>
   <v>       0.00694444 </v>
   <v>       0.00694444 </v>
   <v>       0.00694444 </v>
   <v>       0.00694444 </v>
   <v>       0.00694444 </v>
   <v>       0.00347222 </v>
   <v>       0.00694444 </v>
   <v>       0.00694444 </v>
   <v>       0.00694444 </v>
   <v>       0.00694444 </v>
   <v>       0.00694444 </v>
   <v>       0.00694444 </v>
   <v>       0.00347222 </v>
   <v>       0.00694444 </v>
   <v>       0.00694444 </v>
   <v>       0.00694444 </v>
   <v>       0.00694444 </v>
   <v>       0.00694444 </v>
   <v>       0.00347222 </v>
   <v>       0.00694444 </v>
   <v>       0.00694444 </v>
   <v>       0.00694444 </v>
   <v>       0.00347222 </v>
   <v>       0.00347222 </v>
   <v>       0.00694444 </v>
   <v>       0.00694444 </v>
   <v>       0.00347222 </v>
   <v>       0.00694444 </v>
   <v>       0.00347222 </v>
   <v>       0.00115741 </v>
   <v>       0.00347222 </v>
   <v>       0.00347222 </v>
   <v>       0.00347222 </v>
   <v>       0.00347222 </v>
   <v>       0.00347222 </v>
   <v>       0.00347222 </v>
   <v>       0.00347222 </v>
   <v>       0.00694444 </v>
   <v>       0.00694444 </v>
   <v>       0.00694444 </v>
   <v>       0.00694444 </v>
   <v>       0.00694444 </v>
   <v>       0.00347222 </v>
   <v>       0.00694444 </v>
   <v>       0.00694444 </v>
   <v>       0.00694444 </v>
   <v>       0.00694444 </v>
   <v>       0.00347222 </v>
   <v>       0.00694444 </v>
   <v>       0.00694444 </v>
   <v>       0.00347222 </v>
   <v>       0.00347222 </v>
   <v>       0.00694444 </v>
   <v>       0.00347222 </v>
   <v>       0.00115741 </v>
   <v>       0.00347222 </v>
   <v>       0.00347222 </v>
   <v>       0.00347222 </v>
   <v>       0.00347222 </v>
   <v>       0.00347222 </v>
   <v>       0.00694444 </v>
   <v>       0.00694444 </v>
   <v>       0.00694444 </v>
   <v>       0.00347222 </v>
   <v>       0.00694444 </v>
   <v>       0.00347222 </v>
   <v>       0.00347222 </v>
   <v>       0.00115741 </v>
   <v>       0.00347222 </v>
   <v>       0.00347222 </v>
   <v>       0.00347222 </v>
   <v>       0.00347222 </v>
   <v>       0.00057870 </v>
  </varray>
  <varray name="tetrahedronlist"  type="int" >
   <v type="int" >        4        1        2        2        8 </v>
   <v type="int" >        4        2        2        8        8 </v>
   <v type="int" >        4        2        8        8       44 </v>
   <v type="int" >        4        2        3        8        9 </v>
   <v type="int" >        4        2        8        8        9 </v>
   <v type="int" >        4        8        8        9       44 </v>
   <v type="int" >        4        3        8        9        9 </v>
   <v type="int" >        8        8        9        9       45 </v>
   <v type="int" >        8        8        9       44       45 </v>
   <v type="int" >        4        3        4        9       10 </v>
   <v type="int" >        4        3        9        9       10 </v>
   <v type="int" >        4        9        9       10       45 </v>
   <v type="int" >        4        4        9       10       10 </v>
   <v type="int" >        4        9       10       10       46 </v>
   <v type="int" >        4        9       10       45       46 </v>
   <v type="int" >        4        4        5       10       11 </v>
   <v type="int" >        4        4       10       10       11 </v>
   <v type="int" >        4       10       10       11       46 </v>
   <v type="int" >        4        5       10       11       11 </v>
   <v type="int" >        4       10       11       11       47 </v>
   <v type="int" >        4       10       11       46       47 </v>
   <v type="int" >        4        5        6       11       12 </v>
   <v type="int" >        4        5       11       11       12 </v>
   <v type="int" >        4       11       11       12       47 </v>
   <v type="int" >        4        6       11       12       12 </v>
   <v type="int" >        4       11       12       12       48 </v>
   <v type="int" >        4       11       12       47       48 </v>
   <v type="int" >        8        6        7       12       13 </v>
   <v type="int" >        4        6       12       12       13 </v>
   <v type="int" >        4       12       12       13       48 </v>
   <v type="int" >        8        7       12       13       13 </v>
   <v type="int" >        4       12       13       13       49 </v>
   <v type="int" >        4       12       13       48       49 </v>
   <v type="int" >        4        6        7       13       14 </v>
   <v type="int" >        4        7       13       13       14 </v>
   <v type="int" >        4       13       13       14       49 </v>
   <v type="int" >        4        6       13       14       14 </v>
   <v type="int" >        4       13       14       14       50 </v>
   <v type="int" >        4       13       14       49       50 </v>
   <v type="int" >        4        5        6       14       15 </v>
   <v type="int" >        4        6       14       14       15 </v>
   <v type="int" >        4       14       14       15       50 </v>
   <v type="int" >        4        5       14       15       15 </v>
   <v type="int" >        4       14       15       15       51 </v>
   <v type="int" >        4       14       15       50       51 </v>
   <v type="int" >        4        4        5       15       16 </v>
   <v type="int" >        4        5       15       15       16 </v>
   <v type="int" >        4       15       15       16       51 </v>
   <v type="int" >        4        4       15       16       16 </v>
   <v type="int" >        4       15       16       16       52 </v>
   <v type="int" >        4       15       16       51       52 </v>
   <v type="int" >        4        3        4       16       17 </v>
   <v type="int" >        4        4       16       16       17 </v>
   <v type="int" >        4       16       16       17       52 </v>
   <v type="int" >        4        3       16       17       17 </v>
   <v type="int" >        4       16       17       17       53 </v>
   <v type="int" >        4       16       17       52       53 </v>
   <v type="int" >        4        2        3       17       18 </v>
   <v type="int" >        4        3       17       17       18 </v>
   <v type="int" >        8       17       17       18       53 </v>
   <v type="int" >        4        2       17       18       18 </v>
   <v type="int" >        4       17       18       18       54 </v>
   <v type="int" >        8       17       18       53       54 </v>
   <v type="int" >        8        1        2        2       18 </v>
   <v type="int" >        4        2        2       18       18 </v>
   <v type="int" >        4        2       18       18       54 </v>
   <v type="int" >        4        2        2        8       18 </v>
   <v type="int" >        4        2        8       18       54 </v>
   <v type="int" >        4        8        9       19       44 </v>
   <v type="int" >        4        9       19       44       45 </v>
   <v type="int" >        4       19       44       45       55 </v>
   <v type="int" >        4        9       10       20       45 </v>
   <v type="int" >        4        9       19       20       45 </v>
   <v type="int" >        4       19       20       45       55 </v>
   <v type="int" >        4       10       20       45       46 </v>
   <v type="int" >        4       20       45       46       56 </v>
   <v type="int" >        4       20       45       55       56 </v>
   <v type="int" >        4       10       11       21       46 </v>
   <v type="int" >        4       10       20       21       46 </v>
   <v type="int" >        4       20       21       46       56 </v>
   <v type="int" >        4       11       21       46       47 </v>
   <v type="int" >        4       21       46       47       57 </v>
   <v type="int" >        4       21       46       56       57 </v>
   <v type="int" >        4       11       12       22       47 </v>
   <v type="int" >        4       11       21       22       47 </v>
   <v type="int" >        4       21       22       47       57 </v>
   <v type="int" >        4       12       22       47       48 </v>
   <v type="int" >        4       22       47       48       58 </v>
   <v type="int" >        4       22       47       57       58 </v>
   <v type="int" >        4       12       13       23       48 </v>
   <v type="int" >        4       12       22       23       48 </v>
   <v type="int" >        4       22       23       48       58 </v>
   <v type="int" >        4       13       23       48       49 </v>
   <v type="int" >        4       23       48       49       59 </v>
   <v type="int" >        4       23       48       58       59 </v>
   <v type="int" >        4       13       14       24       49 </v>
   <v type="int" >        4       13       23       24       49 </v>
   <v type="int" >        4       23       24       49       59 </v>
   <v type="int" >        4       14       24       49       50 </v>
   <v type="int" >        4       24       49       50       60 </v>
   <v type="int" >        4       24       49       59       60 </v>
   <v type="int" >        4       14       15       25       50 </v>
   <v type="int" >        4       14       24       25       50 </v>
   <v type="int" >        4       24       25       50       60 </v>
   <v type="int" >        4       15       25       50       51 </v>
   <v type="int" >        4       25       50       51       61 </v>
   <v type="int" >        4       25       50       60       61 </v>
   <v type="int" >        4       15       16       26       51 </v>
   <v type="int" >        4       15       25       26       51 </v>
   <v type="int" >        4       25       26       51       61 </v>
   <v type="int" >        4       16       26       51       52 </v>
   <v type="int" >        4       26       51       52       62 </v>
   <v type="int" >        4       26       51       61       62 </v>
   <v type="int" >        4       16       17       27       52 </v>
   <v type="int" >        4       16       26       27       52 </v>
   <v type="int" >        4       26       27       52       62 </v>
   <v type="int" >        4       17       27       52       53 </v>
   <v type="int" >        4       27       52       53       63 </v>
   <v type="int" >        4       27       52       62       63 </v>
   <v type="int" >        4       17       17       27       53 </v>
   <v type="int" >        4       17       27       53       63 </v>
   <v type="int" >        4       17       53       54       64 </v>
   <v type="int" >        4       17       53       63       64 </v>
   <v type="int" >        4        2        3       18       54 </v>
   <v type="int" >        4        3       17       18       54 </v>
   <v type="int" >        4        3       17       54       64 </v>
   <v type="int" >        4        2        3        8       54 </v>
   <v type="int" >        4        3        8        9       54 </v>
   <v type="int" >        4        3        9       54       64 </v>
   <v type="int" >        4       19       20       28       55 </v>
   <v type="int" >        4       20       28       55       56 </v>
   <v type="int" >        4       28       55       56       65 </v>
   <v type="int" >        4       20       21       29       56 </v>
   <v type="int" >        4       20       28       29       56 </v>
   <v type="int" >        4       28       29       56       65 </v>
   <v type="int" >        4       21       29       56       57 </v>
   <v type="int" >        4       29       56       57       66 </v>
   <v type="int" >        4       29       56       65       66 </v>
   <v type="int" >        4       21       22       30       57 </v>
   <v type="int" >        4       21       29       30       57 </v>
   <v type="int" >        4       29       30       57       66 </v>
   <v type="int" >        4       22       30       57       58 </v>
   <v type="int" >        4       30       57       58       67 </v>
   <v type="int" >        4       30       57       66       67 </v>
   <v type="int" >        4       22       23       31       58 </v>
   <v type="int" >        4       22       30       31       58 </v>
   <v type="int" >        4       30       31       58       67 </v>
   <v type="int" >        4       23       31       58       59 </v>
   <v type="int" >        4       31       58       59       68 </v>
   <v type="int" >        4       31       58       67       68 </v>
   <v type="int" >        4       23       24       32       59 </v>
   <v type="int" >        4       23       31       32       59 </v>
   <v type="int" >        4       31       32       59       68 </v>
   <v type="int" >        4       24       32       59       60 </v>
   <v type="int" >        4       32       59       60       69 </v>
   <v type="int" >        4       32       59       68       69 </v>
   <v type="int" >        4       24       25       33       60 </v>
   <v type="int" >        4       24       32       33       60 </v>
   <v type="int" >        4       32       33       60       69 </v>
   <v type="int" >        4       25       33       60       61 </v>
   <v type="int" >        4       33       60       61       70 </v>
   <v type="int" >        4       33       60       69       70 </v>
   <v type="int" >        4       25       26       34       61 </v>
   <v type="int" >        4       25       33       34       61 </v>
   <v type="int" >        4       33       34       61       70 </v>
   <v type="int" >        4       26       34       61       62 </v>
   <v type="int" >        4       34       61       62       71 </v>
   <v type="int" >        4       34       61       70       71 </v>
   <v type="int" >        4       26       26       27       62 </v>
   <v type="int" >        4       26       26       34       62 </v>
   <v type="int" >        4       26       34       62       71 </v>
   <v type="int" >        4       26       27       62       63 </v>
   <v type="int" >        4       26       62       63       72 </v>
   <v type="int" >        4       26       62       71       72 </v>
   <v type="int" >        4       16       17       27       63 </v>
   <v type="int" >        4       16       26       27       63 </v>
   <v type="int" >        4       16       26       63       72 </v>
   <v type="int" >        4       16       17       63       64 </v>
   <v type="int" >        4       16       63       64       73 </v>
   <v type="int" >        4       16       63       72       73 </v>
   <v type="int" >        4        3        4       17       64 </v>
   <v type="int" >        4        4       16       17       64 </v>
   <v type="int" >        4        4       16       64       73 </v>
   <v type="int" >        4        3        4        9       64 </v>
   <v type="int" >        4        4        9       10       64 </v>
   <v type="int" >        4        4       10       64       73 </v>
   <v type="int" >        4       28       29       35       65 </v>
   <v type="int" >        4       29       35       65       66 </v>
   <v type="int" >        4       35       65       66       74 </v>
   <v type="int" >        4       29       30       36       66 </v>
   <v type="int" >        4       29       35       36       66 </v>
   <v type="int" >        4       35       36       66       74 </v>
   <v type="int" >        4       30       36       66       67 </v>
   <v type="int" >        4       36       66       67       75 </v>
   <v type="int" >        4       36       66       74       75 </v>
   <v type="int" >        4       30       31       37       67 </v>
   <v type="int" >        4       30       36       37       67 </v>
   <v type="int" >        4       36       37       67       75 </v>
   <v type="int" >        4       31       37       67       68 </v>
   <v type="int" >        4       37       67       68       76 </v>
   <v type="int" >        4       37       67       75       76 </v>
   <v type="int" >        4       31       32       38       68 </v>
   <v type="int" >        4       31       37       38       68 </v>
   <v type="int" >        4       37       38       68       76 </v>
   <v type="int" >        4       32       38       68       69 </v>
   <v type="int" >        4       38       68       69       77 </v>
   <v type="int" >        4       38       68       76       77 </v>
   <v type="int" >        4       32       33       39       69 </v>
   <v type="int" >        4       32       38       39       69 </v>
   <v type="int" >        4       38       39       69       77 </v>
   <v type="int" >        4       33       39       69       70 </v>
   <v type="int" >        4       39       69       70       78 </v>
   <v type="int" >        4       39       69       77       78 </v>
   <v type="int" >        4       33       33       34       70 </v>
   <v type="int" >        4       33       33       39       70 </v>
   <v type="int" >        4       33       39       70       78 </v>
   <v type="int" >        4       33       34       70       71 </v>
   <v type="int" >        4       33       70       71       79 </v>
   <v type="int" >        4       33       70       78       79 </v>
   <v type="int" >        4       25       26       34       71 </v>
   <v type="int" >        4       25       33       34       71 </v>
   <v type="int" >        4       25       33       71       79 </v>
   <v type="int" >        4       25       26       71       72 </v>
   <v type="int" >        4       25       71       72       80 </v>
   <v type="int" >        4       25       71       79       80 </v>
   <v type="int" >        4       15       16       26       72 </v>
   <v type="int" >        4       15       25       26       72 </v>
   <v type="int" >        4       15       25       72       80 </v>
   <v type="int" >        4       15       16       72       73 </v>
   <v type="int" >        4       15       72       73       81 </v>
   <v type="int" >        4       15       72       80       81 </v>
   <v type="int" >        4        4        5       16       73 </v>
   <v type="int" >        4        5       15       16       73 </v>
   <v type="int" >        4        5       15       73       81 </v>
   <v type="int" >        4        4        5       10       73 </v>
   <v type="int" >        4        5       10       11       73 </v>
   <v type="int" >        4        5       11       73       81 </v>
   <v type="int" >        4       35       36       40       74 </v>
   <v type="int" >        4       36       40       74       75 </v>
   <v type="int" >        4       40       74       75       82 </v>
   <v type="int" >        4       36       37       41       75 </v>
   <v type="int" >        4       36       40       41       75 </v>
   <v type="int" >        4       40       41       75       82 </v>
   <v type="int" >        4       37       41       75       76 </v>
   <v type="int" >        4       41       75       76       83 </v>
   <v type="int" >        4       41       75       82       83 </v>
   <v type="int" >        4       37       38       42       76 </v>
   <v type="int" >        4       37       41       42       76 </v>
   <v type="int" >        4       41       42       76       83 </v>
   <v type="int" >        4       38       42       76       77 </v>
   <v type="int" >        4       42       76       77       84 </v>
   <v type="int" >        4       42       76       83       84 </v>
   <v type="int" >        4       38       38       39       77 </v>
   <v type="int" >        4       38       38       42       77 </v>
   <v type="int" >        4       38       42       77       84 </v>
   <v type="int" >        4       38       39       77       78 </v>
   <v type="int" >        4       38       77       78       85 </v>
   <v type="int" >        4       38       77       84       85 </v>
   <v type="int" >        4       32       33       39       78 </v>
   <v type="int" >        4       32       38       39       78 </v>
   <v type="int" >        4       32       38       78       85 </v>
   <v type="int" >        4       32       33       78       79 </v>
   <v type="int" >        4       32       78       79       86 </v>
   <v type="int" >        4       32       78       85       86 </v>
   <v type="int" >        4       24       25       33       79 </v>
   <v type="int" >        4       24       32       33       79 </v>
   <v type="int" >        4       24       32       79       86 </v>
   <v type="int" >        4       24       25       79       80 </v>
   <v type="int" >        4       24       79       80       87 </v>
   <v type="int" >        4       24       79       86       87 </v>
   <v type="int" >        4       14       15       25       80 </v>
   <v type="int" >        4       14       24       25       80 </v>
   <v type="int" >        4       14       24       80       87 </v>
   <v type="int" >        4       14       15       80       81 </v>
   <v type="int" >        4       14       80       81       88 </v>
   <v type="int" >        4       14       80       87       88 </v>
   <v type="int" >        4        5        6       15       81 </v>
   <v type="int" >        4        6       14       15       81 </v>
   <v type="int" >        4        6       14       81       88 </v>
   <v type="int" >        4        5        6       11       81 </v>
   <v type="int" >        4        6       11       12       81 </v>
   <v type="int" >        4        6       12       81       88 </v>
   <v type="int" >        4       40       41       43       82 </v>
   <v type="int" >        4       41       43       82       83 </v>
   <v type="int" >        4       43       82       83       89 </v>
   <v type="int" >        4       41       41       42       83 </v>
   <v type="int" >        8       41       41       43       83 </v>
   <v type="int" >        8       41       43       83       89 </v>
   <v type="int" >        4       41       42       83       84 </v>
   <v type="int" >        4       41       83       84       90 </v>
   <v type="int" >        4       41       83       89       90 </v>
   <v type="int" >        4       37       38       42       84 </v>
   <v type="int" >        4       37       41       42       84 </v>
   <v type="int" >        4       37       41       84       90 </v>
   <v type="int" >        4       37       38       84       85 </v>
   <v type="int" >        4       37       84       85       91 </v>
   <v type="int" >        4       37       84       90       91 </v>
   <v type="int" >        4       31       32       38       85 </v>
   <v type="int" >        4       31       37       38       85 </v>
   <v type="int" >        4       31       37       85       91 </v>
   <v type="int" >        4       31       32       85       86 </v>
   <v type="int" >        4       31       85       86       92 </v>
   <v type="int" >        4       31       85       91       92 </v>
   <v type="int" >        4       23       24       32       86 </v>
   <v type="int" >        4       23       31       32       86 </v>
   <v type="int" >        4       23       31       86       92 </v>
   <v type="int" >        4       23       24       86       87 </v>
   <v type="int" >        4       23       86       87       93 </v>
   <v type="int" >        4       23       86       92       93 </v>
   <v type="int" >        4       13       14       24       87 </v>
   <v type="int" >        4       13       23       24       87 </v>
   <v type="int" >        4       13       23       87       93 </v>
   <v type="int" >        4       13       14       87       88 </v>
   <v type="int" >        4       13       87       88       94 </v>
   <v type="int" >        4       13       87       93       94 </v>
   <v type="int" >        4        6        7       14       88 </v>
   <v type="int" >        4        7       13       14       88 </v>
   <v type="int" >        8        7       13       88       94 </v>
   <v type="int" >        4        6        7       12       88 </v>
   <v type="int" >        4        7       12       13       88 </v>
   <v type="int" >        4       40       41       43       89 </v>
   <v type="int" >        4       40       41       89       90 </v>
   <v type="int" >        4       40       89       90       95 </v>
   <v type="int" >        4       36       37       41       90 </v>
   <v type="int" >        4       36       40       41       90 </v>
   <v type="int" >        4       36       40       90       95 </v>
   <v type="int" >        4       36       37       90       91 </v>
   <v type="int" >        4       36       90       91       96 </v>
   <v type="int" >        4       36       90       95       96 </v>
   <v type="int" >        4       30       31       37       91 </v>
   <v type="int" >        4       30       36       37       91 </v>
   <v type="int" >        4       30       36       91       96 </v>
   <v type="int" >        4       30       31       91       92 </v>
   <v type="int" >        4       30       91       92       97 </v>
   <v type="int" >        4       30       91       96       97 </v>
   <v type="int" >        4       22       23       31       92 </v>
   <v type="int" >        4       22       30       31       92 </v>
   <v type="int" >        4       22       30       92       97 </v>
   <v type="int" >        4       22       23       92       93 </v>
   <v type="int" >        4       22       92       93       98 </v>
   <v type="int" >        4       22       92       97       98 </v>
   <v type="int" >        4       12       13       23       93 </v>
   <v type="int" >        4       12       22       23       93 </v>
   <v type="int" >        4       12       22       93       98 </v>
   <v type="int" >        4       12       13       93       94 </v>
   <v type="int" >        4       12       88       93       94 </v>
   <v type="int" >        4       12       88       93       98 </v>
   <v type="int" >        8        6        7       13       94 </v>
   <v type="int" >        4        6       12       13       94 </v>
   <v type="int" >        4        6       12       88       94 </v>
   <v type="int" >        4        6       13       14       94 </v>
   <v type="int" >        4        6       14       88       94 </v>
   <v type="int" >        4       35       36       40       95 </v>
   <v type="int" >        4       35       36       95       96 </v>
   <v type="int" >        4       35       95       96       99 </v>
   <v type="int" >        4       29       30       36       96 </v>
   <v type="int" >        4       29       35       36       96 </v>
   <v type="int" >        4       29       35       96       99 </v>
   <v type="int" >        4       29       30       96       97 </v>
   <v type="int" >        4       29       96       97      100 </v>
   <v type="int" >        4       29       96       99      100 </v>
   <v type="int" >        4       21       22       30       97 </v>
   <v type="int" >        4       21       29       30       97 </v>
   <v type="int" >        4       21       29       97      100 </v>
   <v type="int" >        4       21       22       97       98 </v>
   <v type="int" >        4       21       97       98      101 </v>
   <v type="int" >        4       21       97      100      101 </v>
   <v type="int" >        4       11       12       22       98 </v>
   <v type="int" >        4       11       21       22       98 </v>
   <v type="int" >        4       11       21       98      101 </v>
   <v type="int" >        4       11       12       88       98 </v>
   <v type="int" >        4       11       81       88       98 </v>
   <v type="int" >        4       11       81       98      101 </v>
   <v type="int" >        4        5        6       12       88 </v>
   <v type="int" >        4        5       11       12       88 </v>
   <v type="int" >        4        5       11       81       88 </v>
   <v type="int" >        4        5        6       14       88 </v>
   <v type="int" >        4        5       14       15       88 </v>
   <v type="int" >        4        5       15       81       88 </v>
   <v type="int" >        4       28       29       35       99 </v>
   <v type="int" >        4       28       29       99      100 </v>
   <v type="int" >        4       28       99      100      102 </v>
   <v type="int" >        4       20       21       29      100 </v>
   <v type="int" >        4       20       28       29      100 </v>
   <v type="int" >        4       20       28      100      102 </v>
   <v type="int" >        4       20       21      100      101 </v>
   <v type="int" >        4       20      100      101      103 </v>
   <v type="int" >        4       20      100      102      103 </v>
   <v type="int" >        4       10       11       21      101 </v>
   <v type="int" >        4       10       20       21      101 </v>
   <v type="int" >        4       10       20      101      103 </v>
   <v type="int" >        4       10       11       81      101 </v>
   <v type="int" >        4       10       73       81      101 </v>
   <v type="int" >        4       10       73      101      103 </v>
   <v type="int" >        4        4        5       11       81 </v>
   <v type="int" >        4        4       10       11       81 </v>
   <v type="int" >        4        4       10       73       81 </v>
   <v type="int" >        4        4        5       15       81 </v>
   <v type="int" >        4        4       15       16       81 </v>
   <v type="int" >        4        4       16       73       81 </v>
   <v type="int" >        4       19       20       28      102 </v>
   <v type="int" >        4       19       20      102      103 </v>
   <v type="int" >        4       19      102      103      104 </v>
   <v type="int" >        4        9       10       20      103 </v>
   <v type="int" >        4        9       19       20      103 </v>
   <v type="int" >        4        9       19      103      104 </v>
   <v type="int" >        4        9       10       73      103 </v>
   <v type="int" >        4        9       64       73      103 </v>
   <v type="int" >        4        9       64      103      104 </v>
   <v type="int" >        4        3        4       10       73 </v>
   <v type="int" >        4        3        9       10       73 </v>
   <v type="int" >        4        3        9       64       73 </v>
   <v type="int" >        4        3        4       16       73 </v>
   <v type="int" >        4        3       16       17       73 </v>
   <v type="int" >        4        3       17       64       73 </v>
   <v type="int" >        4        8        9       19      104 </v>
   <v type="int" >        4        8        9       64      104 </v>
   <v type="int" >        4        8       54       64      104 </v>
   <v type="int" >        4        2        3        9       64 </v>
   <v type="int" >        4        2        8        9       64 </v>
   <v type="int" >        4        2        8       54       64 </v>
   <v type="int" >        4        2        3       17       64 </v>
   <v type="int" >        4        2       17       18       64 </v>
   <v type="int" >        4        2       18       54       64 </v>
   <v type="int" >        4        1        2        8       54 </v>
   <v type="int" >        8        1        2       18       54 </v>
   <v type="int" >        4        2        3        8       44 </v>
   <v type="int" >        4        3        8        9       44 </v>
   <v type="int" >        4        3        9       44       45 </v>
   <v type="int" >        4        9       44       45       45 </v>
   <v type="int" >        4        9        9       19       45 </v>
   <v type="int" >        4        9       19       45       55 </v>
   <v type="int" >        4        9       45       45       55 </v>
   <v type="int" >        4        9       10       19       46 </v>
   <v type="int" >        4        9       19       45       46 </v>
   <v type="int" >        4       19       45       46       55 </v>
   <v type="int" >        4       10       19       20       46 </v>
   <v type="int" >        4       19       20       46       56 </v>
   <v type="int" >        4       19       46       55       56 </v>
   <v type="int" >        4       10       11       20       47 </v>
   <v type="int" >        4       10       20       46       47 </v>
   <v type="int" >        4       20       46       47       56 </v>
   <v type="int" >        4       11       20       21       47 </v>
   <v type="int" >        4       20       21       47       57 </v>
   <v type="int" >        4       20       47       56       57 </v>
   <v type="int" >        4       11       12       21       48 </v>
   <v type="int" >        4       11       21       47       48 </v>
   <v type="int" >        4       21       47       48       57 </v>
   <v type="int" >        4       12       21       22       48 </v>
   <v type="int" >        4       21       22       48       58 </v>
   <v type="int" >        4       21       48       57       58 </v>
   <v type="int" >        4       12       13       22       49 </v>
   <v type="int" >        4       12       22       48       49 </v>
   <v type="int" >        4       22       48       49       58 </v>
   <v type="int" >        4       13       22       23       49 </v>
   <v type="int" >        4       22       23       49       59 </v>
   <v type="int" >        4       22       49       58       59 </v>
   <v type="int" >        4       13       14       23       50 </v>
   <v type="int" >        4       13       23       49       50 </v>
   <v type="int" >        4       23       49       50       59 </v>
   <v type="int" >        4       14       23       24       50 </v>
   <v type="int" >        4       23       24       50       60 </v>
   <v type="int" >        4       23       50       59       60 </v>
   <v type="int" >        4       14       15       24       51 </v>
   <v type="int" >        4       14       24       50       51 </v>
   <v type="int" >        4       24       50       51       60 </v>
   <v type="int" >        4       15       24       25       51 </v>
   <v type="int" >        4       24       25       51       61 </v>
   <v type="int" >        4       24       51       60       61 </v>
   <v type="int" >        4       15       16       25       52 </v>
   <v type="int" >        4       15       25       51       52 </v>
   <v type="int" >        4       25       51       52       61 </v>
   <v type="int" >        4       16       25       26       52 </v>
   <v type="int" >        4       25       26       52       62 </v>
   <v type="int" >        4       25       52       61       62 </v>
   <v type="int" >        4       16       17       26       53 </v>
   <v type="int" >        4       16       26       52       53 </v>
   <v type="int" >        4       26       52       53       62 </v>
   <v type="int" >        4       17       26       27       53 </v>
   <v type="int" >        4       26       27       53       63 </v>
   <v type="int" >        4       26       53       62       63 </v>
   <v type="int" >        8       17       18       27       54 </v>
   <v type="int" >        4       17       27       53       54 </v>
   <v type="int" >        4       27       53       54       63 </v>
   <v type="int" >        4       17       27       54       64 </v>
   <v type="int" >        4       27       54       63       64 </v>
   <v type="int" >        4        2        8       17       18 </v>
   <v type="int" >        4        8       17       18       54 </v>
   <v type="int" >        4        8       17       54       64 </v>
   <v type="int" >        4        2        3        8       17 </v>
   <v type="int" >        4        3        8        9       17 </v>
   <v type="int" >        4        8        9       17       64 </v>
   <v type="int" >        4       44       45       45       55 </v>
   <v type="int" >        4       45       45       55       55 </v>
   <v type="int" >        4       45       55       55      105 </v>
   <v type="int" >        4       45       46       55       56 </v>
   <v type="int" >        4       45       55       55       56 </v>
   <v type="int" >        4       55       55       56      105 </v>
   <v type="int" >        4       46       55       56       56 </v>
   <v type="int" >        8       55       56       56      106 </v>
   <v type="int" >        8       55       56      105      106 </v>
   <v type="int" >        4       46       47       56       57 </v>
   <v type="int" >        4       46       56       56       57 </v>
   <v type="int" >        4       56       56       57      106 </v>
   <v type="int" >        4       47       56       57       57 </v>
   <v type="int" >        4       56       57       57      107 </v>
   <v type="int" >        4       56       57      106      107 </v>
   <v type="int" >        4       47       48       57       58 </v>
   <v type="int" >        4       47       57       57       58 </v>
   <v type="int" >        4       57       57       58      107 </v>
   <v type="int" >        4       48       57       58       58 </v>
   <v type="int" >        4       57       58       58      108 </v>
   <v type="int" >        4       57       58      107      108 </v>
   <v type="int" >        4       48       49       58       59 </v>
   <v type="int" >        4       48       58       58       59 </v>
   <v type="int" >        4       58       58       59      108 </v>
   <v type="int" >        4       49       58       59       59 </v>
   <v type="int" >        4       58       59       59      109 </v>
   <v type="int" >        4       58       59      108      109 </v>
   <v type="int" >        4       49       50       59       60 </v>
   <v type="int" >        4       49       59       59       60 </v>
   <v type="int" >        4       59       59       60      109 </v>
   <v type="int" >        4       50       59       60       60 </v>
   <v type="int" >        4       59       60       60      110 </v>
   <v type="int" >        4       59       60      109      110 </v>
   <v type="int" >        4       50       51       60       61 </v>
   <v type="int" >        4       50       60       60       61 </v>
   <v type="int" >        4       60       60       61      110 </v>
   <v type="int" >        4       51       60       61       61 </v>
   <v type="int" >        4       60       61       61      111 </v>
   <v type="int" >        4       60       61      110      111 </v>
   <v type="int" >        4       51       52       61       62 </v>
   <v type="int" >        4       51       61       61       62 </v>
   <v type="int" >        4       61       61       62      111 </v>
   <v type="int" >        4       52       61       62       62 </v>
   <v type="int" >        4       61       62       62      112 </v>
   <v type="int" >        4       61       62      111      112 </v>
   <v type="int" >        4       52       53       62       63 </v>
   <v type="int" >        4       52       62       62       63 </v>
   <v type="int" >        4       62       62       63      112 </v>
   <v type="int" >        4       53       62       63       63 </v>
   <v type="int" >        4       62       63       63      113 </v>
   <v type="int" >        4       62       63      112      113 </v>
   <v type="int" >        4       53       54       63       64 </v>
   <v type="int" >        4       53       63       63       64 </v>
   <v type="int" >        4       63       63       64      113 </v>
   <v type="int" >        4       54       63       64       64 </v>
   <v type="int" >        4       63       64       64      104 </v>
   <v type="int" >        4       63       64      104      113 </v>
   <v type="int" >        4        8        9       54       64 </v>
   <v type="int" >        4        9       54       64       64 </v>
   <v type="int" >        4        9       64       64      104 </v>
   <v type="int" >        4        8        9        9       64 </v>
   <v type="int" >        4        9        9       19       64 </v>
   <v type="int" >        4        9       19       64      104 </v>
   <v type="int" >        4       55       56       65      105 </v>
   <v type="int" >        4       56       65      105      106 </v>
   <v type="int" >        4       65      105      106      114 </v>
   <v type="int" >        4       56       57       66      106 </v>
   <v type="int" >        4       56       65       66      106 </v>
   <v type="int" >        4       65       66      106      114 </v>
   <v type="int" >        4       57       66      106      107 </v>
   <v type="int" >        4       66      106      107      115 </v>
   <v type="int" >        4       66      106      114      115 </v>
   <v type="int" >        4       57       58       67      107 </v>
   <v type="int" >        4       57       66       67      107 </v>
   <v type="int" >        4       66       67      107      115 </v>
   <v type="int" >        4       58       67      107      108 </v>
   <v type="int" >        4       67      107      108      116 </v>
   <v type="int" >        4       67      107      115      116 </v>
   <v type="int" >        4       58       59       68      108 </v>
   <v type="int" >        4       58       67       68      108 </v>
   <v type="int" >        4       67       68      108      116 </v>
   <v type="int" >        4       59       68      108      109 </v>
   <v type="int" >        4       68      108      109      117 </v>
   <v type="int" >        4       68      108      116      117 </v>
   <v type="int" >        4       59       60       69      109 </v>
   <v type="int" >        4       59       68       69      109 </v>
   <v type="int" >        4       68       69      109      117 </v>
   <v type="int" >        4       60       69      109      110 </v>
   <v type="int" >        4       69      109      110      118 </v>
   <v type="int" >        4       69      109      117      118 </v>
   <v type="int" >        4       60       61       70      110 </v>
   <v type="int" >        4       60       69       70      110 </v>
   <v type="int" >        4       69       70      110      118 </v>
   <v type="int" >        4       61       70      110      111 </v>
   <v type="int" >        4       70      110      111      119 </v>
   <v type="int" >        4       70      110      118      119 </v>
   <v type="int" >        4       61       62       71      111 </v>
   <v type="int" >        4       61       70       71      111 </v>
   <v type="int" >        4       70       71      111      119 </v>
   <v type="int" >        4       62       71      111      112 </v>
   <v type="int" >        4       71      111      112      120 </v>
   <v type="int" >        4       71      111      119      120 </v>
   <v type="int" >        4       62       63       72      112 </v>
   <v type="int" >        4       62       71       72      112 </v>
   <v type="int" >        4       71       72      112      120 </v>
   <v type="int" >        4       63       72      112      113 </v>
   <v type="int" >        4       72      112      113      121 </v>
   <v type="int" >        4       72      112      120      121 </v>
   <v type="int" >        4       63       64       73      113 </v>
   <v type="int" >        4       63       72       73      113 </v>
   <v type="int" >        4       72       73      113      121 </v>
   <v type="int" >        4       64       73      104      113 </v>
   <v type="int" >        4       73      103      104      113 </v>
   <v type="int" >        4       73      103      113      121 </v>
   <v type="int" >        4        9       10       64      104 </v>
   <v type="int" >        4       10       64       73      104 </v>
   <v type="int" >        4       10       73      103      104 </v>
   <v type="int" >        4        9       10       19      104 </v>
   <v type="int" >        4       10       19       20      104 </v>
   <v type="int" >        4       10       20      103      104 </v>
   <v type="int" >        4       65       66       74      114 </v>
   <v type="int" >        4       66       74      114      115 </v>
   <v type="int" >        4       74      114      115      122 </v>
   <v type="int" >        4       66       67       75      115 </v>
   <v type="int" >        4       66       74       75      115 </v>
   <v type="int" >        4       74       75      115      122 </v>
   <v type="int" >        4       67       75      115      116 </v>
   <v type="int" >        4       75      115      116      123 </v>
   <v type="int" >        4       75      115      122      123 </v>
   <v type="int" >        4       67       68       76      116 </v>
   <v type="int" >        4       67       75       76      116 </v>
   <v type="int" >        4       75       76      116      123 </v>
   <v type="int" >        4       68       76      116      117 </v>
   <v type="int" >        4       76      116      117      124 </v>
   <v type="int" >        4       76      116      123      124 </v>
   <v type="int" >        4       68       69       77      117 </v>
   <v type="int" >        4       68       76       77      117 </v>
   <v type="int" >        4       76       77      117      124 </v>
   <v type="int" >        4       69       77      117      118 </v>
   <v type="int" >        4       77      117      118      125 </v>
   <v type="int" >        4       77      117      124      125 </v>
   <v type="int" >        4       69       70       78      118 </v>
   <v type="int" >        4       69       77       78      118 </v>
   <v type="int" >        4       77       78      118      125 </v>
   <v type="int" >        4       70       78      118      119 </v>
   <v type="int" >        4       78      118      119      126 </v>
   <v type="int" >        4       78      118      125      126 </v>
   <v type="int" >        4       70       71       79      119 </v>
   <v type="int" >        4       70       78       79      119 </v>
   <v type="int" >        4       78       79      119      126 </v>
   <v type="int" >        4       71       79      119      120 </v>
   <v type="int" >        4       79      119      120      127 </v>
   <v type="int" >        4       79      119      126      127 </v>
   <v type="int" >        4       71       72       80      120 </v>
   <v type="int" >        4       71       79       80      120 </v>
   <v type="int" >        4       79       80      120      127 </v>
   <v type="int" >        4       72       80      120      121 </v>
   <v type="int" >        4       80      120      121      128 </v>
   <v type="int" >        4       80      120      127      128 </v>
   <v type="int" >        4       72       73       81      121 </v>
   <v type="int" >        4       72       80       81      121 </v>
   <v type="int" >        4       80       81      121      128 </v>
   <v type="int" >        4       73       81      103      121 </v>
   <v type="int" >        4       81      101      103      121 </v>
   <v type="int" >        4       81      101      121      128 </v>
   <v type="int" >        4       10       11       73      103 </v>
   <v type="int" >        4       11       73       81      103 </v>
   <v type="int" >        4       11       81      101      103 </v>
   <v type="int" >        4       10       11       20      103 </v>
   <v type="int" >        4       11       20       21      103 </v>
   <v type="int" >        4       11       21      101      103 </v>
   <v type="int" >        4       74       75       82      122 </v>
   <v type="int" >        4       75       82      122      123 </v>
   <v type="int" >        4       82      122      123      129 </v>
   <v type="int" >        4       75       76       83      123 </v>
   <v type="int" >        4       75       82       83      123 </v>
   <v type="int" >        4       82       83      123      129 </v>
   <v type="int" >        4       76       83      123      124 </v>
   <v type="int" >        4       83      123      124      130 </v>
   <v type="int" >        4       83      123      129      130 </v>
   <v type="int" >        4       76       77       84      124 </v>
   <v type="int" >        4       76       83       84      124 </v>
   <v type="int" >        4       83       84      124      130 </v>
   <v type="int" >        4       77       84      124      125 </v>
   <v type="int" >        4       84      124      125      131 </v>
   <v type="int" >        4       84      124      130      131 </v>
   <v type="int" >        4       77       78       85      125 </v>
   <v type="int" >        4       77       84       85      125 </v>
   <v type="int" >        4       84       85      125      131 </v>
   <v type="int" >        4       78       85      125      126 </v>
   <v type="int" >        4       85      125      126      132 </v>
   <v type="int" >        4       85      125      131      132 </v>
   <v type="int" >        4       78       79       86      126 </v>
   <v type="int" >        4       78       85       86      126 </v>
   <v type="int" >        4       85       86      126      132 </v>
   <v type="int" >        4       79       86      126      127 </v>
   <v type="int" >        4       86      126      127      133 </v>
   <v type="int" >        4       86      126      132      133 </v>
   <v type="int" >        4       79       80       87      127 </v>
   <v type="int" >        4       79       86       87      127 </v>
   <v type="int" >        4       86       87      127      133 </v>
   <v type="int" >        4       80       87      127      128 </v>
   <v type="int" >        4       87      127      128      134 </v>
   <v type="int" >        4       87      127      133      134 </v>
   <v type="int" >        4       80       81       88      128 </v>
   <v type="int" >        4       80       87       88      128 </v>
   <v type="int" >        4       87       88      128      134 </v>
   <v type="int" >        4       81       88      101      128 </v>
   <v type="int" >        4       88       98      101      128 </v>
   <v type="int" >        4       88       98      128      134 </v>
   <v type="int" >        4       11       12       81      101 </v>
   <v type="int" >        4       12       81       88      101 </v>
   <v type="int" >        4       12       88       98      101 </v>
   <v type="int" >        4       11       12       21      101 </v>
   <v type="int" >        4       12       21       22      101 </v>
   <v type="int" >        4       12       22       98      101 </v>
   <v type="int" >        4       82       83       89      129 </v>
   <v type="int" >        4       83       89      129      130 </v>
   <v type="int" >        4       89      129      130      135 </v>
   <v type="int" >        4       83       84       90      130 </v>
   <v type="int" >        4       83       89       90      130 </v>
   <v type="int" >        4       89       90      130      135 </v>
   <v type="int" >        4       84       90      130      131 </v>
   <v type="int" >        4       90      130      131      136 </v>
   <v type="int" >        4       90      130      135      136 </v>
   <v type="int" >        4       84       85       91      131 </v>
   <v type="int" >        4       84       90       91      131 </v>
   <v type="int" >        4       90       91      131      136 </v>
   <v type="int" >        4       85       91      131      132 </v>
   <v type="int" >        4       91      131      132      137 </v>
   <v type="int" >        4       91      131      136      137 </v>
   <v type="int" >        4       85       86       92      132 </v>
   <v type="int" >        4       85       91       92      132 </v>
   <v type="int" >        4       91       92      132      137 </v>
   <v type="int" >        4       86       92      132      133 </v>
   <v type="int" >        4       92      132      133      138 </v>
   <v type="int" >        4       92      132      137      138 </v>
   <v type="int" >        4       86       87       93      133 </v>
   <v type="int" >        4       86       92       93      133 </v>
   <v type="int" >        4       92       93      133      138 </v>
   <v type="int" >        4       87       93      133      134 </v>
   <v type="int" >        4       93      133      134      139 </v>
   <v type="int" >        4       93      133      138      139 </v>
   <v type="int" >        4       87       88       94      134 </v>
   <v type="int" >        4       87       93       94      134 </v>
   <v type="int" >        8       93       94      134      139 </v>
   <v type="int" >        4       88       94       98      134 </v>
   <v type="int" >        4       93       94       98      134 </v>
   <v type="int" >        4       12       13       88       98 </v>
   <v type="int" >        4       13       88       94       98 </v>
   <v type="int" >        4       13       93       94       98 </v>
   <v type="int" >        4       12       13       22       98 </v>
   <v type="int" >        4       13       22       23       98 </v>
   <v type="int" >        4       13       23       93       98 </v>
   <v type="int" >        4       89       90       95      135 </v>
   <v type="int" >        4       90       95      135      136 </v>
   <v type="int" >        4       95      135      136      140 </v>
   <v type="int" >        4       90       91       96      136 </v>
   <v type="int" >        4       90       95       96      136 </v>
   <v type="int" >        4       95       96      136      140 </v>
   <v type="int" >        4       91       96      136      137 </v>
   <v type="int" >        4       96      136      137      141 </v>
   <v type="int" >        4       96      136      140      141 </v>
   <v type="int" >        4       91       92       97      137 </v>
   <v type="int" >        4       91       96       97      137 </v>
   <v type="int" >        4       96       97      137      141 </v>
   <v type="int" >        4       92       97      137      138 </v>
   <v type="int" >        4       97      137      138      142 </v>
   <v type="int" >        4       97      137      141      142 </v>
   <v type="int" >        4       92       93       98      138 </v>
   <v type="int" >        4       92       97       98      138 </v>
   <v type="int" >        4       97       98      138      142 </v>
   <v type="int" >        4       93       98      138      139 </v>
   <v type="int" >        4       98      134      138      139 </v>
   <v type="int" >        4       98      134      138      142 </v>
   <v type="int" >        8       88       93       94      139 </v>
   <v type="int" >        4       88       93       98      139 </v>
   <v type="int" >        4       88       98      134      139 </v>
   <v type="int" >        4       87       88       93      139 </v>
   <v type="int" >        4       87       88      134      139 </v>
   <v type="int" >        4       13       14       93       94 </v>
   <v type="int" >        4       14       88       93       94 </v>
   <v type="int" >        4       14       87       88       93 </v>
   <v type="int" >        4       13       14       23       93 </v>
   <v type="int" >        4       14       23       24       93 </v>
   <v type="int" >        4       14       24       87       93 </v>
   <v type="int" >        4       95       96       99      140 </v>
   <v type="int" >        4       96       99      140      141 </v>
   <v type="int" >        4       99      140      141      143 </v>
   <v type="int" >        4       96       97      100      141 </v>
   <v type="int" >        4       96       99      100      141 </v>
   <v type="int" >        4       99      100      141      143 </v>
   <v type="int" >        4       97      100      141      142 </v>
   <v type="int" >        4      100      141      142      144 </v>
   <v type="int" >        4      100      141      143      144 </v>
   <v type="int" >        4       97       98      101      142 </v>
   <v type="int" >        4       97      100      101      142 </v>
   <v type="int" >        4      100      101      142      144 </v>
   <v type="int" >        4       98      101      134      142 </v>
   <v type="int" >        4      101      128      134      142 </v>
   <v type="int" >        4      101      128      142      144 </v>
   <v type="int" >        4       81       88       98      134 </v>
   <v type="int" >        4       81       98      101      134 </v>
   <v type="int" >        4       81      101      128      134 </v>
   <v type="int" >        4       81       87       88      134 </v>
   <v type="int" >        4       80       81       87      134 </v>
   <v type="int" >        4       80       81      128      134 </v>
   <v type="int" >        4       14       15       87       88 </v>
   <v type="int" >        4       15       81       87       88 </v>
   <v type="int" >        4       15       80       81       87 </v>
   <v type="int" >        4       14       15       24       87 </v>
   <v type="int" >        4       15       24       25       87 </v>
   <v type="int" >        4       15       25       80       87 </v>
   <v type="int" >        4       99      100      102      143 </v>
   <v type="int" >        4      100      102      143      144 </v>
   <v type="int" >        4      102      143      144      145 </v>
   <v type="int" >        4      100      101      103      144 </v>
   <v type="int" >        4      100      102      103      144 </v>
   <v type="int" >        4      102      103      144      145 </v>
   <v type="int" >        4      101      103      128      144 </v>
   <v type="int" >        4      103      121      128      144 </v>
   <v type="int" >        4      103      121      144      145 </v>
   <v type="int" >        4       73       81      101      128 </v>
   <v type="int" >        4       73      101      103      128 </v>
   <v type="int" >        4       73      103      121      128 </v>
   <v type="int" >        4       73       80       81      128 </v>
   <v type="int" >        4       72       73       80      128 </v>
   <v type="int" >        4       72       73      121      128 </v>
   <v type="int" >        4       15       16       80       81 </v>
   <v type="int" >        4       16       73       80       81 </v>
   <v type="int" >        4       16       72       73       80 </v>
   <v type="int" >        4       15       16       25       80 </v>
   <v type="int" >        4       16       25       26       80 </v>
   <v type="int" >        4       16       26       72       80 </v>
   <v type="int" >        4      102      103      104      145 </v>
   <v type="int" >        4      103      104      121      145 </v>
   <v type="int" >        4      104      113      121      145 </v>
   <v type="int" >        4       64       73      103      121 </v>
   <v type="int" >        4       64      103      104      121 </v>
   <v type="int" >        4       64      104      113      121 </v>
   <v type="int" >        4       64       72       73      121 </v>
   <v type="int" >        4       63       64       72      121 </v>
   <v type="int" >        4       63       64      113      121 </v>
   <v type="int" >        4       16       17       72       73 </v>
   <v type="int" >        4       17       64       72       73 </v>
   <v type="int" >        4       17       63       64       72 </v>
   <v type="int" >        4       16       17       26       72 </v>
   <v type="int" >        4       17       26       27       72 </v>
   <v type="int" >        4       17       27       63       72 </v>
   <v type="int" >        4       54       64      104      113 </v>
   <v type="int" >        4       54       63       64      113 </v>
   <v type="int" >        4       53       54       63      113 </v>
   <v type="int" >        4       17       18       63       64 </v>
   <v type="int" >        4       18       54       63       64 </v>
   <v type="int" >        4       18       53       54       63 </v>
   <v type="int" >        8       17       18       27       63 </v>
   <v type="int" >        4       17       18       53       63 </v>
   <v type="int" >        4        2       18       53       54 </v>
   <v type="int" >        4        2       17       18       53 </v>
   <v type="int" >        4        2        3       17       53 </v>
   <v type="int" >        4        3        4        9       45 </v>
   <v type="int" >        4        4        9       10       45 </v>
   <v type="int" >        4        4       10       45       46 </v>
   <v type="int" >        4        9       10       19       55 </v>
   <v type="int" >        4        9       10       45       55 </v>
   <v type="int" >        4       10       45       46       55 </v>
   <v type="int" >        4       10       19       20       55 </v>
   <v type="int" >        4       10       20       55       56 </v>
   <v type="int" >        4       10       46       55       56 </v>
   <v type="int" >        4       19       20       20       56 </v>
   <v type="int" >        4       19       20       55       56 </v>
   <v type="int" >        4       20       55       56       56 </v>
   <v type="int" >        4       20       20       28       56 </v>
   <v type="int" >        4       20       28       56       65 </v>
   <v type="int" >        4       20       56       56       65 </v>
   <v type="int" >        4       20       21       28       57 </v>
   <v type="int" >        4       20       28       56       57 </v>
   <v type="int" >        4       28       56       57       65 </v>
   <v type="int" >        4       21       28       29       57 </v>
   <v type="int" >        4       28       29       57       66 </v>
   <v type="int" >        4       28       57       65       66 </v>
[...]
       <r>   -6.2730    1.0000 </r>
       <r>   -5.2686    1.0000 </r>
       <r>   -3.2854    1.0000 </r>
       <r>   -3.2854    1.0000 </r>
       <r>   -3.1955    1.0000 </r>
       <r>   -2.2437    1.0000 </r>
       <r>    5.7722    1.0000 </r>
       <r>    6.0379    1.0000 </r>
       <r>    6.4419    1.0000 </r>
       <r>    6.4419    1.0000 </r>
       <r>    6.8100    1.0000 </r>
       <r>    6.8100    1.0000 </r>
       <r>    7.1225    1.0000 </r>
       <r>    7.3440    1.0000 </r>
       <r>   17.1527    0.0000 </r>
       <r>   17.5833    0.0000 </r>
       <r>   17.6423    0.0000 </r>
       <r>   17.6423    0.0000 </r>
       <r>   18.0156    0.0000 </r>
       <r>   18.0592    0.0000 </r>
       <r>   18.4292    0.0000 </r>
       <r>   18.7224    0.0000 </r>
      </set>
      <set comment="kpoint 187">
       <r>   -6.4160    1.0000 </r>
       <r>   -6.4160    1.0000 </r>
       <r>   -6.3823    1.0000 </r>
       <r>   -5.3780    1.0000 </r>
       <r>   -3.3951    1.0000 </r>
       <r>   -3.3604    1.0000 </r>
       <r>   -3.3604    1.0000 </r>
       <r>   -3.2967    1.0000 </r>
       <r>    6.1497    1.0000 </r>
       <r>    6.3680    1.0000 </r>
       <r>    6.8059    1.0000 </r>
       <r>    6.8581    1.0000 </r>
       <r>    6.8581    1.0000 </r>
       <r>    7.1226    1.0000 </r>
       <r>    7.1226    1.0000 </r>
       <r>    7.2052    1.0000 </r>
       <r>   17.2617    0.0000 </r>
       <r>   17.6897    0.0000 </r>
       <r>   17.6897    0.0000 </r>
       <r>   17.7248    0.0000 </r>
       <r>   17.8186    0.0000 </r>
       <r>   17.8854    0.0000 </r>
       <r>   18.0631    0.0000 </r>
       <r>   18.2355    0.0000 </r>
      </set>
      <set comment="kpoint 188">
       <r>   -6.7888    1.0000 </r>
       <r>   -6.7888    1.0000 </r>
       <r>   -6.1682    1.0000 </r>
       <r>   -4.9701    1.0000 </r>
       <r>   -3.5981    1.0000 </r>
       <r>   -3.5019    1.0000 </r>
       <r>   -2.8924    1.0000 </r>
       <r>   -2.8924    1.0000 </r>
       <r>    5.8376    1.0000 </r>
       <r>    6.1685    1.0000 </r>
       <r>    6.7113    1.0000 </r>
       <r>    6.7398    1.0000 </r>
       <r>    6.9189    1.0000 </r>
       <r>    6.9189    1.0000 </r>
       <r>    7.1783    1.0000 </r>
       <r>    7.1783    1.0000 </r>
       <r>   17.4250    0.0000 </r>
       <r>   17.5862    0.0000 </r>
       <r>   17.5862    0.0000 </r>
       <r>   17.6478    0.0000 </r>
       <r>   17.6665    0.0000 </r>
       <r>   18.2798    0.0000 </r>
       <r>   18.2799    0.0000 </r>
       <r>   18.3072    0.0000 </r>
      </set>
      <set comment="kpoint 189">
       <r>   -6.2762    1.0000 </r>
       <r>   -6.2762    1.0000 </r>
       <r>   -6.2762    1.0000 </r>
       <r>   -5.0770    1.0000 </r>
       <r>   -3.7041    1.0000 </r>
       <r>   -3.6144    1.0000 </r>
       <r>   -3.6144    1.0000 </r>
       <r>   -3.6144    1.0000 </r>
       <r>    6.3662    1.0000 </r>
       <r>    6.3662    1.0000 </r>
       <r>    6.9979    1.0000 </r>
       <r>    6.9979    1.0000 </r>
       <r>    6.9979    1.0000 </r>
       <r>    7.2397    1.0000 </r>
       <r>    7.2397    1.0000 </r>
       <r>    7.2397    1.0000 </r>
       <r>   17.1419    0.0000 </r>
       <r>   17.6205    0.0000 </r>
       <r>   17.6205    0.0000 </r>
       <r>   17.6205    0.0000 </r>
       <r>   17.8010    0.0000 </r>
       <r>   17.8019    0.0000 </r>
       <r>   18.1002    0.0000 </r>
       <r>   18.1002    0.0000 </r>
      </set>
     </set>
    </set>
   </array>
  </eigenvalues>
  <separator name="orbital magnetization" >
   <v name="MAGDIPOLOUT">      0.00000000      0.00000000      0.00000000</v>
  </separator>
  <dos>
   <i name="efermi">      9.86578082 </i>
   <total>
    <array>
     <dimension dim="1">gridpoints</dimension>
     <dimension dim="2">spin</dimension>
     <field>energy</field>
     <field>total</field>
     <field>integrated</field>
     <set>
      <set comment="spin 1">
       <r>   -13.4411     0.0000     0.0000 </r>
       <r>   -13.3165     0.0000     0.0000 </r>
       <r>   -13.1919     0.0000     0.0000 </r>
       <r>   -13.0673     0.0000     0.0000 </r>
       <r>   -12.9427     0.0000     0.0000 </r>
       <r>   -12.8181     0.0000     0.0000 </r>
       <r>   -12.6935     0.0000     0.0000 </r>
       <r>   -12.5689     0.0000     0.0000 </r>
       <r>   -12.4443     0.0000     0.0000 </r>
       <r>   -12.3197     0.0000     0.0000 </r>
       <r>   -12.1951     0.0000     0.0000 </r>
       <r>   -12.0705     0.0000     0.0000 </r>
       <r>   -11.9459     0.0000     0.0000 </r>
       <r>   -11.8213     0.0000     0.0000 </r>
       <r>   -11.6968     0.0372     0.0006 </r>
       <r>   -11.5722     0.1565     0.0156 </r>
       <r>   -11.4476     0.2433     0.0407 </r>
       <r>   -11.3230     0.2769     0.0727 </r>
       <r>   -11.1984     0.3262     0.1103 </r>
       <r>   -11.0738     0.3633     0.1537 </r>
       <r>   -10.9492     0.3939     0.2009 </r>
       <r>   -10.8246     0.4278     0.2520 </r>
       <r>   -10.7000     0.4660     0.3077 </r>
       <r>   -10.5754     0.4876     0.3671 </r>
       <r>   -10.4508     0.5120     0.4294 </r>
       <r>   -10.3262     0.5394     0.4948 </r>
       <r>   -10.2016     0.5684     0.5638 </r>
       <r>   -10.0770     0.5933     0.6364 </r>
       <r>    -9.9524     0.6158     0.7116 </r>
       <r>    -9.8278     0.6413     0.7899 </r>
       <r>    -9.7033     0.6714     0.8717 </r>
       <r>    -9.5787     0.7048     0.9574 </r>
       <r>    -9.4541     0.7399     1.0474 </r>
       <r>    -9.3295     0.7316     1.1382 </r>
       <r>    -9.2049     0.7366     1.2294 </r>
       <r>    -9.0803     0.7550     1.3224 </r>
       <r>    -8.9557     0.7736     1.4175 </r>
       <r>    -8.8311     0.7986     1.5154 </r>
       <r>    -8.7065     0.8227     1.6165 </r>
       <r>    -8.5819     0.8407     1.7202 </r>
       <r>    -8.4573     0.8645     1.8263 </r>
       <r>    -8.3327     0.8883     1.9356 </r>
       <r>    -8.2081     0.9105     2.0476 </r>
       <r>    -8.0835     0.9253     2.1623 </r>
       <r>    -7.9589     0.9361     2.2781 </r>
       <r>    -7.8343     0.9642     2.3957 </r>
       <r>    -7.7097     1.0720     2.5223 </r>
       <r>    -7.5852     1.1046     2.6589 </r>
       <r>    -7.4606     1.1023     2.7965 </r>
       <r>    -7.3360     1.0527     2.9307 </r>
       <r>    -7.2114     1.0612     3.0630 </r>
       <r>    -7.0868     1.0567     3.1948 </r>
       <r>    -6.9622     1.1091     3.3295 </r>
       <r>    -6.8376     1.1831     3.4723 </r>
       <r>    -6.7130     1.1766     3.6213 </r>
       <r>    -6.5884     1.1945     3.7687 </r>
       <r>    -6.4638     1.2804     3.9255 </r>
       <r>    -6.3392     1.3333     4.0866 </r>
       <r>    -6.2146     1.4298     4.2609 </r>
       <r>    -6.0900     1.4826     4.4377 </r>
       <r>    -5.9654     1.5274     4.6273 </r>
       <r>    -5.8408     1.4128     4.8103 </r>
       <r>    -5.7162     1.3574     4.9809 </r>
       <r>    -5.5917     1.3627     5.1517 </r>
       <r>    -5.4671     1.4404     5.3273 </r>
       <r>    -5.3425     1.3872     5.5009 </r>
       <r>    -5.2179     1.3192     5.6700 </r>
       <r>    -5.0933     1.3013     5.8327 </r>
       <r>    -4.9687     1.2804     5.9941 </r>
       <r>    -4.8441     1.2597     6.1520 </r>
       <r>    -4.7195     1.2187     6.3075 </r>
       <r>    -4.5949     1.1487     6.4541 </r>
       <r>    -4.4703     1.0891     6.5936 </r>
       <r>    -4.3457     1.1838     6.7320 </r>
       <r>    -4.2211     1.0773     6.8744 </r>
       <r>    -4.0965     1.0871     7.0075 </r>
       <r>    -3.9719     1.0275     7.1384 </r>
       <r>    -3.8473     0.9953     7.2649 </r>
       <r>    -3.7227     0.9302     7.3860 </r>
       <r>    -3.5981     0.8874     7.4995 </r>
       <r>    -3.4736     0.9668     7.6120 </r>
       <r>    -3.3490     0.9871     7.7376 </r>
       <r>    -3.2244     1.0712     7.8717 </r>
       <r>    -3.0998     1.0214     8.0040 </r>
       <r>    -2.9752     0.8407     8.1216 </r>
       <r>    -2.8506     0.8543     8.2239 </r>
       <r>    -2.7260     0.8536     8.3287 </r>
       <r>    -2.6014     0.8200     8.4292 </r>
       <r>    -2.4768     0.9356     8.5379 </r>
       <r>    -2.3522     1.0928     8.6635 </r>
       <r>    -2.2276     1.3290     8.8133 </r>
       <r>    -2.1030     1.7427     9.0074 </r>
       <r>    -1.9784     1.9217     9.2390 </r>
       <r>    -1.8538     2.0349     9.4841 </r>
       <r>    -1.7292     2.3961     9.7577 </r>
       <r>    -1.6046     2.4348    10.0790 </r>
       <r>    -1.4801     2.3474    10.3764 </r>
       <r>    -1.3555     2.1443    10.6619 </r>
       <r>    -1.2309     1.8700    10.9098 </r>
       <r>    -1.1063     1.7545    11.1350 </r>
       <r>    -0.9817     1.5549    11.3389 </r>
       <r>    -0.8571     1.4713    11.5270 </r>
       <r>    -0.7325     1.4123    11.7067 </r>
       <r>    -0.6079     1.3570    11.8793 </r>
       <r>    -0.4833     1.2502    12.0410 </r>
       <r>    -0.3587     1.2150    12.1973 </r>
       <r>    -0.2341     1.1849    12.3466 </r>
       <r>    -0.1095     1.1881    12.4944 </r>
       <r>     0.0151     1.2068    12.6447 </r>
       <r>     0.1397     1.0678    12.7846 </r>
       <r>     0.2643     0.9844    12.9121 </r>
       <r>     0.3889     1.0602    13.0387 </r>
       <r>     0.5134     1.1970    13.1771 </r>
       <r>     0.6380     1.5474    13.3476 </r>
       <r>     0.7626     1.7461    13.5535 </r>
       <r>     0.8872     2.2335    13.7969 </r>
       <r>     1.0118     2.2159    14.0773 </r>
       <r>     1.1364     2.1667    14.3506 </r>
       <r>     1.2610     2.2047    14.6225 </r>
       <r>     1.3856     2.2644    14.8937 </r>
       <r>     1.5102     2.1627    15.1740 </r>
       <r>     1.6348     1.8855    15.4261 </r>
       <r>     1.7594     1.4608    15.6285 </r>
       <r>     1.8840     1.4848    15.8148 </r>
       <r>     2.0086     1.6309    16.0043 </r>
       <r>     2.1332     2.2563    16.2450 </r>
       <r>     2.2578     2.5100    16.5555 </r>
       <r>     2.3824     2.3222    16.8527 </r>
       <r>     2.5070     2.2538    17.1360 </r>
       <r>     2.6315     2.3190    17.4207 </r>
       <r>     2.7561     2.3355    17.7129 </r>
       <r>     2.8807     2.5930    18.0176 </r>
       <r>     3.0053     2.9910    18.3790 </r>
       <r>     3.1299     2.8256    18.7370 </r>
       <r>     3.2545     2.5811    19.0737 </r>
       <r>     3.3791     2.6716    19.4008 </r>
       <r>     3.5037     2.6664    19.7295 </r>
       <r>     3.6283     2.7827    20.0661 </r>
       <r>     3.7529     3.0322    20.4203 </r>
       <r>     3.8775     3.3815    20.8201 </r>
       <r>     4.0021     3.2515    21.2425 </r>
       <r>     4.1267     3.1132    21.6368 </r>
       <r>     4.2513     3.0736    22.0228 </r>
       <r>     4.3759     2.8925    22.4008 </r>
       <r>     4.5005     2.8383    22.7555 </r>
       <r>     4.6250     2.7668    23.1118 </r>
       <r>     4.7496     2.8952    23.4606 </r>
       <r>     4.8742     3.1368    23.8448 </r>
       <r>     4.9988     2.8576    24.2054 </r>
       <r>     5.1234     2.8394    24.5609 </r>
       <r>     5.2480     2.9423    24.9231 </r>
       <r>     5.3726     2.9568    25.2885 </r>
       <r>     5.4972     2.7881    25.6539 </r>
       <r>     5.6218     2.6609    25.9929 </r>
       <r>     5.7464     2.4429    26.3094 </r>
       <r>     5.8710     2.6449    26.6243 </r>
       <r>     5.9956     2.6802    26.9572 </r>
       <r>     6.1202     2.7287    27.2951 </r>
       <r>     6.2448     2.6893    27.6355 </r>
       <r>     6.3694     2.7412    27.9773 </r>
       <r>     6.4940     2.5083    28.3170 </r>
       <r>     6.6186     2.3766    28.6191 </r>
       <r>     6.7431     2.2303    28.8989 </r>
       <r>     6.8677     2.1982    29.1717 </r>
       <r>     6.9923     2.1570    29.4375 </r>
       <r>     7.1169     2.2670    29.7195 </r>
       <r>     7.2415     1.9594    29.9904 </r>
       <r>     7.3661     1.6644    30.2141 </r>
       <r>     7.4907     1.4881    30.4108 </r>
       <r>     7.6153     1.3635    30.5871 </r>
       <r>     7.7399     1.2632    30.7500 </r>
       <r>     7.8645     1.1654    30.9013 </r>
       <r>     7.9891     1.0525    31.0389 </r>
       <r>     8.1137     0.9593    31.1642 </r>
       <r>     8.2383     0.8896    31.2793 </r>
       <r>     8.3629     0.8367    31.3861 </r>
       <r>     8.4875     0.7827    31.4879 </r>
       <r>     8.6121     0.6803    31.5788 </r>
       <r>     8.7366     0.6070    31.6589 </r>
       <r>     8.8612     0.5682    31.7320 </r>
       <r>     8.9858     0.5075    31.7987 </r>
       <r>     9.1104     0.3979    31.8556 </r>
       <r>     9.2350     0.3685    31.9027 </r>
       <r>     9.3596     0.3442    31.9473 </r>
       <r>     9.4842     0.1587    31.9778 </r>
       <r>     9.6088     0.1403    31.9946 </r>
       <r>     9.7334     0.0019    32.0000 </r>
       <r>     9.8580     0.0000    32.0000 </r>
       <r>     9.9826     0.0000    32.0000 </r>
       <r>    10.1072     0.0000    32.0000 </r>
       <r>    10.2318     0.0000    32.0000 </r>
       <r>    10.3564     0.0000    32.0000 </r>
       <r>    10.4810     0.0000    32.0000 </r>
       <r>    10.6056     0.0000    32.0000 </r>
       <r>    10.7302     0.0000    32.0000 </r>
       <r>    10.8547     0.0000    32.0000 </r>
       <r>    10.9793     0.0000    32.0000 </r>
       <r>    11.1039     0.0000    32.0000 </r>
       <r>    11.2285     0.0000    32.0000 </r>
       <r>    11.3531     0.0000    32.0000 </r>
       <r>    11.4777     0.0000    32.0000 </r>
       <r>    11.6023     0.0000    32.0000 </r>
       <r>    11.7269     0.0000    32.0000 </r>
       <r>    11.8515     0.0000    32.0000 </r>
       <r>    11.9761     0.0000    32.0000 </r>
       <r>    12.1007     0.0000    32.0000 </r>
       <r>    12.2253     0.0000    32.0000 </r>
       <r>    12.3499     0.0000    32.0000 </r>
       <r>    12.4745     0.0000    32.0000 </r>
       <r>    12.5991     0.0000    32.0000 </r>
       <r>    12.7237     0.0000    32.0000 </r>
       <r>    12.8482     0.0000    32.0000 </r>
       <r>    12.9728     0.0000    32.0000 </r>
       <r>    13.0974     0.0000    32.0000 </r>
       <r>    13.2220     0.0000    32.0000 </r>
       <r>    13.3466     0.0000    32.0000 </r>
       <r>    13.4712     0.0000    32.0000 </r>
       <r>    13.5958     0.0000    32.0000 </r>
       <r>    13.7204     0.1684    32.0069 </r>
       <r>    13.8450     0.4192    32.0412 </r>
       <r>    13.9696     0.5215    32.1101 </r>
       <r>    14.0942     0.5901    32.1793 </r>
       <r>    14.2188     0.6903    32.2583 </r>
       <r>    14.3434     0.7332    32.3488 </r>
       <r>    14.4680     0.8264    32.4446 </r>
       <r>    14.5926     0.9510    32.5561 </r>
       <r>    14.7172     1.1098    32.6843 </r>
       <r>    14.8418     1.2972    32.8353 </r>
       <r>    14.9663     1.3254    32.9995 </r>
       <r>    15.0909     1.3669    33.1661 </r>
       <r>    15.2155     1.3966    33.3375 </r>
       <r>    15.3401     1.4596    33.5153 </r>
       <r>    15.4647     1.6101    33.7068 </r>
       <r>    15.5893     1.7302    33.9146 </r>
       <r>    15.7139     1.8224    34.1372 </r>
       <r>    15.8385     1.8526    34.3645 </r>
       <r>    15.9631     1.9834    34.6018 </r>
       <r>    16.0877     2.1798    34.8635 </r>
       <r>    16.2123     2.2226    35.1342 </r>
       <r>    16.3369     2.2121    35.4076 </r>
       <r>    16.4615     2.2936    35.6882 </r>
       <r>    16.5861     2.4182    35.9818 </r>
       <r>    16.7107     2.5667    36.2900 </r>
       <r>    16.8353     2.6679    36.6150 </r>
       <r>    16.9598     2.9378    36.9611 </r>
       <r>    17.0844     3.2356    37.3503 </r>
       <r>    17.2090     3.4283    37.7648 </r>
       <r>    17.3336     3.6130    38.2054 </r>
       <r>    17.4582     3.7885    38.6531 </r>
       <r>    17.5828     3.8549    39.1312 </r>
       <r>    17.7074     4.1418    39.6741 </r>
       <r>    17.8320     3.6584    40.1560 </r>
       <r>    17.9566     3.7618    40.6382 </r>
       <r>    18.0812     3.5729    41.0883 </r>
       <r>    18.2058     3.5813    41.5513 </r>
       <r>    18.3304     3.0988    41.9570 </r>
       <r>    18.4550     3.1100    42.3455 </r>
       <r>    18.5796     2.9227    42.7199 </r>
       <r>    18.7042     2.7151    43.0738 </r>
       <r>    18.8288     2.7271    43.4098 </r>
       <r>    18.9533     2.8569    43.7520 </r>
       <r>    19.0779     3.2433    44.1253 </r>
       <r>    19.2025     3.1733    44.5277 </r>
       <r>    19.3271     2.9187    44.9133 </r>
       <r>    19.4517     2.6194    45.2610 </r>
       <r>    19.5763     2.7194    45.5895 </r>
       <r>    19.7009     2.8694    45.9370 </r>
       <r>    19.8255     2.8601    46.2984 </r>
       <r>    19.9501     2.8836    46.6570 </r>
       <r>    20.0747     2.7582    47.0050 </r>
       <r>    20.1993     2.2577    47.3183 </r>
       <r>    20.3239     1.6305    47.5523 </r>
       <r>    20.4485     1.1212    47.7229 </r>
       <r>    20.5731     0.6242    47.8307 </r>
       <r>    20.6977     0.3381    47.8886 </r>
       <r>    20.8223     0.2048    47.9218 </r>
       <r>    20.9469     0.1489    47.9435 </r>
       <r>    21.0714     0.1158    47.9598 </r>
       <r>    21.1960     0.0957    47.9728 </r>
       <r>    21.3206     0.0790    47.9839 </r>
       <r>    21.4452     0.0403    47.9910 </r>
       <r>    21.5698     0.0243    47.9949 </r>
       <r>    21.6944     0.0149    47.9973 </r>
       <r>    21.8190     0.0089    47.9988 </r>
       <r>    21.9436     0.0044    47.9996 </r>
       <r>    22.0682     0.0014    47.9999 </r>
       <r>    22.1928     0.0001    48.0000 </r>
       <r>    22.3174     0.0000    48.0000 </r>
       <r>    22.4420     0.0000    48.0000 </r>
       <r>    22.5666     0.0000    48.0000 </r>
       <r>    22.6912     0.0000    48.0000 </r>
       <r>    22.8158     0.0000    48.0000 </r>
       <r>    22.9404     0.0000    48.0000 </r>
       <r>    23.0649     0.0000    48.0000 </r>
       <r>    23.1895     0.0000    48.0000 </r>
       <r>    23.3141     0.0000    48.0000 </r>
       <r>    23.4387     0.0000    48.0000 </r>
       <r>    23.5633     0.0000    48.0000 </r>
       <r>    23.6879     0.0000    48.0000 </r>
       <r>    23.8125     0.0000    48.0000 </r>
       <r>    23.9371     0.0000    48.0000 </r>
      </set>
     </set>
    </array>
   </total>
  </dos>
 </calculation>
 <structure name="finalpos" >
  <crystal>
   <varray name="basis" >
    <v>       3.57371000       0.00000000       0.00000000 </v>
    <v>      -0.14294800       3.57085000       0.00000000 </v>
    <v>      -0.14294800      -0.14878500       3.56774900 </v>
   </varray>
   <i name="volume">     45.52869558 </i>
   <varray name="rec_basis" >
    <v>       0.27982125       0.01120178       0.01167867 </v>
    <v>       0.00000000       0.28004537       0.01167867 </v>
    <v>       0.00000000       0.00000000       0.28028878 </v>
   </varray>
  </crystal>
  <varray name="positions" >
   <v>       0.25000000       0.75000000       0.25000000 </v>
   <v>       0.00000000       0.00000000       0.50000000 </v>
   <v>       0.25000000       0.25000000       0.75000000 </v>
   <v>       0.00000000       0.50000000       0.00000000 </v>
   <v>       0.75000000       0.75000000       0.75000000 </v>
   <v>       0.50000000       0.00000000       0.00000000 </v>
   <v>       0.75000000       0.25000000       0.25000000 </v>
   <v>       0.50000000       0.50000000       0.50000000 </v>
  </varray>
 </structure>
</modeling>
