unknown system                          
           1
     3.573710    0.000000    0.000000
    -0.142948    3.570850    0.000000
    -0.142948   -0.148785    3.567749
   C 
   8
Direct configuration=     1
   0.25000000  0.75000000  0.25000000
   0.00000000  0.00000000  0.50000000
   0.25000000  0.25000000  0.75000000
   0.00000000  0.50000000  0.00000000
   0.75000000  0.75000000  0.75000000
   0.50000000  0.00000000  0.00000000
   0.75000000  0.25000000  0.25000000
   0.50000000  0.50000000  0.50000000
