   8   8   0   0
  0.5783532E+01  0.3589999E-09  0.3589999E-09  0.3589999E-09  0.2000000E-16
  1.000000000000000E-004
  CAR 
 unknown system                          
     22.65078224    -13.37986312  301      9.57466053      1.00000000
    -13.380  0.0000E+00  0.0000E+00
    -13.260  0.0000E+00  0.0000E+00
    -13.140  0.0000E+00  0.0000E+00
    -13.020  0.0000E+00  0.0000E+00
    -12.899  0.0000E+00  0.0000E+00
    -12.779  0.0000E+00  0.0000E+00
    -12.659  0.0000E+00  0.0000E+00
    -12.539  0.0000E+00  0.0000E+00
    -12.419  0.0000E+00  0.0000E+00
    -12.299  0.0000E+00  0.0000E+00
    -12.179  0.0000E+00  0.0000E+00
    -12.059  0.0000E+00  0.0000E+00
    -11.939  0.0000E+00  0.0000E+00
    -11.819  0.0000E+00  0.0000E+00
    -11.698  0.3485E-01  0.5074E-03
    -11.578  0.1550E+00  0.1482E-01
    -11.458  0.2430E+00  0.3869E-01
    -11.338  0.2747E+00  0.6948E-01
    -11.218  0.3224E+00  0.1054E+00
    -11.098  0.3634E+00  0.1470E+00
    -10.978  0.3925E+00  0.1923E+00
    -10.858  0.4235E+00  0.2412E+00
    -10.738  0.4621E+00  0.2944E+00
    -10.618  0.4857E+00  0.3515E+00
    -10.497  0.5093E+00  0.4113E+00
    -10.377  0.5351E+00  0.4739E+00
    -10.257  0.5636E+00  0.5399E+00
    -10.137  0.5914E+00  0.6093E+00
    -10.017  0.6105E+00  0.6814E+00
     -9.897  0.6306E+00  0.7560E+00
     -9.777  0.6526E+00  0.8330E+00
     -9.657  0.6754E+00  0.9127E+00
     -9.537  0.6998E+00  0.9953E+00
     -9.416  0.7219E+00  0.1081E+01
     -9.296  0.7398E+00  0.1169E+01
     -9.176  0.7574E+00  0.1258E+01
     -9.056  0.7776E+00  0.1351E+01
     -8.936  0.7983E+00  0.1445E+01
     -8.816  0.8200E+00  0.1542E+01
     -8.696  0.8424E+00  0.1642E+01
     -8.576  0.8602E+00  0.1745E+01
     -8.456  0.8780E+00  0.1849E+01
     -8.336  0.8968E+00  0.1956E+01
     -8.215  0.9163E+00  0.2064E+01
     -8.095  0.9361E+00  0.2176E+01
     -7.975  0.9622E+00  0.2289E+01
     -7.855  0.1023E+01  0.2409E+01
     -7.735  0.1051E+01  0.2534E+01
     -7.615  0.1097E+01  0.2664E+01
     -7.495  0.1097E+01  0.2796E+01
     -7.375  0.1071E+01  0.2926E+01
     -7.255  0.1040E+01  0.3053E+01
     -7.135  0.1075E+01  0.3181E+01
     -7.014  0.1089E+01  0.3311E+01
     -6.894  0.1096E+01  0.3442E+01
     -6.774  0.1124E+01  0.3575E+01
     -6.654  0.1187E+01  0.3713E+01
     -6.534  0.1223E+01  0.3859E+01
     -6.414  0.1335E+01  0.4014E+01
     -6.294  0.1388E+01  0.4179E+01
     -6.174  0.1486E+01  0.4350E+01
     -6.054  0.1624E+01  0.4538E+01
     -5.934  0.1581E+01  0.4734E+01
     -5.813  0.1552E+01  0.4924E+01
     -5.693  0.1470E+01  0.5107E+01
     -5.573  0.1425E+01  0.5279E+01
     -5.453  0.1431E+01  0.5452E+01
     -5.333  0.1427E+01  0.5622E+01
     -5.213  0.1384E+01  0.5792E+01
     -5.093  0.1289E+01  0.5954E+01
     -4.973  0.1230E+01  0.6104E+01
     -4.853  0.1212E+01  0.6251E+01
     -4.733  0.1187E+01  0.6395E+01
     -4.612  0.1177E+01  0.6541E+01
     -4.492  0.1079E+01  0.6675E+01
     -4.372  0.1085E+01  0.6806E+01
     -4.252  0.1127E+01  0.6938E+01
     -4.132  0.1015E+01  0.7063E+01
     -4.012  0.9670E+00  0.7182E+01
     -3.892  0.9928E+00  0.7300E+01
     -3.772  0.9963E+00  0.7418E+01
     -3.652  0.8664E+00  0.7528E+01
     -3.531  0.9259E+00  0.7632E+01
     -3.411  0.9138E+00  0.7745E+01
     -3.291  0.9908E+00  0.7857E+01
     -3.171  0.9201E+00  0.7973E+01
     -3.051  0.9631E+00  0.8095E+01
     -2.931  0.9621E+00  0.8205E+01
     -2.811  0.9610E+00  0.8323E+01
     -2.691  0.9580E+00  0.8438E+01
     -2.571  0.1032E+01  0.8557E+01
     -2.451  0.1160E+01  0.8688E+01
     -2.330  0.1386E+01  0.8842E+01
     -2.210  0.1602E+01  0.9021E+01
     -2.090  0.1852E+01  0.9228E+01
     -1.970  0.2323E+01  0.9474E+01
     -1.850  0.3028E+01  0.9793E+01
     -1.730  0.3182E+01  0.1017E+02
     -1.610  0.2348E+01  0.1049E+02
     -1.490  0.1865E+01  0.1074E+02
     -1.370  0.1705E+01  0.1095E+02
     -1.250  0.1593E+01  0.1115E+02
     -1.129  0.1502E+01  0.1133E+02
     -1.009  0.1430E+01  0.1151E+02
     -0.889  0.1394E+01  0.1168E+02
     -0.769  0.1358E+01  0.1184E+02
     -0.649  0.1317E+01  0.1200E+02
     -0.529  0.1313E+01  0.1216E+02
     -0.409  0.1157E+01  0.1232E+02
     -0.289  0.1121E+01  0.1246E+02
     -0.169  0.1099E+01  0.1259E+02
     -0.049  0.1084E+01  0.1272E+02
      0.072  0.1073E+01  0.1285E+02
      0.192  0.1052E+01  0.1298E+02
      0.312  0.1005E+01  0.1310E+02
      0.432  0.1237E+01  0.1324E+02
      0.552  0.1483E+01  0.1340E+02
      0.672  0.1745E+01  0.1359E+02
      0.792  0.1979E+01  0.1382E+02
      0.912  0.2361E+01  0.1409E+02
      1.032  0.2203E+01  0.1436E+02
      1.152  0.2176E+01  0.1462E+02
      1.273  0.2270E+01  0.1489E+02
      1.393  0.2267E+01  0.1516E+02
      1.513  0.1873E+01  0.1541E+02
      1.633  0.1515E+01  0.1562E+02
      1.753  0.1523E+01  0.1580E+02
      1.873  0.1811E+01  0.1600E+02
      1.993  0.2084E+01  0.1624E+02
      2.113  0.2248E+01  0.1649E+02
      2.233  0.2385E+01  0.1677E+02
      2.354  0.2428E+01  0.1706E+02
      2.474  0.2343E+01  0.1735E+02
      2.594  0.2352E+01  0.1763E+02
      2.714  0.2575E+01  0.1792E+02
      2.834  0.2833E+01  0.1824E+02
      2.954  0.3451E+01  0.1861E+02
      3.074  0.2773E+01  0.1898E+02
      3.194  0.2540E+01  0.1930E+02
      3.314  0.2554E+01  0.1958E+02
      3.434  0.2996E+01  0.1992E+02
      3.555  0.2767E+01  0.2026E+02
      3.675  0.3307E+01  0.2061E+02
      3.795  0.4026E+01  0.2105E+02
      3.915  0.3839E+01  0.2155E+02
      4.035  0.3211E+01  0.2197E+02
      4.155  0.2655E+01  0.2232E+02
      4.275  0.2577E+01  0.2263E+02
      4.395  0.2888E+01  0.2295E+02
      4.515  0.2915E+01  0.2331E+02
      4.635  0.2769E+01  0.2365E+02
      4.756  0.3071E+01  0.2400E+02
      4.876  0.2968E+01  0.2437E+02
      4.996  0.3003E+01  0.2472E+02
      5.116  0.3080E+01  0.2509E+02
      5.236  0.3156E+01  0.2546E+02
      5.356  0.2841E+01  0.2583E+02
      5.476  0.2460E+01  0.2614E+02
      5.596  0.2404E+01  0.2644E+02
      5.716  0.2395E+01  0.2673E+02
      5.836  0.2582E+01  0.2702E+02
      5.957  0.2906E+01  0.2735E+02
      6.077  0.2813E+01  0.2770E+02
      6.197  0.2796E+01  0.2803E+02
      6.317  0.2736E+01  0.2836E+02
      6.437  0.2467E+01  0.2867E+02
      6.557  0.2334E+01  0.2896E+02
      6.677  0.2837E+01  0.2926E+02
      6.797  0.2306E+01  0.2963E+02
      6.917  0.1818E+01  0.2986E+02
      7.038  0.1656E+01  0.3007E+02
      7.158  0.1538E+01  0.3026E+02
      7.278  0.1407E+01  0.3044E+02
      7.398  0.1328E+01  0.3060E+02
      7.518  0.1247E+01  0.3076E+02
      7.638  0.1174E+01  0.3090E+02
      7.758  0.1050E+01  0.3104E+02
      7.878  0.9456E+00  0.3115E+02
      7.998  0.8922E+00  0.3126E+02
      8.118  0.8377E+00  0.3137E+02
      8.239  0.7903E+00  0.3147E+02
      8.359  0.7126E+00  0.3156E+02
      8.479  0.6350E+00  0.3164E+02
      8.599  0.5634E+00  0.3171E+02
      8.719  0.5420E+00  0.3178E+02
      8.839  0.4256E+00  0.3183E+02
      8.959  0.3505E+00  0.3188E+02
      9.079  0.3843E+00  0.3193E+02
      9.199  0.2234E+00  0.3197E+02
      9.319  0.1263E+00  0.3199E+02
      9.440  0.2211E-01  0.3200E+02
      9.560  0.0000E+00  0.3200E+02
      9.680  0.0000E+00  0.3200E+02
      9.800  0.0000E+00  0.3200E+02
      9.920  0.0000E+00  0.3200E+02
     10.040  0.0000E+00  0.3200E+02
     10.160  0.0000E+00  0.3200E+02
     10.280  0.0000E+00  0.3200E+02
     10.400  0.0000E+00  0.3200E+02
     10.520  0.0000E+00  0.3200E+02
     10.641  0.0000E+00  0.3200E+02
     10.761  0.0000E+00  0.3200E+02
     10.881  0.0000E+00  0.3200E+02
     11.001  0.0000E+00  0.3200E+02
     11.121  0.0000E+00  0.3200E+02
     11.241  0.0000E+00  0.3200E+02
     11.361  0.0000E+00  0.3200E+02
     11.481  0.0000E+00  0.3200E+02
     11.601  0.0000E+00  0.3200E+02
     11.721  0.0000E+00  0.3200E+02
     11.842  0.0000E+00  0.3200E+02
     11.962  0.0000E+00  0.3200E+02
     12.082  0.0000E+00  0.3200E+02
     12.202  0.0000E+00  0.3200E+02
     12.322  0.0000E+00  0.3200E+02
     12.442  0.0000E+00  0.3200E+02
     12.562  0.0000E+00  0.3200E+02
     12.682  0.0000E+00  0.3200E+02
     12.802  0.0000E+00  0.3200E+02
     12.923  0.0000E+00  0.3200E+02
     13.043  0.0000E+00  0.3200E+02
     13.163  0.0000E+00  0.3200E+02
     13.283  0.0000E+00  0.3200E+02
     13.403  0.0000E+00  0.3200E+02
     13.523  0.0000E+00  0.3200E+02
     13.643  0.4392E-01  0.3200E+02
     13.763  0.1992E+00  0.3202E+02
     13.883  0.4338E+00  0.3205E+02
     14.003  0.5821E+00  0.3211E+02
     14.124  0.6091E+00  0.3219E+02
     14.244  0.6812E+00  0.3226E+02
     14.364  0.8700E+00  0.3236E+02
     14.484  0.9530E+00  0.3247E+02
     14.604  0.1109E+01  0.3259E+02
     14.724  0.1484E+01  0.3278E+02
     14.844  0.1447E+01  0.3296E+02
     14.964  0.1459E+01  0.3313E+02
     15.084  0.1567E+01  0.3331E+02
     15.204  0.1594E+01  0.3350E+02
     15.325  0.1732E+01  0.3370E+02
     15.445  0.1840E+01  0.3392E+02
     15.565  0.2073E+01  0.3415E+02
     15.685  0.2327E+01  0.3442E+02
     15.805  0.2261E+01  0.3470E+02
     15.925  0.2086E+01  0.3495E+02
     16.045  0.2086E+01  0.3520E+02
     16.165  0.2146E+01  0.3546E+02
     16.285  0.2264E+01  0.3572E+02
     16.405  0.2438E+01  0.3600E+02
     16.526  0.2586E+01  0.3630E+02
     16.646  0.2804E+01  0.3663E+02
     16.766  0.2811E+01  0.3697E+02
     16.886  0.2894E+01  0.3731E+02
     17.006  0.3034E+01  0.3766E+02
     17.126  0.3274E+01  0.3804E+02
     17.246  0.3569E+01  0.3846E+02
     17.366  0.3901E+01  0.3891E+02
     17.486  0.4395E+01  0.3940E+02
     17.606  0.4592E+01  0.3995E+02
     17.727  0.4449E+01  0.4051E+02
     17.847  0.3467E+01  0.4098E+02
     17.967  0.3823E+01  0.4137E+02
     18.087  0.4377E+01  0.4185E+02
     18.207  0.3616E+01  0.4235E+02
     18.327  0.3537E+01  0.4278E+02
     18.447  0.3764E+01  0.4322E+02
     18.567  0.3888E+01  0.4368E+02
     18.687  0.3173E+01  0.4410E+02
     18.808  0.2797E+01  0.4445E+02
     18.928  0.2607E+01  0.4478E+02
     19.048  0.2524E+01  0.4508E+02
     19.168  0.2661E+01  0.4539E+02
     19.288  0.2873E+01  0.4572E+02
     19.408  0.2776E+01  0.4606E+02
     19.528  0.2827E+01  0.4640E+02
     19.648  0.2714E+01  0.4674E+02
     19.768  0.2567E+01  0.4705E+02
     19.888  0.2090E+01  0.4734E+02
     20.009  0.1663E+01  0.4756E+02
     20.129  0.1256E+01  0.4774E+02
     20.249  0.5819E+00  0.4785E+02
     20.369  0.3867E+00  0.4790E+02
     20.489  0.2571E+00  0.4794E+02
     20.609  0.1784E+00  0.4796E+02
     20.729  0.1227E+00  0.4798E+02
     20.849  0.6950E-01  0.4799E+02
     20.969  0.1770E-01  0.4800E+02
     21.089  0.0000E+00  0.4800E+02
     21.210  0.0000E+00  0.4800E+02
     21.330  0.0000E+00  0.4800E+02
     21.450  0.0000E+00  0.4800E+02
     21.570  0.0000E+00  0.4800E+02
     21.690  0.0000E+00  0.4800E+02
     21.810  0.0000E+00  0.4800E+02
     21.930  0.0000E+00  0.4800E+02
     22.050  0.0000E+00  0.4800E+02
     22.170  0.0000E+00  0.4800E+02
     22.290  0.0000E+00  0.4800E+02
     22.411  0.0000E+00  0.4800E+02
     22.531  0.0000E+00  0.4800E+02
     22.651  0.0000E+00  0.4800E+02
