 vasp.5.4.4.18Apr17-6-g9f103f2a35 (build Mar 12 2022 03:36:41) complex          
  
 executed on IFC19.0.3.199_CrayMP date 2022.12.01  10:24:30
 running on   16 total cores
 distrk:  each k-point on   16 cores,    1 groups
 distr:  one band on NCORES_PER_BAND=   4 cores,    4 groups


--------------------------------------------------------------------------------------------------------


 INCAR:
 POTCAR:   PAW_PBE C 08Apr2002                    
 POTCAR:   PAW_PBE C 08Apr2002                    
   VRHFIN =C: s2p2                                                              
   LEXCH  = PE                                                                  
   EATOM  =   147.1560 eV,   10.8157 Ry                                         
                                                                                
   TITEL  = PAW_PBE C 08Apr2002                                                 
   LULTRA =        F    use ultrasoft PP ?                                      
   IUNSCR =        0    unscreen: 0-lin 1-nonlin 2-no                           
   RPACOR =     .000    partial core radius                                     
   POMASS =   12.011; ZVAL   =    4.000    mass and valenz                      
   RCORE  =    1.500    outmost cutoff radius                                   
   RWIGS  =    1.630; RWIGS  =     .863    wigner-seitz radius (au A)           
   ENMAX  =  400.000; ENMIN  =  300.000 eV                                      
   ICORE  =        2    local potential                                         
   LCOR   =        T    correct aug charges                                     
   LPAW   =        T    paw PP                                                  
   EAUG   =  644.873                                                            
   DEXC   =     .000                                                            
   RMAX   =    2.266    core radius for proj-oper                               
   RAUG   =    1.300    factor for augmentation sphere                          
   RDEP   =    1.501    radius for radial grids                                 
   RDEPT  =    1.300    core radius for aug-charge                              
   QCUT   =   -5.516; QGAM   =   11.032    optimization parameters              
                                                                                
   Description                                                                  
     l     E      TYP  RCUT    TYP  RCUT                                        
     0   .000     23  1.200                                                     
     0   .000     23  1.200                                                     
     1   .000     23  1.500                                                     
     1  2.500     23  1.500                                                     
     2   .000      7  1.500                                                     
  local pseudopotential read in
  atomic valenz-charges read in
  non local Contribution for L=           0  read in
    real space projection operators read in
  non local Contribution for L=           0  read in
    real space projection operators read in
  non local Contribution for L=           1  read in
    real space projection operators read in
  non local Contribution for L=           1  read in
    real space projection operators read in
    PAW grid and wavefunctions read in
 
   number of l-projection  operators is LMAX  =           4
   number of lm-projection operators is LMMAX =           8
 
 PAW_PBE C 08Apr2002                    :
 energy of atom  1       EATOM= -147.1560
 kinetic energy error for atom=    0.0288 (will be added to EATOM!!)
 
 
 POSCAR: C8                                      
  positions in direct lattice
  No initial velocities read in
 exchange correlation table for  LEXCH =        8
   RHO(1)=    0.500       N(1)  =     2000
   RHO(2)=  100.500       N(2)  =     4000
 


--------------------------------------------------------------------------------------------------------


 ion  position               nearest neighbor table
   1  0.250  0.750  0.250-   2 1.55   4 1.55   6 1.55   8 1.55
   2  0.000  0.000  0.500-   1 1.55   3 1.55   5 1.55   7 1.55
   3  0.250  0.250  0.750-   2 1.55   4 1.55   6 1.55   8 1.55
   4  0.000  0.500  0.000-   1 1.55   3 1.55   5 1.55   7 1.55
   5  0.750  0.750  0.750-   2 1.55   4 1.55   6 1.55   8 1.55
   6  0.500  0.000  0.000-   1 1.55   3 1.55   5 1.55   7 1.55
   7  0.750  0.250  0.250-   2 1.55   4 1.55   6 1.55   8 1.55
   8  0.500  0.500  0.500-   1 1.55   3 1.55   5 1.55   7 1.55
 
  LATTYP: Found a simple cubic cell.
 ALAT       =     3.5899993590
  
  Lattice vectors:
  
 A1 = (   3.5899993590,   0.0000000000,   0.0000000000)
 A2 = (   0.0000000000,   3.5899993590,   0.0000000000)
 A3 = (   0.0000000000,   0.0000000000,   3.5899993590)


Analysis of symmetry for initial positions (statically):
=====================================================================
 Subroutine PRICEL returns following result:
 
  LATTYP: Found a face centered cubic cell.
 ALAT       =     3.5899993590
  
  Lattice vectors:
  
 A1 = (   1.7949996795,   1.7949996795,   0.0000000000)
 A2 = (   1.7949996795,   0.0000000000,  -1.7949996795)
 A3 = (   0.0000000000,   1.7949996795,  -1.7949996795)
 
   4 primitive cells build up your supercell.
 

 Routine SETGRP: Setting up the symmetry group for a 
 simple cubic supercell.


 Subroutine GETGRP returns: Found 48 space group operations
 (whereof 24 operations were pure point group operations)
 out of a pool of 48 trial point group operations.


The static configuration has the point symmetry T_d .
 The point group associated with its full space group is O_h .


Analysis of symmetry for dynamics (positions and initial velocities):
=====================================================================
 Subroutine PRICEL returns following result:
 
  LATTYP: Found a face centered cubic cell.
 ALAT       =     3.5899993590
  
  Lattice vectors:
  
 A1 = (   1.7949996795,   1.7949996795,   0.0000000000)
 A2 = (   1.7949996795,   0.0000000000,  -1.7949996795)
 A3 = (   0.0000000000,   1.7949996795,  -1.7949996795)
 
   4 primitive cells build up your supercell.
 

 Routine SETGRP: Setting up the symmetry group for a 
 simple cubic supercell.


 Subroutine GETGRP returns: Found 48 space group operations
 (whereof 24 operations were pure point group operations)
 out of a pool of 48 trial point group operations.


The dynamic configuration has the point symmetry T_d .
 The point group associated with its full space group is O_h .


 Subroutine INISYM returns: Found 48 space group operations
 (whereof 24 operations are pure point group operations),
 and found     4 'primitive' translations

 
 
 KPOINTS: kpt_density=1000                        

Automatic generation of k-mesh.
Space group operators:
 irot       det(A)        alpha          n_x          n_y          n_z        tau_x        tau_y        tau_z
    1     1.000000     0.000000     1.000000     0.000000     0.000000     0.000000     0.000000     0.000000
    2     1.000000   120.000000    -0.577350    -0.577350    -0.577350     0.000000     0.000000     0.000000
    3     1.000000   120.000000     0.577350     0.577350     0.577350     0.000000     0.000000     0.000000
    4    -1.000000    90.000000     0.000000     0.000000    -1.000000     0.000000     0.000000     0.000000
    5    -1.000000   180.000000     0.000000     0.707107     0.707107     0.000000     0.000000     0.000000
    6    -1.000000    90.000000     0.000000     1.000000     0.000000     0.000000     0.000000     0.000000
    7     1.000000   180.000000     0.000000     0.000000     1.000000     0.000000     0.000000     0.000000
    8     1.000000   120.000000    -0.577350     0.577350     0.577350     0.000000     0.000000     0.000000
    9     1.000000   120.000000    -0.577350     0.577350    -0.577350     0.000000     0.000000     0.000000
   10    -1.000000    90.000000     0.000000     0.000000     1.000000     0.000000     0.000000     0.000000
   11    -1.000000    90.000000    -1.000000     0.000000     0.000000     0.000000     0.000000     0.000000
   12    -1.000000   180.000000     0.707107     0.000000     0.707107     0.000000     0.000000     0.000000
   13     1.000000   120.000000     0.577350    -0.577350     0.577350     0.000000     0.000000     0.000000
   14     1.000000   120.000000    -0.577350    -0.577350     0.577350     0.000000     0.000000     0.000000
   15     1.000000   180.000000     1.000000     0.000000     0.000000     0.000000     0.000000     0.000000
   16    -1.000000    90.000000     0.000000    -1.000000     0.000000     0.000000     0.000000     0.000000
   17    -1.000000   180.000000     0.707107     0.707107     0.000000     0.000000     0.000000     0.000000
   18    -1.000000    90.000000     1.000000     0.000000     0.000000     0.000000     0.000000     0.000000
   19     1.000000   120.000000     0.577350    -0.577350    -0.577350     0.000000     0.000000     0.000000
   20     1.000000   180.000000     0.000000     1.000000     0.000000     0.000000     0.000000     0.000000
   21     1.000000   120.000000     0.577350     0.577350    -0.577350     0.000000     0.000000     0.000000
   22    -1.000000   180.000000     0.000000    -0.707107     0.707107     0.000000     0.000000     0.000000
   23    -1.000000   180.000000     0.707107    -0.707107     0.000000     0.000000     0.000000     0.000000
   24    -1.000000   180.000000     0.707107     0.000000    -0.707107     0.000000     0.000000     0.000000
   25    -1.000000     0.000000     1.000000     0.000000     0.000000     0.750000     0.750000    -0.750000
   26    -1.000000   120.000000    -0.577350    -0.577350    -0.577350     0.750000     0.750000    -0.750000
   27    -1.000000   120.000000     0.577350     0.577350     0.577350     0.750000     0.750000    -0.750000
   28     1.000000    90.000000     0.000000     0.000000    -1.000000     0.750000     0.750000    -0.750000
   29     1.000000   180.000000     0.000000     0.707107     0.707107     0.750000     0.750000    -0.750000
   30     1.000000    90.000000     0.000000     1.000000     0.000000     0.750000     0.750000    -0.750000
   31    -1.000000   180.000000     0.000000     0.000000     1.000000     0.750000     0.750000    -0.750000
   32    -1.000000   120.000000    -0.577350     0.577350     0.577350     0.750000     0.750000    -0.750000
   33    -1.000000   120.000000    -0.577350     0.577350    -0.577350     0.750000     0.750000    -0.750000
   34     1.000000    90.000000     0.000000     0.000000     1.000000     0.750000     0.750000    -0.750000
   35     1.000000    90.000000    -1.000000     0.000000     0.000000     0.750000     0.750000    -0.750000
   36     1.000000   180.000000     0.707107     0.000000     0.707107     0.750000     0.750000    -0.750000
   37    -1.000000   120.000000     0.577350    -0.577350     0.577350     0.750000     0.750000    -0.750000
   38    -1.000000   120.000000    -0.577350    -0.577350     0.577350     0.750000     0.750000    -0.750000
   39    -1.000000   180.000000     1.000000     0.000000     0.000000     0.750000     0.750000    -0.750000
   40     1.000000    90.000000     0.000000    -1.000000     0.000000     0.750000     0.750000    -0.750000
   41     1.000000   180.000000     0.707107     0.707107     0.000000     0.750000     0.750000    -0.750000
   42     1.000000    90.000000     1.000000     0.000000     0.000000     0.750000     0.750000    -0.750000
   43    -1.000000   120.000000     0.577350    -0.577350    -0.577350     0.750000     0.750000    -0.750000
   44    -1.000000   180.000000     0.000000     1.000000     0.000000     0.750000     0.750000    -0.750000
   45    -1.000000   120.000000     0.577350     0.577350    -0.577350     0.750000     0.750000    -0.750000
   46     1.000000   180.000000     0.000000    -0.707107     0.707107     0.750000     0.750000    -0.750000
   47     1.000000   180.000000     0.707107    -0.707107     0.000000     0.750000     0.750000    -0.750000
   48     1.000000   180.000000     0.707107     0.000000    -0.707107     0.750000     0.750000    -0.750000
 
 Subroutine IBZKPT returns following result:
 ===========================================
 
 Found     84 irreducible k-points:
 
 Following reciprocal coordinates:
            Coordinates               Weight
  0.000000  0.000000  0.000000      1.000000
  0.083333  0.000000  0.000000      6.000000
  0.166667  0.000000  0.000000      6.000000
  0.250000  0.000000  0.000000      6.000000
  0.333333  0.000000  0.000000      6.000000
  0.416667  0.000000  0.000000      6.000000
  0.500000  0.000000  0.000000      3.000000
  0.083333  0.083333  0.000000     12.000000
  0.166667  0.083333  0.000000     24.000000
  0.250000  0.083333  0.000000     24.000000
  0.333333  0.083333  0.000000     24.000000
  0.416667  0.083333  0.000000     24.000000
  0.500000  0.083333  0.000000     12.000000
  0.166667  0.166667  0.000000     12.000000
  0.250000  0.166667  0.000000     24.000000
  0.333333  0.166667  0.000000     24.000000
  0.416667  0.166667  0.000000     24.000000
  0.500000  0.166667  0.000000     12.000000
  0.250000  0.250000  0.000000     12.000000
  0.333333  0.250000  0.000000     24.000000
  0.416667  0.250000  0.000000     24.000000
  0.500000  0.250000  0.000000     12.000000
  0.333333  0.333333  0.000000     12.000000
  0.416667  0.333333  0.000000     24.000000
  0.500000  0.333333  0.000000     12.000000
  0.416667  0.416667  0.000000     12.000000
  0.500000  0.416667  0.000000     12.000000
  0.500000  0.500000  0.000000      3.000000
  0.083333  0.083333  0.083333      8.000000
  0.166667  0.083333  0.083333     24.000000
  0.250000  0.083333  0.083333     24.000000
  0.333333  0.083333  0.083333     24.000000
  0.416667  0.083333  0.083333     24.000000
  0.500000  0.083333  0.083333     12.000000
  0.166667  0.166667  0.083333     24.000000
  0.250000  0.166667  0.083333     48.000000
  0.333333  0.166667  0.083333     48.000000
  0.416667  0.166667  0.083333     48.000000
  0.500000  0.166667  0.083333     24.000000
  0.250000  0.250000  0.083333     24.000000
  0.333333  0.250000  0.083333     48.000000
  0.416667  0.250000  0.083333     48.000000
  0.500000  0.250000  0.083333     24.000000
  0.333333  0.333333  0.083333     24.000000
  0.416667  0.333333  0.083333     48.000000
  0.500000  0.333333  0.083333     24.000000
  0.416667  0.416667  0.083333     24.000000
  0.500000  0.416667  0.083333     24.000000
  0.500000  0.500000  0.083333      6.000000
  0.166667  0.166667  0.166667      8.000000
  0.250000  0.166667  0.166667     24.000000
  0.333333  0.166667  0.166667     24.000000
  0.416667  0.166667  0.166667     24.000000
  0.500000  0.166667  0.166667     12.000000
  0.250000  0.250000  0.166667     24.000000
  0.333333  0.250000  0.166667     48.000000
  0.416667  0.250000  0.166667     48.000000
  0.500000  0.250000  0.166667     24.000000
  0.333333  0.333333  0.166667     24.000000
  0.416667  0.333333  0.166667     48.000000
  0.500000  0.333333  0.166667     24.000000
  0.416667  0.416667  0.166667     24.000000
  0.500000  0.416667  0.166667     24.000000
  0.500000  0.500000  0.166667      6.000000
  0.250000  0.250000  0.250000      8.000000
  0.333333  0.250000  0.250000     24.000000
  0.416667  0.250000  0.250000     24.000000
  0.500000  0.250000  0.250000     12.000000
  0.333333  0.333333  0.250000     24.000000
  0.416667  0.333333  0.250000     48.000000
  0.500000  0.333333  0.250000     24.000000
  0.416667  0.416667  0.250000     24.000000
  0.500000  0.416667  0.250000     24.000000
  0.500000  0.500000  0.250000      6.000000
  0.333333  0.333333  0.333333      8.000000
  0.416667  0.333333  0.333333     24.000000
  0.500000  0.333333  0.333333     12.000000
  0.416667  0.416667  0.333333     24.000000
  0.500000  0.416667  0.333333     24.000000
  0.500000  0.500000  0.333333      6.000000
  0.416667  0.416667  0.416667      8.000000
  0.500000  0.416667  0.416667     12.000000
  0.500000  0.500000  0.416667      6.000000
  0.500000  0.500000  0.500000      1.000000
 
 Following cartesian coordinates:
            Coordinates               Weight
  0.000000  0.000000  0.000000      1.000000
  0.023318  0.000000  0.000000      6.000000
  0.046637  0.000000  0.000000      6.000000
  0.069955  0.000000  0.000000      6.000000
  0.093274  0.000000  0.000000      6.000000
  0.116592  0.000000  0.000000      6.000000
  0.139911  0.000000  0.000000      3.000000
  0.023318  0.023318  0.000000     12.000000
  0.046637  0.023318  0.000000     24.000000
  0.069955  0.023318  0.000000     24.000000
  0.093274  0.023318  0.000000     24.000000
  0.116592  0.023318  0.000000     24.000000
  0.139911  0.023318  0.000000     12.000000
  0.046637  0.046637  0.000000     12.000000
  0.069955  0.046637  0.000000     24.000000
  0.093274  0.046637  0.000000     24.000000
  0.116592  0.046637  0.000000     24.000000
  0.139911  0.046637  0.000000     12.000000
  0.069955  0.069955  0.000000     12.000000
  0.093274  0.069955  0.000000     24.000000
  0.116592  0.069955  0.000000     24.000000
  0.139911  0.069955  0.000000     12.000000
  0.093274  0.093274  0.000000     12.000000
  0.116592  0.093274  0.000000     24.000000
  0.139911  0.093274  0.000000     12.000000
  0.116592  0.116592  0.000000     12.000000
  0.139911  0.116592  0.000000     12.000000
  0.139911  0.139911  0.000000      3.000000
  0.023318  0.023318  0.023318      8.000000
  0.046637  0.023318  0.023318     24.000000
  0.069955  0.023318  0.023318     24.000000
  0.093274  0.023318  0.023318     24.000000
  0.116592  0.023318  0.023318     24.000000
  0.139911  0.023318  0.023318     12.000000
  0.046637  0.046637  0.023318     24.000000
  0.069955  0.046637  0.023318     48.000000
  0.093274  0.046637  0.023318     48.000000
  0.116592  0.046637  0.023318     48.000000
  0.139911  0.046637  0.023318     24.000000
  0.069955  0.069955  0.023318     24.000000
  0.093274  0.069955  0.023318     48.000000
  0.116592  0.069955  0.023318     48.000000
  0.139911  0.069955  0.023318     24.000000
  0.093274  0.093274  0.023318     24.000000
  0.116592  0.093274  0.023318     48.000000
  0.139911  0.093274  0.023318     24.000000
  0.116592  0.116592  0.023318     24.000000
  0.139911  0.116592  0.023318     24.000000
  0.139911  0.139911  0.023318      6.000000
  0.046637  0.046637  0.046637      8.000000
  0.069955  0.046637  0.046637     24.000000
  0.093274  0.046637  0.046637     24.000000
  0.116592  0.046637  0.046637     24.000000
  0.139911  0.046637  0.046637     12.000000
  0.069955  0.069955  0.046637     24.000000
  0.093274  0.069955  0.046637     48.000000
  0.116592  0.069955  0.046637     48.000000
  0.139911  0.069955  0.046637     24.000000
  0.093274  0.093274  0.046637     24.000000
  0.116592  0.093274  0.046637     48.000000
  0.139911  0.093274  0.046637     24.000000
  0.116592  0.116592  0.046637     24.000000
  0.139911  0.116592  0.046637     24.000000
  0.139911  0.139911  0.046637      6.000000
  0.069955  0.069955  0.069955      8.000000
  0.093274  0.069955  0.069955     24.000000
  0.116592  0.069955  0.069955     24.000000
  0.139911  0.069955  0.069955     12.000000
  0.093274  0.093274  0.069955     24.000000
  0.116592  0.093274  0.069955     48.000000
  0.139911  0.093274  0.069955     24.000000
  0.116592  0.116592  0.069955     24.000000
  0.139911  0.116592  0.069955     24.000000
  0.139911  0.139911  0.069955      6.000000
  0.093274  0.093274  0.093274      8.000000
  0.116592  0.093274  0.093274     24.000000
  0.139911  0.093274  0.093274     12.000000
  0.116592  0.116592  0.093274     24.000000
  0.139911  0.116592  0.093274     24.000000
  0.139911  0.139911  0.093274      6.000000
  0.116592  0.116592  0.116592      8.000000
  0.139911  0.116592  0.116592     12.000000
  0.139911  0.139911  0.116592      6.000000
  0.139911  0.139911  0.139911      1.000000
 
 TETIRR: Found    854 inequivalent tetrahedra from    10368


--------------------------------------------------------------------------------------------------------




 Dimension of arrays:
   k-points           NKPTS =     84   k-points in BZ     NKDIM =     84   number of bands    NBANDS=     24
   number of dos      NEDOS =    301   number of ions     NIONS =      8
   non local maximal  LDIM  =      4   non local SUM 2l+1 LMDIM =      8
   total plane-waves  NPLWV =  13824
   max r-space proj   IRMAX =      1   max aug-charges    IRDMAX=   3725
   dimension x,y,z NGX =    24 NGY =   24 NGZ =   24
   dimension x,y,z NGXF=    48 NGYF=   48 NGZF=   48
   support grid    NGXF=    48 NGYF=   48 NGZF=   48
   ions per type =               8
   NGX,Y,Z   is equivalent  to a cutoff of  11.11, 11.11, 11.11 a.u.
   NGXF,Y,Z  is equivalent  to a cutoff of  22.23, 22.23, 22.23 a.u.

 SYSTEM =  unknown system                          
 POSCAR =  C8                                      

 Startparameter for this run:
   NWRITE =      2    write-flag & timer
   PREC   = accura    normal or accurate (medium, high low for compatibility)
   ISTART =      0    job   : 0-new  1-cont  2-samecut
   ICHARG =      2    charge: 1-file 2-atom 10-const
   ISPIN  =      1    spin polarized calculation?
   LNONCOLLINEAR =      F non collinear calculations
   LSORBIT =      F    spin-orbit coupling
   INIWAV =      1    electr: 0-lowe 1-rand  2-diag
   LASPH  =      F    aspherical Exc in radial PAW
   METAGGA=      F    non-selfconsistent MetaGGA calc.

 Electronic Relaxation 1
   ENCUT  =  400.0 eV  29.40 Ry    5.42 a.u.   5.85  5.85  5.85*2*pi/ulx,y,z
   ENINI  =  400.0     initial cutoff
   ENAUG  =  644.9 eV  augmentation charge cutoff
   NELM   =     60;   NELMIN=  2; NELMDL= -5     # of ELM steps 
   EDIFF  = 0.1E-05   stopping-criterion for ELM
   LREAL  =      F    real-space projection
   NLSPLINE    = F    spline interpolate recip. space projectors
   LCOMPAT=      F    compatible to vasp.4.4
   GGA_COMPAT  = T    GGA compatible to vasp.4.4-vasp.4.6
   LMAXPAW     = -100 max onsite density
   LMAXMIX     =    2 max onsite mixed and CHGCAR
   VOSKOWN=      0    Vosko Wilk Nusair interpolation
   ROPT   =    0.00000
 Ionic relaxation
   EDIFFG = 0.1E-04   stopping-criterion for IOM
   NSW    =      0    number of steps for IOM
   NBLOCK =      1;   KBLOCK =      1    inner block; outer block 
   IBRION =     -1    ionic relax: 0-MD 1-quasi-New 2-CG
   NFREE  =      0    steps in history (QN), initial steepest desc. (CG)
   ISIF   =      2    stress and relaxation
   IWAVPR =     10    prediction:  0-non 1-charg 2-wave 3-comb
   ISYM   =      2    0-nonsym 1-usesym 2-fastsym
   LCORR  =      T    Harris-Foulkes like correction to forces

   POTIM  = 0.0200    time-step for ionic-motion
   TEIN   =    0.0    initial temperature
   TEBEG  =    0.0;   TEEND  =   0.0 temperature during run
   SMASS  =  -3.00    Nose mass-parameter (am)
   estimated Nose-frequenzy (Omega)   =  0.10E-29 period in steps =****** mass=  -0.295E-27a.u.
   SCALEE = 1.0000    scale energy and forces
   NPACO  =    256;   APACO  = 16.0  distance and # of slots for P.C.
   PSTRESS=    0.0 pullay stress

  Mass of Ions in am
   POMASS =  12.01
  Ionic Valenz
   ZVAL   =   4.00
  Atomic Wigner-Seitz radii
   RWIGS  =  -1.00
  virtual crystal weights 
   VCA    =   1.00
   NELECT =      32.0000    total number of electrons
   NUPDOWN=      -1.0000    fix difference up-down

 DOS related values:
   EMIN   =  10.00;   EMAX   =-10.00  energy-range for DOS
   EFERMI =   0.00
   ISMEAR =    -5;   SIGMA  =   0.06  broadening in eV -4-tet -1-fermi 0-gaus

 Electronic relaxation 2 (details)
   IALGO  =     38    algorithm
   LDIAG  =      T    sub-space diagonalisation (order eigenvalues)
   LSUBROT=      F    optimize rotation matrix (better conditioning)
   TURBO    =      0    0=normal 1=particle mesh
   IRESTART =      0    0=no restart 2=restart with 2 vectors
   NREBOOT  =      0    no. of reboots
   NMIN     =      0    reboot dimension
   EREF     =   0.00    reference energy to select bands
   IMIX   =      4    mixing-type and parameters
     AMIX     =   0.40;   BMIX     =  1.00
     AMIX_MAG =   1.60;   BMIX_MAG =  1.00
     AMIN     =   0.10
     WC   =   100.;   INIMIX=   1;  MIXPRE=   1;  MAXMIX= -45

 Intra band minimization:
   WEIMIN = 0.0000     energy-eigenvalue tresh-hold
   EBREAK =  0.10E-07  absolut break condition
   DEPER  =   0.30     relativ break condition  

   TIME   =   0.40     timestep for ELM

  volume/ion in A,a.u.               =       5.78        39.03
  Fermi-wavevector in a.u.,A,eV,Ry     =   1.447762  2.735873 28.518006  2.096014
  Thomas-Fermi vector in A             =   2.565680
 
 Write flags
   LWAVE        =      F    write WAVECAR
   LDOWNSAMPLE  =      F    k-point downsampling of WAVECAR
   LCHARG       =      F    write CHGCAR
   LVTOT        =      F    write LOCPOT, total local potential
   LVHAR        =      F    write LOCPOT, Hartree potential only
   LELF         =      F    write electronic localiz. function (ELF)
   LORBIT       =      0    0 simple, 1 ext, 2 COOP (PROOUT), +10 PAW based schemes


 Dipole corrections
   LMONO  =      F    monopole corrections only (constant potential shift)
   LDIPOL =      F    correct potential (dipole corrections)
   IDIPOL =      0    1-x, 2-y, 3-z, 4-all directions 
   EPSILON=  1.0000000 bulk dielectric constant

 Exchange correlation treatment:
   GGA     =    --    GGA type
   LEXCH   =     8    internal setting for exchange type
   VOSKOWN=      0    Vosko Wilk Nusair interpolation
   LHFCALC =     F    Hartree Fock is set to
   LHFONE  =     F    Hartree Fock one center treatment
   AEXX    =    0.0000 exact exchange contribution

 Linear response parameters
   LEPSILON=     F    determine dielectric tensor
   LRPA    =     F    only Hartree local field effects (RPA)
   LNABLA  =     F    use nabla operator in PAW spheres
   LVEL    =     F    velocity operator in full k-point grid
   LINTERFAST=   F  fast interpolation
   KINTER  =     0    interpolate to denser k-point grid
   CSHIFT  =0.1000    complex shift for real part using Kramers Kronig
   OMEGAMAX=  -1.0    maximum frequency
   DEG_THRESHOLD= 0.2000000E-02 threshold for treating states as degnerate
   RTIME   =   -0.100 relaxation time in fs
  (WPLASMAI=    0.000 imaginary part of plasma frequency in eV, 0.658/RTIME)
   DFIELD  = 0.0000000 0.0000000 0.0000000 field for delta impulse in time
 
 Orbital magnetization related:
   ORBITALMAG=     F  switch on orbital magnetization
   LCHIMAG   =     F  perturbation theory with respect to B field
   DQ        =  0.001000  dq finite difference perturbation B field
   LLRAUG    =     F  two centre corrections for induced B field



--------------------------------------------------------------------------------------------------------


 Static calculation
 charge density and potential will be updated during run
 non-spin polarized calculation
 Variant of blocked Davidson
 Davidson routine will perform the subspace rotation
 perform sub-space diagonalisation
    after iterative eigenvector-optimisation
 modified Broyden-mixing scheme, WC =      100.0
 initial mixing is a Kerker type mixing with AMIX =  0.4000 and BMIX =      1.0000
 Hartree-type preconditioning will be used
 using additional bands            8
 reciprocal scheme for non local part
 calculate Harris-corrections to forces 
   (improved forces if not selfconsistent)
 use gradient corrections 
 use of overlap-Matrix (Vanderbilt PP)
 Fermi weights with tetrahedron method with Bloechl corrections


--------------------------------------------------------------------------------------------------------


  energy-cutoff  :      400.00
  volume of cell :       46.27
      direct lattice vectors                 reciprocal lattice vectors
     3.589999359  0.000000000  0.000000000     0.278551582  0.000000000  0.000000000
     0.000000000  3.589999359  0.000000000     0.000000000  0.278551582  0.000000000
     0.000000000  0.000000000  3.589999359     0.000000000  0.000000000  0.278551582

  length of vectors
     3.589999359  3.589999359  3.589999359     0.278551582  0.278551582  0.278551582


 
 k-points in units of 2pi/SCALE and weight: kpt_density=1000                        
   0.00000000  0.00000000  0.00000000       0.001
   0.02331844  0.00000000  0.00000000       0.003
   0.04663688  0.00000000  0.00000000       0.003
   0.06995531  0.00000000  0.00000000       0.003
   0.09327375  0.00000000  0.00000000       0.003
   0.11659219  0.00000000  0.00000000       0.003
   0.13991063  0.00000000  0.00000000       0.002
   0.02331844  0.02331844  0.00000000       0.007
   0.04663688  0.02331844  0.00000000       0.014
   0.06995531  0.02331844  0.00000000       0.014
   0.09327375  0.02331844  0.00000000       0.014
   0.11659219  0.02331844  0.00000000       0.014
   0.13991063  0.02331844  0.00000000       0.007
   0.04663688  0.04663688  0.00000000       0.007
   0.06995531  0.04663688  0.00000000       0.014
   0.09327375  0.04663688  0.00000000       0.014
   0.11659219  0.04663688  0.00000000       0.014
   0.13991063  0.04663688  0.00000000       0.007
   0.06995531  0.06995531  0.00000000       0.007
   0.09327375  0.06995531  0.00000000       0.014
   0.11659219  0.06995531  0.00000000       0.014
   0.13991063  0.06995531  0.00000000       0.007
   0.09327375  0.09327375  0.00000000       0.007
   0.11659219  0.09327375  0.00000000       0.014
   0.13991063  0.09327375  0.00000000       0.007
   0.11659219  0.11659219  0.00000000       0.007
   0.13991063  0.11659219  0.00000000       0.007
   0.13991063  0.13991063  0.00000000       0.002
   0.02331844  0.02331844  0.02331844       0.005
   0.04663688  0.02331844  0.02331844       0.014
   0.06995531  0.02331844  0.02331844       0.014
   0.09327375  0.02331844  0.02331844       0.014
   0.11659219  0.02331844  0.02331844       0.014
   0.13991063  0.02331844  0.02331844       0.007
   0.04663688  0.04663688  0.02331844       0.014
   0.06995531  0.04663688  0.02331844       0.028
   0.09327375  0.04663688  0.02331844       0.028
   0.11659219  0.04663688  0.02331844       0.028
   0.13991063  0.04663688  0.02331844       0.014
   0.06995531  0.06995531  0.02331844       0.014
   0.09327375  0.06995531  0.02331844       0.028
   0.11659219  0.06995531  0.02331844       0.028
   0.13991063  0.06995531  0.02331844       0.014
   0.09327375  0.09327375  0.02331844       0.014
   0.11659219  0.09327375  0.02331844       0.028
   0.13991063  0.09327375  0.02331844       0.014
   0.11659219  0.11659219  0.02331844       0.014
   0.13991063  0.11659219  0.02331844       0.014
   0.13991063  0.13991063  0.02331844       0.003
   0.04663688  0.04663688  0.04663688       0.005
   0.06995531  0.04663688  0.04663688       0.014
   0.09327375  0.04663688  0.04663688       0.014
   0.11659219  0.04663688  0.04663688       0.014
   0.13991063  0.04663688  0.04663688       0.007
   0.06995531  0.06995531  0.04663688       0.014
   0.09327375  0.06995531  0.04663688       0.028
   0.11659219  0.06995531  0.04663688       0.028
   0.13991063  0.06995531  0.04663688       0.014
   0.09327375  0.09327375  0.04663688       0.014
   0.11659219  0.09327375  0.04663688       0.028
   0.13991063  0.09327375  0.04663688       0.014
   0.11659219  0.11659219  0.04663688       0.014
   0.13991063  0.11659219  0.04663688       0.014
   0.13991063  0.13991063  0.04663688       0.003
   0.06995531  0.06995531  0.06995531       0.005
   0.09327375  0.06995531  0.06995531       0.014
   0.11659219  0.06995531  0.06995531       0.014
   0.13991063  0.06995531  0.06995531       0.007
   0.09327375  0.09327375  0.06995531       0.014
   0.11659219  0.09327375  0.06995531       0.028
   0.13991063  0.09327375  0.06995531       0.014
   0.11659219  0.11659219  0.06995531       0.014
   0.13991063  0.11659219  0.06995531       0.014
   0.13991063  0.13991063  0.06995531       0.003
   0.09327375  0.09327375  0.09327375       0.005
   0.11659219  0.09327375  0.09327375       0.014
   0.13991063  0.09327375  0.09327375       0.007
   0.11659219  0.11659219  0.09327375       0.014
   0.13991063  0.11659219  0.09327375       0.014
   0.13991063  0.13991063  0.09327375       0.003
   0.11659219  0.11659219  0.11659219       0.005
   0.13991063  0.11659219  0.11659219       0.007
   0.13991063  0.13991063  0.11659219       0.003
   0.13991063  0.13991063  0.13991063       0.001
 
 k-points in reciprocal lattice and weights: kpt_density=1000                        
   0.00000000  0.00000000  0.00000000       0.001
   0.08333333  0.00000000  0.00000000       0.003
   0.16666667  0.00000000  0.00000000       0.003
   0.25000000  0.00000000  0.00000000       0.003
   0.33333333  0.00000000  0.00000000       0.003
   0.41666667  0.00000000  0.00000000       0.003
   0.50000000  0.00000000  0.00000000       0.002
   0.08333333  0.08333333  0.00000000       0.007
   0.16666667  0.08333333  0.00000000       0.014
   0.25000000  0.08333333  0.00000000       0.014
   0.33333333  0.08333333  0.00000000       0.014
   0.41666667  0.08333333  0.00000000       0.014
   0.50000000  0.08333333  0.00000000       0.007
   0.16666667  0.16666667  0.00000000       0.007
   0.25000000  0.16666667  0.00000000       0.014
   0.33333333  0.16666667  0.00000000       0.014
   0.41666667  0.16666667  0.00000000       0.014
   0.50000000  0.16666667  0.00000000       0.007
   0.25000000  0.25000000  0.00000000       0.007
   0.33333333  0.25000000  0.00000000       0.014
   0.41666667  0.25000000  0.00000000       0.014
   0.50000000  0.25000000  0.00000000       0.007
   0.33333333  0.33333333  0.00000000       0.007
   0.41666667  0.33333333  0.00000000       0.014
   0.50000000  0.33333333  0.00000000       0.007
   0.41666667  0.41666667  0.00000000       0.007
   0.50000000  0.41666667  0.00000000       0.007
   0.50000000  0.50000000  0.00000000       0.002
   0.08333333  0.08333333  0.08333333       0.005
   0.16666667  0.08333333  0.08333333       0.014
   0.25000000  0.08333333  0.08333333       0.014
   0.33333333  0.08333333  0.08333333       0.014
   0.41666667  0.08333333  0.08333333       0.014
   0.50000000  0.08333333  0.08333333       0.007
   0.16666667  0.16666667  0.08333333       0.014
   0.25000000  0.16666667  0.08333333       0.028
   0.33333333  0.16666667  0.08333333       0.028
   0.41666667  0.16666667  0.08333333       0.028
   0.50000000  0.16666667  0.08333333       0.014
   0.25000000  0.25000000  0.08333333       0.014
   0.33333333  0.25000000  0.08333333       0.028
   0.41666667  0.25000000  0.08333333       0.028
   0.50000000  0.25000000  0.08333333       0.014
   0.33333333  0.33333333  0.08333333       0.014
   0.41666667  0.33333333  0.08333333       0.028
   0.50000000  0.33333333  0.08333333       0.014
   0.41666667  0.41666667  0.08333333       0.014
   0.50000000  0.41666667  0.08333333       0.014
   0.50000000  0.50000000  0.08333333       0.003
   0.16666667  0.16666667  0.16666667       0.005
   0.25000000  0.16666667  0.16666667       0.014
   0.33333333  0.16666667  0.16666667       0.014
   0.41666667  0.16666667  0.16666667       0.014
   0.50000000  0.16666667  0.16666667       0.007
   0.25000000  0.25000000  0.16666667       0.014
   0.33333333  0.25000000  0.16666667       0.028
   0.41666667  0.25000000  0.16666667       0.028
   0.50000000  0.25000000  0.16666667       0.014
   0.33333333  0.33333333  0.16666667       0.014
   0.41666667  0.33333333  0.16666667       0.028
   0.50000000  0.33333333  0.16666667       0.014
   0.41666667  0.41666667  0.16666667       0.014
   0.50000000  0.41666667  0.16666667       0.014
   0.50000000  0.50000000  0.16666667       0.003
   0.25000000  0.25000000  0.25000000       0.005
   0.33333333  0.25000000  0.25000000       0.014
   0.41666667  0.25000000  0.25000000       0.014
   0.50000000  0.25000000  0.25000000       0.007
   0.33333333  0.33333333  0.25000000       0.014
   0.41666667  0.33333333  0.25000000       0.028
   0.50000000  0.33333333  0.25000000       0.014
   0.41666667  0.41666667  0.25000000       0.014
   0.50000000  0.41666667  0.25000000       0.014
   0.50000000  0.50000000  0.25000000       0.003
   0.33333333  0.33333333  0.33333333       0.005
   0.41666667  0.33333333  0.33333333       0.014
   0.50000000  0.33333333  0.33333333       0.007
   0.41666667  0.41666667  0.33333333       0.014
   0.50000000  0.41666667  0.33333333       0.014
   0.50000000  0.50000000  0.33333333       0.003
   0.41666667  0.41666667  0.41666667       0.005
   0.50000000  0.41666667  0.41666667       0.007
   0.50000000  0.50000000  0.41666667       0.003
   0.50000000  0.50000000  0.50000000       0.001
 
 position of ions in fractional coordinates (direct lattice) 
   0.25000000  0.75000000  0.25000000
   0.00000000  0.00000000  0.50000000
   0.25000000  0.25000000  0.75000000
   0.00000000  0.50000000  0.00000000
   0.75000000  0.75000000  0.75000000
   0.50000000  0.00000000  0.00000000
   0.75000000  0.25000000  0.25000000
   0.50000000  0.50000000  0.50000000
 
 position of ions in cartesian coordinates  (Angst):
   0.89749984  2.69249952  0.89749984
   0.00000000  0.00000000  1.79499968
   0.89749984  0.89749984  2.69249952
   0.00000000  1.79499968  0.00000000
   2.69249952  2.69249952  2.69249952
   1.79499968  0.00000000  0.00000000
   2.69249952  0.89749984  0.89749984
   1.79499968  1.79499968  1.79499968
 


--------------------------------------------------------------------------------------------------------


 k-point  1 :   0.0000 0.0000 0.0000  plane waves:     847
 k-point  2 :   0.0833 0.0000 0.0000  plane waves:     835
 k-point  3 :   0.1667 0.0000 0.0000  plane waves:     832
 k-point  4 :   0.2500 0.0000 0.0000  plane waves:     844
 k-point  5 :   0.3333 0.0000 0.0000  plane waves:     836
 k-point  6 :   0.4167 0.0000 0.0000  plane waves:     836
 k-point  7 :   0.5000 0.0000 0.0000  plane waves:     852
 k-point  8 :   0.0833 0.0833 0.0000  plane waves:     835
 k-point  9 :   0.1667 0.0833 0.0000  plane waves:     835
 k-point 10 :   0.2500 0.0833 0.0000  plane waves:     833
 k-point 11 :   0.3333 0.0833 0.0000  plane waves:     839
 k-point 12 :   0.4167 0.0833 0.0000  plane waves:     838
 k-point 13 :   0.5000 0.0833 0.0000  plane waves:     838
 k-point 14 :   0.1667 0.1667 0.0000  plane waves:     836
 k-point 15 :   0.2500 0.1667 0.0000  plane waves:     840
 k-point 16 :   0.3333 0.1667 0.0000  plane waves:     842
 k-point 17 :   0.4167 0.1667 0.0000  plane waves:     842
 k-point 18 :   0.5000 0.1667 0.0000  plane waves:     834
 k-point 19 :   0.2500 0.2500 0.0000  plane waves:     846
 k-point 20 :   0.3333 0.2500 0.0000  plane waves:     843
 k-point 21 :   0.4167 0.2500 0.0000  plane waves:     844
 k-point 22 :   0.5000 0.2500 0.0000  plane waves:     824
 k-point 23 :   0.3333 0.3333 0.0000  plane waves:     848
 k-point 24 :   0.4167 0.3333 0.0000  plane waves:     837
 k-point 25 :   0.5000 0.3333 0.0000  plane waves:     834
 k-point 26 :   0.4167 0.4167 0.0000  plane waves:     842
 k-point 27 :   0.5000 0.4167 0.0000  plane waves:     848
 k-point 28 :   0.5000 0.5000 0.0000  plane waves:     840
 k-point 29 :   0.0833 0.0833 0.0833  plane waves:     829
 k-point 30 :   0.1667 0.0833 0.0833  plane waves:     837
 k-point 31 :   0.2500 0.0833 0.0833  plane waves:     836
 k-point 32 :   0.3333 0.0833 0.0833  plane waves:     841
 k-point 33 :   0.4167 0.0833 0.0833  plane waves:     840
 k-point 34 :   0.5000 0.0833 0.0833  plane waves:     842
 k-point 35 :   0.1667 0.1667 0.0833  plane waves:     837
 k-point 36 :   0.2500 0.1667 0.0833  plane waves:     840
 k-point 37 :   0.3333 0.1667 0.0833  plane waves:     837
 k-point 38 :   0.4167 0.1667 0.0833  plane waves:     842
 k-point 39 :   0.5000 0.1667 0.0833  plane waves:     838
 k-point 40 :   0.2500 0.2500 0.0833  plane waves:     840
 k-point 41 :   0.3333 0.2500 0.0833  plane waves:     841
 k-point 42 :   0.4167 0.2500 0.0833  plane waves:     844
 k-point 43 :   0.5000 0.2500 0.0833  plane waves:     838
 k-point 44 :   0.3333 0.3333 0.0833  plane waves:     848
 k-point 45 :   0.4167 0.3333 0.0833  plane waves:     838
 k-point 46 :   0.5000 0.3333 0.0833  plane waves:     836
 k-point 47 :   0.4167 0.4167 0.0833  plane waves:     843
 k-point 48 :   0.5000 0.4167 0.0833  plane waves:     846
 k-point 49 :   0.5000 0.5000 0.0833  plane waves:     848
 k-point 50 :   0.1667 0.1667 0.1667  plane waves:     832
 k-point 51 :   0.2500 0.1667 0.1667  plane waves:     835
 k-point 52 :   0.3333 0.1667 0.1667  plane waves:     843
 k-point 53 :   0.4167 0.1667 0.1667  plane waves:     844
 k-point 54 :   0.5000 0.1667 0.1667  plane waves:     828
 k-point 55 :   0.2500 0.2500 0.1667  plane waves:     840
 k-point 56 :   0.3333 0.2500 0.1667  plane waves:     843
 k-point 57 :   0.4167 0.2500 0.1667  plane waves:     845
 k-point 58 :   0.5000 0.2500 0.1667  plane waves:     834
 k-point 59 :   0.3333 0.3333 0.1667  plane waves:     846
 k-point 60 :   0.4167 0.3333 0.1667  plane waves:     834
 k-point 61 :   0.5000 0.3333 0.1667  plane waves:     836
 k-point 62 :   0.4167 0.4167 0.1667  plane waves:     837
 k-point 63 :   0.5000 0.4167 0.1667  plane waves:     842
 k-point 64 :   0.5000 0.5000 0.1667  plane waves:     844
 k-point 65 :   0.2500 0.2500 0.2500  plane waves:     847
 k-point 66 :   0.3333 0.2500 0.2500  plane waves:     842
 k-point 67 :   0.4167 0.2500 0.2500  plane waves:     834
 k-point 68 :   0.5000 0.2500 0.2500  plane waves:     836
 k-point 69 :   0.3333 0.3333 0.2500  plane waves:     839
 k-point 70 :   0.4167 0.3333 0.2500  plane waves:     841
 k-point 71 :   0.5000 0.3333 0.2500  plane waves:     846
 k-point 72 :   0.4167 0.4167 0.2500  plane waves:     844
 k-point 73 :   0.5000 0.4167 0.2500  plane waves:     842
 k-point 74 :   0.5000 0.5000 0.2500  plane waves:     856
 k-point 75 :   0.3333 0.3333 0.3333  plane waves:     838
 k-point 76 :   0.4167 0.3333 0.3333  plane waves:     845
 k-point 77 :   0.5000 0.3333 0.3333  plane waves:     848
 k-point 78 :   0.4167 0.4167 0.3333  plane waves:     845
 k-point 79 :   0.5000 0.4167 0.3333  plane waves:     848
 k-point 80 :   0.5000 0.5000 0.3333  plane waves:     840
 k-point 81 :   0.4167 0.4167 0.4167  plane waves:     858
 k-point 82 :   0.5000 0.4167 0.4167  plane waves:     866
 k-point 83 :   0.5000 0.5000 0.4167  plane waves:     860
 k-point 84 :   0.5000 0.5000 0.5000  plane waves:     840

 maximum and minimum number of plane-waves per node :       225      196

 maximum number of plane-waves:       866
 maximum index in each direction: 
   IXMAX=    5   IYMAX=    5   IZMAX=    5
   IXMIN=   -6   IYMIN=   -6   IZMIN=   -6


 parallel 3D FFT for wavefunctions:
    minimum data exchange during FFTs selected (reduces bandwidth)
 parallel 3D FFT for charge:
    minimum data exchange during FFTs selected (reduces bandwidth)


 total amount of memory used by VASP MPI-rank0    33890. kBytes
=======================================================================

   base      :      30000. kBytes
   nonl-proj :       1188. kBytes
   fftplans  :        345. kBytes
   grid      :        481. kBytes
   one-center:          6. kBytes
   wavefun   :       1870. kBytes
 
     INWAV:  cpu time    0.0004: real time    0.0005
 Broyden mixing: mesh for mixing (old mesh)
   NGX = 11   NGY = 11   NGZ = 11
  (NGX  = 48   NGY  = 48   NGZ  = 48)
  gives a total of   1331 points

 initial charge density was supplied:
 charge density of overlapping atoms calculated
 number of electron      32.0000000 magnetization 
 keeping initial charge density in first step


--------------------------------------------------------------------------------------------------------


 Maximum index for augmentation-charges          277 (set IRDMAX)


--------------------------------------------------------------------------------------------------------


 First call to EWALD:  gamma=   0.494
 Maximum number of real-space cells 3x 3x 3
 Maximum number of reciprocal cells 3x 3x 3

    FEWALD:  cpu time    0.0053: real time    0.0053


--------------------------------------- Iteration      1(   1)  ---------------------------------------


    POTLOK:  cpu time    0.0257: real time    0.0302
    SETDIJ:  cpu time    0.0065: real time    0.0065
     EDDAV:  cpu time    3.7773: real time    3.8024
 BZINTS: Fermi energy: 18.341796; 32.000000 electrons
         Band energy: 118.179775;  BLOECHL correction: -0.161170
       DOS:  cpu time    0.1674: real time    0.1674
    --------------------------------------------
      LOOP:  cpu time    3.9770: real time    4.0065

 eigenvalue-minimisations  :  4032
 total energy-change (2. order) : 0.5757521E+02  (-0.1434829E+04)
 number of electron      32.0000000 magnetization 
 augmentation part       32.0000000 magnetization 

 Free energy of the ion-electron system (eV)
  ---------------------------------------------------
  alpha Z        PSCENC =       112.70644602
  Ewald energy   TEWEN  =     -1382.84145576
  -Hartree energ DENC   =       -72.17563738
  -exchange      EXHF   =         0.00000000
  -V(xc)+E(xc)   XCENC  =       113.89212847
  PAW double counting   =       302.65154477     -311.85538214
  entropy T*S    EENTRO =         0.00000000
  eigenvalues    EBANDS =       118.17977521
  atomic energy  EATOM  =      1177.01779097
  Solvation  Ediel_sol  =         0.00000000
  ---------------------------------------------------
  free energy    TOTEN  =        57.57521016 eV

  energy without entropy =       57.57521016  energy(sigma->0) =       57.57521016


--------------------------------------------------------------------------------------------------------




--------------------------------------- Iteration      1(   2)  ---------------------------------------


     EDDAV:  cpu time    4.6840: real time    4.6848
 BZINTS: Fermi energy:  9.011253; 32.000000 electrons
         Band energy: -10.314622;  BLOECHL correction:  0.000000
       DOS:  cpu time    0.0535: real time    0.0535
    --------------------------------------------
      LOOP:  cpu time    4.7375: real time    4.7383

 eigenvalue-minimisations  :  5560
 total energy-change (2. order) :-0.1284944E+03  (-0.1220697E+03)
 number of electron      32.0000000 magnetization 
 augmentation part       32.0000000 magnetization 

 Free energy of the ion-electron system (eV)
  ---------------------------------------------------
  alpha Z        PSCENC =       112.70644602
  Ewald energy   TEWEN  =     -1382.84145576
  -Hartree energ DENC   =       -72.17563738
  -exchange      EXHF   =         0.00000000
  -V(xc)+E(xc)   XCENC  =       113.89212847
  PAW double counting   =       302.65154477     -311.85538214
  entropy T*S    EENTRO =         0.00000000
  eigenvalues    EBANDS =       -10.31462192
  atomic energy  EATOM  =      1177.01779097
  Solvation  Ediel_sol  =         0.00000000
  ---------------------------------------------------
  free energy    TOTEN  =       -70.91918697 eV

  energy without entropy =      -70.91918697  energy(sigma->0) =      -70.91918697


--------------------------------------------------------------------------------------------------------




--------------------------------------- Iteration      1(   3)  ---------------------------------------


     EDDAV:  cpu time    4.5612: real time    4.5646
 BZINTS: Fermi energy:  8.204075; 32.000000 electrons
         Band energy: -14.473645;  BLOECHL correction:  0.000000
       DOS:  cpu time    0.0359: real time    0.0359
    --------------------------------------------
      LOOP:  cpu time    4.5971: real time    4.6005

 eigenvalue-minimisations  :  5224
 total energy-change (2. order) :-0.4159023E+01  (-0.4139944E+01)
 number of electron      32.0000000 magnetization 
 augmentation part       32.0000000 magnetization 

 Free energy of the ion-electron system (eV)
  ---------------------------------------------------
  alpha Z        PSCENC =       112.70644602
  Ewald energy   TEWEN  =     -1382.84145576
  -Hartree energ DENC   =       -72.17563738
  -exchange      EXHF   =         0.00000000
  -V(xc)+E(xc)   XCENC  =       113.89212847
  PAW double counting   =       302.65154477     -311.85538214
  entropy T*S    EENTRO =         0.00000000
  eigenvalues    EBANDS =       -14.47364524
  atomic energy  EATOM  =      1177.01779097
  Solvation  Ediel_sol  =         0.00000000
  ---------------------------------------------------
  free energy    TOTEN  =       -75.07821029 eV

  energy without entropy =      -75.07821029  energy(sigma->0) =      -75.07821029


--------------------------------------------------------------------------------------------------------




--------------------------------------- Iteration      1(   4)  ---------------------------------------


     EDDAV:  cpu time    4.4053: real time    4.4061
 BZINTS: Fermi energy:  8.192562; 32.000000 electrons
         Band energy: -14.515962;  BLOECHL correction:  0.000000
       DOS:  cpu time    0.0404: real time    0.0404
    --------------------------------------------
      LOOP:  cpu time    4.4457: real time    4.4465

 eigenvalue-minimisations  :  5120
 total energy-change (2. order) :-0.4231676E-01  (-0.4228371E-01)
 number of electron      32.0000000 magnetization 
 augmentation part       32.0000000 magnetization 

 Free energy of the ion-electron system (eV)
  ---------------------------------------------------
  alpha Z        PSCENC =       112.70644602
  Ewald energy   TEWEN  =     -1382.84145576
  -Hartree energ DENC   =       -72.17563738
  -exchange      EXHF   =         0.00000000
  -V(xc)+E(xc)   XCENC  =       113.89212847
  PAW double counting   =       302.65154477     -311.85538214
  entropy T*S    EENTRO =         0.00000000
  eigenvalues    EBANDS =       -14.51596201
  atomic energy  EATOM  =      1177.01779097
  Solvation  Ediel_sol  =         0.00000000
  ---------------------------------------------------
  free energy    TOTEN  =       -75.12052706 eV

  energy without entropy =      -75.12052706  energy(sigma->0) =      -75.12052706


--------------------------------------------------------------------------------------------------------




--------------------------------------- Iteration      1(   5)  ---------------------------------------


     EDDAV:  cpu time    4.5689: real time    4.5697
 BZINTS: Fermi energy:  8.181218; 32.000000 electrons
         Band energy: -14.516791;  BLOECHL correction:  0.000000
       DOS:  cpu time    0.0359: real time    0.0359
    CHARGE:  cpu time    0.1344: real time    0.1344
    MIXING:  cpu time    0.0016: real time    0.0016
    --------------------------------------------
      LOOP:  cpu time    4.7408: real time    4.7416

 eigenvalue-minimisations  :  5200
 total energy-change (2. order) :-0.8288732E-03  (-0.8284986E-03)
 number of electron      32.0000030 magnetization 
 augmentation part        0.7734041 magnetization 

 Broyden mixing:
  rms(total) = 0.92810E+00    rms(broyden)= 0.92792E+00
  rms(prec ) = 0.21855E+01
  weight for this iteration     100.00

 Free energy of the ion-electron system (eV)
  ---------------------------------------------------
  alpha Z        PSCENC =       112.70644602
  Ewald energy   TEWEN  =     -1382.84145576
  -Hartree energ DENC   =       -72.17563738
  -exchange      EXHF   =         0.00000000
  -V(xc)+E(xc)   XCENC  =       113.89212847
  PAW double counting   =       302.65154477     -311.85538214
  entropy T*S    EENTRO =         0.00000000
  eigenvalues    EBANDS =       -14.51679088
  atomic energy  EATOM  =      1177.01779097
  Solvation  Ediel_sol  =         0.00000000
  ---------------------------------------------------
  free energy    TOTEN  =       -75.12135593 eV

  energy without entropy =      -75.12135593  energy(sigma->0) =      -75.12135593


--------------------------------------------------------------------------------------------------------




--------------------------------------- Iteration      1(   6)  ---------------------------------------


    POTLOK:  cpu time    0.0202: real time    0.0207
    SETDIJ:  cpu time    0.0058: real time    0.0058
     EDDAV:  cpu time    4.2831: real time    4.2834
 BZINTS: Fermi energy:  8.782978; 32.000000 electrons
         Band energy:   1.307122;  BLOECHL correction:  0.000000
       DOS:  cpu time    0.0356: real time    0.0356
    CHARGE:  cpu time    0.1169: real time    0.1169
    MIXING:  cpu time    0.0018: real time    0.0018
    --------------------------------------------
      LOOP:  cpu time    4.4634: real time    4.4643

 eigenvalue-minimisations  :  4648
 total energy-change (2. order) : 0.1787957E+01  (-0.1187771E+00)
 number of electron      32.0000029 magnetization 
 augmentation part        0.7561889 magnetization 

 Broyden mixing:
  rms(total) = 0.51025E+00    rms(broyden)= 0.51024E+00
  rms(prec ) = 0.11842E+01
  weight for this iteration     100.00

 eigenvalues of (default mixing * dielectric matrix)
  average eigenvalue GAMMA=   2.1730
  2.1730

 Free energy of the ion-electron system (eV)
  ---------------------------------------------------
  alpha Z        PSCENC =       112.70644602
  Ewald energy   TEWEN  =     -1382.84145576
  -Hartree energ DENC   =       -87.08894842
  -exchange      EXHF   =         0.00000000
  -V(xc)+E(xc)   XCENC  =       115.28624080
  PAW double counting   =       390.48976079     -400.21035525
  entropy T*S    EENTRO =         0.00000000
  eigenvalues    EBANDS =         1.30712179
  atomic energy  EATOM  =      1177.01779097
  Solvation  Ediel_sol  =         0.00000000
  ---------------------------------------------------
  free energy    TOTEN  =       -73.33339906 eV

  energy without entropy =      -73.33339906  energy(sigma->0) =      -73.33339906


--------------------------------------------------------------------------------------------------------




--------------------------------------- Iteration      1(   7)  ---------------------------------------


    POTLOK:  cpu time    0.0202: real time    0.0206
    SETDIJ:  cpu time    0.0057: real time    0.0057
     EDDAV:  cpu time    4.2196: real time    4.2200
 BZINTS: Fermi energy:  9.576715; 32.000000 electrons
         Band energy:  19.652206;  BLOECHL correction:  0.000000
       DOS:  cpu time    0.0361: real time    0.0361
    CHARGE:  cpu time    0.1197: real time    0.1197
    MIXING:  cpu time    0.0017: real time    0.0017
    --------------------------------------------
      LOOP:  cpu time    4.4030: real time    4.4038

 eigenvalue-minimisations  :  4712
 total energy-change (2. order) : 0.6043106E+00  (-0.1348021E+00)
 number of electron      32.0000028 magnetization 
 augmentation part        0.7376345 magnetization 

 Broyden mixing:
  rms(total) = 0.69080E-01    rms(broyden)= 0.68751E-01
  rms(prec ) = 0.12035E+00
  weight for this iteration     100.00

 eigenvalues of (default mixing * dielectric matrix)
  average eigenvalue GAMMA=   2.2682
  2.0020  2.5344

 Free energy of the ion-electron system (eV)
  ---------------------------------------------------
  alpha Z        PSCENC =       112.70644602
  Ewald energy   TEWEN  =     -1382.84145576
  -Hartree energ DENC   =      -106.14331252
  -exchange      EXHF   =         0.00000000
  -V(xc)+E(xc)   XCENC  =       117.08942115
  PAW double counting   =       509.61000805     -519.82019210
  entropy T*S    EENTRO =         0.00000000
  eigenvalues    EBANDS =        19.65220578
  atomic energy  EATOM  =      1177.01779097
  Solvation  Ediel_sol  =         0.00000000
  ---------------------------------------------------
  free energy    TOTEN  =       -72.72908841 eV

  energy without entropy =      -72.72908841  energy(sigma->0) =      -72.72908841


--------------------------------------------------------------------------------------------------------




--------------------------------------- Iteration      1(   8)  ---------------------------------------


    POTLOK:  cpu time    0.0201: real time    0.0205
    SETDIJ:  cpu time    0.0055: real time    0.0055
     EDDAV:  cpu time    4.4319: real time    4.4322
 BZINTS: Fermi energy:  9.581761; 32.000000 electrons
         Band energy:  19.956416;  BLOECHL correction:  0.000000
       DOS:  cpu time    0.0358: real time    0.0358
    CHARGE:  cpu time    0.1187: real time    0.1187
    MIXING:  cpu time    0.0020: real time    0.0020
    --------------------------------------------
      LOOP:  cpu time    4.6140: real time    4.6147

 eigenvalue-minimisations  :  5120
 total energy-change (2. order) :-0.7224353E-02  (-0.2670562E-02)
 number of electron      32.0000028 magnetization 
 augmentation part        0.7380745 magnetization 

 Broyden mixing:
  rms(total) = 0.78811E-02    rms(broyden)= 0.77801E-02
  rms(prec ) = 0.13676E-01
  weight for this iteration     100.00

 eigenvalues of (default mixing * dielectric matrix)
  average eigenvalue GAMMA=   2.1000
  1.4522  2.6762  2.1717

 Free energy of the ion-electron system (eV)
  ---------------------------------------------------
  alpha Z        PSCENC =       112.70644602
  Ewald energy   TEWEN  =     -1382.84145576
  -Hartree energ DENC   =      -106.63094449
  -exchange      EXHF   =         0.00000000
  -V(xc)+E(xc)   XCENC  =       117.13895381
  PAW double counting   =       518.30303638     -528.38655579
  entropy T*S    EENTRO =         0.00000000
  eigenvalues    EBANDS =        19.95641608
  atomic energy  EATOM  =      1177.01779097
  Solvation  Ediel_sol  =         0.00000000
  ---------------------------------------------------
  free energy    TOTEN  =       -72.73631277 eV

  energy without entropy =      -72.73631277  energy(sigma->0) =      -72.73631277


--------------------------------------------------------------------------------------------------------




--------------------------------------- Iteration      1(   9)  ---------------------------------------


    POTLOK:  cpu time    0.0201: real time    0.0208
    SETDIJ:  cpu time    0.0057: real time    0.0057
     EDDAV:  cpu time    4.3241: real time    4.3245
 BZINTS: Fermi energy:  9.576069; 32.000000 electrons
         Band energy:  19.851746;  BLOECHL correction:  0.000000
       DOS:  cpu time    0.0361: real time    0.0361
    CHARGE:  cpu time    0.1209: real time    0.1209
    MIXING:  cpu time    0.0020: real time    0.0020
    --------------------------------------------
      LOOP:  cpu time    4.5090: real time    4.5100

 eigenvalue-minimisations  :  4912
 total energy-change (2. order) :-0.2157261E-03  (-0.4270103E-04)
 number of electron      32.0000028 magnetization 
 augmentation part        0.7380236 magnetization 

 Broyden mixing:
  rms(total) = 0.28075E-02    rms(broyden)= 0.28002E-02
  rms(prec ) = 0.49910E-02
  weight for this iteration     100.00

 eigenvalues of (default mixing * dielectric matrix)
  average eigenvalue GAMMA=   2.0547
  0.9780  2.7746  2.4709  1.9954

 Free energy of the ion-electron system (eV)
  ---------------------------------------------------
  alpha Z        PSCENC =       112.70644602
  Ewald energy   TEWEN  =     -1382.84145576
  -Hartree energ DENC   =      -106.53106678
  -exchange      EXHF   =         0.00000000
  -V(xc)+E(xc)   XCENC  =       117.12930826
  PAW double counting   =       517.54100805     -527.61030567
  entropy T*S    EENTRO =         0.00000000
  eigenvalues    EBANDS =        19.85174641
  atomic energy  EATOM  =      1177.01779097
  Solvation  Ediel_sol  =         0.00000000
  ---------------------------------------------------
  free energy    TOTEN  =       -72.73652849 eV

  energy without entropy =      -72.73652849  energy(sigma->0) =      -72.73652849


--------------------------------------------------------------------------------------------------------




--------------------------------------- Iteration      1(  10)  ---------------------------------------


    POTLOK:  cpu time    0.0199: real time    0.0206
    SETDIJ:  cpu time    0.0057: real time    0.0057
     EDDAV:  cpu time    4.4395: real time    4.4398
 BZINTS: Fermi energy:  9.575552; 32.000000 electrons
         Band energy:  19.888303;  BLOECHL correction:  0.000000
       DOS:  cpu time    0.0358: real time    0.0358
    CHARGE:  cpu time    0.1194: real time    0.1195
    MIXING:  cpu time    0.0022: real time    0.0022
    --------------------------------------------
      LOOP:  cpu time    4.6224: real time    4.6235

 eigenvalue-minimisations  :  5072
 total energy-change (2. order) :-0.5569505E-04  (-0.4910952E-05)
 number of electron      32.0000028 magnetization 
 augmentation part        0.7379987 magnetization 

 Broyden mixing:
  rms(total) = 0.26481E-03    rms(broyden)= 0.26002E-03
  rms(prec ) = 0.62096E-03
  weight for this iteration     100.00

 eigenvalues of (default mixing * dielectric matrix)
  average eigenvalue GAMMA=   1.9611
  2.9262  2.5555  2.0627  0.9920  1.2692

 Free energy of the ion-electron system (eV)
  ---------------------------------------------------
  alpha Z        PSCENC =       112.70644602
  Ewald energy   TEWEN  =     -1382.84145576
  -Hartree energ DENC   =      -106.56967529
  -exchange      EXHF   =         0.00000000
  -V(xc)+E(xc)   XCENC  =       117.13257879
  PAW double counting   =       517.00931450     -527.07988653
  entropy T*S    EENTRO =         0.00000000
  eigenvalues    EBANDS =        19.88830311
  atomic energy  EATOM  =      1177.01779097
  Solvation  Ediel_sol  =         0.00000000
  ---------------------------------------------------
  free energy    TOTEN  =       -72.73658419 eV

  energy without entropy =      -72.73658419  energy(sigma->0) =      -72.73658419


--------------------------------------------------------------------------------------------------------




--------------------------------------- Iteration      1(  11)  ---------------------------------------


    POTLOK:  cpu time    0.0202: real time    0.0210
    SETDIJ:  cpu time    0.0058: real time    0.0058
     EDDAV:  cpu time    3.6650: real time    3.6653
 BZINTS: Fermi energy:  9.574661; 32.000000 electrons
         Band energy:  19.900649;  BLOECHL correction:  0.000000
       DOS:  cpu time    0.0361: real time    0.0361
    --------------------------------------------
      LOOP:  cpu time    3.7271: real time    3.7281

 eigenvalue-minimisations  :  3744
 total energy-change (2. order) :-0.5579445E-06  (-0.1085495E-06)
 number of electron      32.0000028 magnetization 
 augmentation part        0.7379987 magnetization 

 Free energy of the ion-electron system (eV)
  ---------------------------------------------------
  alpha Z        PSCENC =       112.70644602
  Ewald energy   TEWEN  =     -1382.84145576
  -Hartree energ DENC   =      -106.58257394
  -exchange      EXHF   =         0.00000000
  -V(xc)+E(xc)   XCENC  =       117.13377277
  PAW double counting   =       517.03852199     -527.10973546
  entropy T*S    EENTRO =         0.00000000
  eigenvalues    EBANDS =        19.90064866
  atomic energy  EATOM  =      1177.01779097
  Solvation  Ediel_sol  =         0.00000000
  ---------------------------------------------------
  free energy    TOTEN  =       -72.73658474 eV

  energy without entropy =      -72.73658474  energy(sigma->0) =      -72.73658474


--------------------------------------------------------------------------------------------------------




 average (electrostatic) potential at core
  the test charge radii are     0.6991
  (the norm of the test charge is              1.0000)
       1 -45.6585       2 -45.6585       3 -45.6585       4 -45.6585       5 -45.6585
       6 -45.6585       7 -45.6585       8 -45.6585
 
 
 
 E-fermi :   9.5747     XC(G=0): -13.1260     alpha+bet :-17.3579


 k-point     1 :       0.0000    0.0000    0.0000
  band No.  band energies     occupation 
      1     -11.7421      2.00000
      2      -3.1539      2.00000
      3      -3.1539      2.00000
      4      -3.1539      2.00000
      5      -3.1539      2.00000
      6      -3.1539      2.00000
      7      -3.1539      2.00000
      8       3.2946      2.00000
      9       3.2946      2.00000
     10       3.2946      2.00000
     11       3.2946      2.00000
     12       3.2946      2.00000
     13       3.2946      2.00000
     14       9.5044      2.00000
     15       9.5044      2.00000
     16       9.5044      2.00000
     17      14.1954      0.00000
     18      14.1954      0.00000
     19      14.1954      0.00000
     20      14.1954      0.00000
     21      14.1954      0.00000
     22      14.1954      0.00000
     23      15.0369      0.00000
     24      15.0369      0.00000

 k-point     2 :       0.0833    0.0000    0.0000
  band No.  band energies     occupation 
      1     -11.6788      2.00000
      2      -4.4352      2.00000
      3      -3.1141      2.00000
      4      -3.1141      2.00000
      5      -3.1141      2.00000
      6      -3.1141      2.00000
      7      -1.8130      2.00000
      8       3.1573      2.00000
      9       3.1573      2.00000
     10       3.1573      2.00000
     11       3.1573      2.00000
     12       3.3573      2.00000
     13       3.3573      2.00000
     14       9.2456      2.00000
     15       9.2456      2.00000
     16       9.3372      2.00000
     17      13.8583      0.00000
     18      14.4558      0.00000
     19      14.4558      0.00000
     20      14.4558      0.00000
     21      14.4558      0.00000
     22      14.6816      0.00000
     23      14.9759      0.00000
     24      15.3478      0.00000

 k-point     3 :       0.1667    0.0000    0.0000
  band No.  band energies     occupation 
      1     -11.4892      2.00000
      2      -5.6409      2.00000
      3      -2.9999      2.00000
      4      -2.9999      2.00000
      5      -2.9999      2.00000
      6      -2.9999      2.00000
      7      -0.4316      2.00000
      8       2.7906      2.00000
      9       2.7906      2.00000
     10       2.7906      2.00000
     11       2.7906      2.00000
     12       3.5413      2.00000
     13       3.5413      2.00000
     14       8.6049      2.00000
     15       8.6049      2.00000
     16       8.8725      2.00000
     17      13.6545      0.00000
     18      14.8263      0.00000
     19      15.1882      0.00000
     20      15.1882      0.00000
     21      15.1882      0.00000
     22      15.1882      0.00000
     23      15.3330      0.00000
     24      16.1417      0.00000

 k-point     4 :       0.2500    0.0000    0.0000
  band No.  band energies     occupation 
      1     -11.1738      2.00000
      2      -6.7581      2.00000
      3      -2.8276      2.00000
      4      -2.8276      2.00000
      5      -2.8276      2.00000
      6      -2.8276      2.00000
      7       0.9648      2.00000
      8       2.3026      2.00000
      9       2.3026      2.00000
     10       2.3026      2.00000
     11       2.3026      2.00000
     12       3.8458      2.00000
     13       3.8458      2.00000
     14       7.7986      2.00000
     15       7.7986      2.00000
     16       8.1527      2.00000
     17      13.5701      0.00000
     18      14.6114      0.00000
     19      16.1531      0.00000
     20      16.2821      0.00000
     21      16.2821      0.00000
     22      16.2821      0.00000
     23      16.2821      0.00000
     24      17.2091      0.00000

 k-point     5 :       0.3333    0.0000    0.0000
  band No.  band energies     occupation 
      1     -10.7340      2.00000
      2      -7.7767      2.00000
      3      -2.6294      2.00000
      4      -2.6294      2.00000
      5      -2.6294      2.00000
      6      -2.6294      2.00000
      7       1.8201      2.00000
      8       1.8201      2.00000
      9       1.8201      2.00000
     10       1.8201      2.00000
     11       2.3496      2.00000
     12       4.2673      2.00000
     13       4.2673      2.00000
     14       6.9657      2.00000
     15       6.9657      2.00000
     16       7.2394      2.00000
     17      13.5868      0.00000
     18      14.3670      0.00000
     19      17.1506      0.00000
     20      17.6169      0.00000
     21      17.6169      0.00000
     22      17.6169      0.00000
     23      17.6169      0.00000
     24      18.4127      0.00000

 k-point     6 :       0.4167    0.0000    0.0000
  band No.  band energies     occupation 
      1     -10.1714      2.00000
      2      -8.6888      2.00000
      3      -2.4620      2.00000
      4      -2.4620      2.00000
      5      -2.4620      2.00000
      6      -2.4620      2.00000
      7       1.4581      2.00000
      8       1.4581      2.00000
      9       1.4581      2.00000
     10       1.4581      2.00000
     11       3.6973      2.00000
     12       4.8006      2.00000
     13       4.8006      2.00000
     14       6.1678      2.00000
     15       6.1678      2.00000
     16       6.1703      2.00000
     17      13.6952      0.00000
     18      14.1102      0.00000
     19      18.3132      0.00000
     20      19.0484      0.00000
     21      19.0484      0.00000
     22      19.0484      0.00000
     23      19.0486      0.00000
     24      19.6692      0.00000

 k-point     7 :       0.5000    0.0000    0.0000
  band No.  band energies     occupation 
      1      -9.4886      2.00000
      2      -9.4886      2.00000
      3      -2.3943      2.00000
      4      -2.3943      2.00000
      5      -2.3943      2.00000
      6      -2.3943      2.00000
      7       1.3222      2.00000
      8       1.3222      2.00000
      9       1.3222      2.00000
     10       1.3222      2.00000
     11       4.9797      2.00000
     12       4.9797      2.00000
     13       5.4371      2.00000
     14       5.4371      2.00000
     15       5.4371      2.00000
     16       5.4371      2.00000
     17      13.8750      0.00000
     18      13.8750      0.00000
     19      19.5917      0.00000
     20      19.5917      0.00000
     21      20.0328      0.00000
     22      20.0328      0.00000
     23      20.0328      0.00000
     24      20.0328      0.00000

 k-point     8 :       0.0833    0.0833    0.0000
  band No.  band energies     occupation 
      1     -11.6156      2.00000
      2      -4.3874      2.00000
      3      -4.3874      2.00000
      4      -3.1132      2.00000
      5      -3.0398      2.00000
      6      -1.7867      2.00000
      7      -1.7867      2.00000
      8       2.6828      2.00000
      9       3.2052      2.00000
     10       3.2052      2.00000
     11       3.2367      2.00000
     12       3.2367      2.00000
     13       3.4000      2.00000
     14       8.7971      2.00000
     15       8.9972      2.00000
     16       9.4241      2.00000
     17      14.1244      0.00000
     18      14.1244      0.00000
     19      14.2992      0.00000
     20      14.9328      0.00000
     21      14.9328      0.00000
     22      15.0898      0.00000
     23      15.1630      0.00000
     24      15.4145      0.00000

 k-point     9 :       0.1667    0.0833    0.0000
  band No.  band energies     occupation 
      1     -11.4261      2.00000
      2      -5.5880      2.00000
      3      -4.2468      2.00000
      4      -3.0520      2.00000
      5      -2.8868      2.00000
      6      -1.7157      2.00000
      7      -0.4281      2.00000
      8       2.0844      2.00000
      9       2.8020      2.00000
     10       2.9242      2.00000
     11       3.3682      2.00000
     12       3.3801      2.00000
     13       3.4492      2.00000
     14       8.0642      2.00000
     15       8.3718      2.00000
     16       9.1494      2.00000
     17      13.9254      0.00000
     18      14.6585      0.00000
     19      14.8723      0.00000
     20      15.0824      0.00000
     21      15.5746      0.00000
     22      15.6456      0.00000
     23      16.1007      0.00000
     24      16.1297      0.00000

 k-point    10 :       0.2500    0.0833    0.0000
  band No.  band energies     occupation 
      1     -11.1110      2.00000
      2      -6.7018      2.00000
      3      -4.0230      2.00000
      4      -2.9630      2.00000
      5      -2.6608      2.00000
      6      -1.6293      2.00000
      7       0.9273      2.00000
      8       1.4893      2.00000
      9       2.2560      2.00000
     10       2.5291      2.00000
     11       3.1086      2.00000
     12       3.6766      2.00000
     13       3.7992      2.00000
     14       7.2201      2.00000
     15       7.5834      2.00000
     16       8.5591      2.00000
     17      13.8443      0.00000
     18      14.8794      0.00000
     19      15.4786      0.00000
     20      15.9857      0.00000
     21      16.3826      0.00000
     22      16.7104      0.00000
     23      17.1878      0.00000
     24      17.2126      0.00000

 k-point    11 :       0.3333    0.0833    0.0000
  band No.  band energies     occupation 
      1     -10.6715      2.00000
      2      -7.7181      2.00000
      3      -3.7350      2.00000
      4      -2.9034      2.00000
      5      -2.3795      2.00000
      6      -1.5779      2.00000
      7       1.0207      2.00000
      8       1.6836      2.00000
      9       2.1876      2.00000
     10       2.2362      2.00000
     11       2.7301      2.00000
     12       4.0919      2.00000
     13       4.3017      2.00000
     14       6.3360      2.00000
     15       6.7577      2.00000
     16       7.7391      2.00000
     17      13.8653      0.00000
     18      14.6350      0.00000
     19      16.6377      0.00000
     20      17.3449      0.00000
     21      17.3660      0.00000
     22      17.9970      0.00000
     23      18.3207      0.00000
     24      18.3806      0.00000

 k-point    12 :       0.4167    0.0833    0.0000
  band No.  band energies     occupation 
      1     -10.1094      2.00000
      2      -8.6287      2.00000
      3      -3.4180      2.00000
      4      -2.9462      2.00000
      5      -2.0754      2.00000
      6      -1.6253      2.00000
      7       0.7904      2.00000
      8       1.1854      2.00000
      9       2.0195      2.00000
     10       2.3537      2.00000
     11       3.4409      2.00000
     12       4.6185      2.00000
     13       4.9779      2.00000
     14       5.4388      2.00000
     15       5.9687      2.00000
     16       6.7981      2.00000
     17      13.9724      0.00000
     18      14.3842      0.00000
     19      17.9982      0.00000
     20      18.5121      0.00000
     21      18.8375      0.00000
     22      19.2719      0.00000
     23      19.5025      0.00000
     24      19.6425      0.00000

 k-point    13 :       0.5000    0.0833    0.0000
  band No.  band energies     occupation 
      1      -9.4274      2.00000
      2      -9.4274      2.00000
      3      -3.1303      2.00000
      4      -3.1303      2.00000
      5      -1.8024      2.00000
      6      -1.8024      2.00000
      7       0.8581      2.00000
      8       0.8581      2.00000
      9       2.0852      2.00000
     10       2.0852      2.00000
     11       4.4978      2.00000
     12       4.4978      2.00000
     13       5.2485      2.00000
     14       5.2485      2.00000
     15       5.8352      2.00000
     16       5.8352      2.00000
     17      14.1526      0.00000
     18      14.1526      0.00000
     19      19.3031      0.00000
     20      19.3031      0.00000
     21      19.7705      0.00000
     22      19.7705      0.00000
     23      20.2831      0.00000
     24      20.2843      0.00000

 k-point    14 :       0.1667    0.1667    0.0000
  band No.  band energies     occupation 
      1     -11.2370      2.00000
      2      -5.4310      2.00000
      3      -5.4310      2.00000
      4      -3.0744      2.00000
      5      -2.6985      2.00000
      6      -0.4327      2.00000
      7      -0.4327      2.00000
      8       1.3778      2.00000
      9       2.9498      2.00000
     10       2.9498      2.00000
     11       3.2203      2.00000
     12       3.2203      2.00000
     13       3.7113      2.00000
     14       7.2649      2.00000
     15       7.7809      2.00000
     16       9.1737      2.00000
     17      14.6064      0.00000
     18      14.6836      0.00000
     19      14.6836      0.00000
     20      15.5415      0.00000
     21      16.2559      0.00000
     22      16.2559      0.00000
     23      16.3163      0.00000
     24      16.6482      0.00000

 k-point    15 :       0.2500    0.1667    0.0000
  band No.  band energies     occupation 
      1     -10.9227      2.00000
      2      -6.5341      2.00000
      3      -5.1756      2.00000
      4      -3.1244      2.00000
      5      -2.4332      2.00000
      6      -0.4866      2.00000
      7       0.7961      2.00000
      8       0.7973      2.00000
      9       2.3642      2.00000
     10       2.9691      2.00000
     11       3.2257      2.00000
     12       3.7044      2.00000
     13       3.7797      2.00000
     14       6.4000      2.00000
     15       7.0225      2.00000
     16       8.8219      2.00000
     17      14.6084      0.00000
     18      15.0578      0.00000
     19      15.5396      0.00000
     20      15.8077      0.00000
     21      17.0333      0.00000
     22      17.1743      0.00000
     23      17.2781      0.00000
     24      17.2897      0.00000

 k-point    16 :       0.3333    0.1667    0.0000
  band No.  band energies     occupation 
      1     -10.4844      2.00000
      2      -7.5434      2.00000
      3      -4.8331      2.00000
      4      -3.2783      2.00000
      5      -2.0980      2.00000
      6      -0.6439      2.00000
      7       0.4591      2.00000
      8       1.7357      2.00000
      9       1.9139      2.00000
     10       2.8242      2.00000
     11       3.6228      2.00000
     12       3.6230      2.00000
     13       4.4018      2.00000
     14       5.5208      2.00000
     15       6.2229      2.00000
     16       8.1597      2.00000
     17      14.6300      0.00000
     18      15.3491      0.00000
     19      15.9482      0.00000
     20      17.1741      0.00000
     21      17.9763      0.00000
     22      18.1391      0.00000
     23      18.3438      0.00000
     24      18.4850      0.00000

 k-point    17 :       0.4167    0.1667    0.0000
  band No.  band energies     occupation 
      1      -9.9240      2.00000
      2      -8.4491      2.00000
      3      -4.4242      2.00000
      4      -3.5783      2.00000
      5      -1.7108      2.00000
      6      -0.9280      2.00000
      7       0.4340      2.00000
      8       1.1537      2.00000
      9       2.8596      2.00000
     10       2.8956      2.00000
     11       3.3451      2.00000
     12       4.1340      2.00000
     13       4.6512      2.00000
     14       5.2951      2.00000
     15       5.4531      2.00000
     16       7.2842      2.00000
     17      14.7342      0.00000
     18      15.1221      0.00000
     19      17.1474      0.00000
     20      18.6847      0.00000
     21      19.0744      0.00000
     22      19.1142      0.00000
     23      19.3311      0.00000
     24      19.6131      0.00000

 k-point    18 :       0.5000    0.1667    0.0000
  band No.  band energies     occupation 
      1      -9.2443      2.00000
      2      -9.2443      2.00000
      3      -3.9856      2.00000
      4      -3.9856      2.00000
      5      -1.3037      2.00000
      6      -1.3037      2.00000
      7       0.6930      2.00000
      8       0.6930      2.00000
      9       3.0589      2.00000
     10       3.0589      2.00000
     11       3.7875      2.00000
[...]

 k-point    72 :       0.4167    0.4167    0.2500
  band No.  band energies     occupation 
      1      -8.1142      2.00000
      2      -6.7519      2.00000
      3      -6.7519      2.00000
      4      -5.6694      2.00000
      5      -2.8622      2.00000
      6      -1.8138      2.00000
      7      -1.8138      2.00000
      8      -0.4992      2.00000
      9       4.0843      2.00000
     10       4.8456      2.00000
     11       4.8456      2.00000
     12       5.9342      2.00000
     13       5.9587      2.00000
     14       6.1317      2.00000
     15       6.1317      2.00000
     16       7.1910      2.00000
     17      16.9375      0.00000
     18      17.4688      0.00000
     19      17.4688      0.00000
     20      17.8001      0.00000
     21      17.9569      0.00000
     22      18.4468      0.00000
     23      18.4468      0.00000
     24      18.5627      0.00000

 k-point    73 :       0.5000    0.4167    0.2500
  band No.  band energies     occupation 
      1      -7.4770      2.00000
      2      -7.4770      2.00000
      3      -6.2050      2.00000
      4      -6.2050      2.00000
      5      -2.4475      2.00000
      6      -2.4475      2.00000
      7      -1.2184      2.00000
      8      -1.2184      2.00000
      9       4.4833      2.00000
     10       4.4833      2.00000
     11       5.4185      2.00000
     12       5.4185      2.00000
     13       6.1722      2.00000
     14       6.1722      2.00000
     15       6.7867      2.00000
     16       6.7867      2.00000
     17      17.4450      0.00000
     18      17.4450      0.00000
     19      17.7232      0.00000
     20      17.7232      0.00000
     21      18.0993      0.00000
     22      18.0993      0.00000
     23      18.6996      0.00000
     24      18.6996      0.00000

 k-point    74 :       0.5000    0.5000    0.2500
  band No.  band energies     occupation 
      1      -6.8706      2.00000
      2      -6.8706      2.00000
      3      -6.8706      2.00000
      4      -6.8706      2.00000
      5      -1.9096      2.00000
      6      -1.9096      2.00000
      7      -1.9096      2.00000
      8      -1.9096      2.00000
      9       4.9679      2.00000
     10       4.9679      2.00000
     11       4.9679      2.00000
     12       4.9679      2.00000
     13       6.6247      2.00000
     14       6.6247      2.00000
     15       6.6247      2.00000
     16       6.6247      2.00000
     17      17.5887      0.00000
     18      17.5887      0.00000
     19      17.5887      0.00000
     20      17.5887      0.00000
     21      18.5538      0.00000
     22      18.5538      0.00000
     23      18.5538      0.00000
     24      18.5538      0.00000

 k-point    75 :       0.3333    0.3333    0.3333
  band No.  band energies     occupation 
      1      -8.7693      2.00000
      2      -6.0837      2.00000
      3      -6.0837      2.00000
      4      -6.0837      2.00000
      5      -2.3621      2.00000
      6      -2.3621      2.00000
      7      -2.3621      2.00000
      8       0.2354      2.00000
      9       4.5614      2.00000
     10       4.5614      2.00000
     11       4.5614      2.00000
     12       5.5869      2.00000
     13       5.5869      2.00000
     14       5.5869      2.00000
     15       7.2095      2.00000
     16       7.2095      2.00000
     17      16.5103      0.00000
     18      16.5103      0.00000
     19      16.5103      0.00000
     20      17.6794      0.00000
     21      17.6794      0.00000
     22      17.8188      0.00000
     23      20.0845      0.00000
     24      20.0849      0.00000

 k-point    76 :       0.4167    0.3333    0.3333
  band No.  band energies     occupation 
      1      -8.2344      2.00000
      2      -6.8670      2.00000
      3      -5.7761      2.00000
      4      -5.7761      2.00000
      5      -2.9808      2.00000
      6      -2.9808      2.00000
      7      -1.9218      2.00000
      8      -0.5973      2.00000
      9       4.7709      2.00000
     10       4.7709      2.00000
     11       5.6543      2.00000
     12       5.8049      2.00000
     13       5.8049      2.00000
     14       5.9502      2.00000
     15       6.7911      2.00000
     16       7.0759      2.00000
     17      16.8491      0.00000
     18      17.0395      0.00000
     19      17.0395      0.00000
     20      17.4599      0.00000
     21      18.0808      0.00000
     22      18.1196      0.00000
     23      19.0988      0.00000
     24      19.1018      0.00000

 k-point    77 :       0.5000    0.3333    0.3333
  band No.  band energies     occupation 
      1      -7.5950      2.00000
      2      -7.5950      2.00000
      3      -5.6321      2.00000
      4      -5.6321      2.00000
      5      -3.2295      2.00000
      6      -3.2295      2.00000
      7      -1.3225      2.00000
      8      -1.3225      2.00000
      9       4.8417      2.00000
     10       4.8417      2.00000
     11       5.8746      2.00000
     12       5.8746      2.00000
     13       6.3614      2.00000
     14       6.3614      2.00000
     15       6.5279      2.00000
     16       6.5279      2.00000
     17      17.1767      0.00000
     18      17.1767      0.00000
     19      17.6186      0.00000
     20      17.6186      0.00000
     21      18.3175      0.00000
     22      18.3177      0.00000
     23      18.6687      0.00000
     24      18.6807      0.00000

 k-point    78 :       0.4167    0.4167    0.3333
  band No.  band energies     occupation 
      1      -7.7148      2.00000
      2      -6.4316      2.00000
      3      -6.4316      2.00000
      4      -5.7435      2.00000
      5      -3.3409      2.00000
      6      -2.6681      2.00000
      7      -2.6681      2.00000
      8      -1.4210      2.00000
      9       5.1841      2.00000
     10       5.6442      2.00000
     11       5.6442      2.00000
     12       6.1591      2.00000
     13       6.2321      2.00000
     14       6.2321      2.00000
     15       6.5800      2.00000
     16       7.0451      2.00000
     17      17.2014      0.00000
     18      17.3418      0.00000
     19      17.3418      0.00000
     20      17.7507      0.00000
     21      17.9476      0.00000
     22      18.1134      0.00000
     23      18.5282      0.00000
     24      18.5282      0.00000

 k-point    79 :       0.5000    0.4167    0.3333
  band No.  band energies     occupation 
      1      -7.1033      2.00000
      2      -7.1033      2.00000
      3      -6.0038      2.00000
      4      -6.0038      2.00000
      5      -3.1957      2.00000
      6      -3.1957      2.00000
      7      -2.1232      2.00000
      8      -2.1232      2.00000
      9       5.4639      2.00000
     10       5.4639      2.00000
     11       6.1928      2.00000
     12       6.1928      2.00000
     13       6.3260      2.00000
     14       6.3260      2.00000
     15       6.7427      2.00000
     16       6.7427      2.00000
     17      17.6164      0.00000
     18      17.6164      0.00000
     19      17.6283      0.00000
     20      17.6283      0.00000
     21      18.1290      0.00000
     22      18.1290      0.00000
     23      18.2683      0.00000
     24      18.2693      0.00000

 k-point    80 :       0.5000    0.5000    0.3333
  band No.  band energies     occupation 
      1      -6.5481      2.00000
      2      -6.5481      2.00000
      3      -6.5481      2.00000
      4      -6.5481      2.00000
      5      -2.7735      2.00000
      6      -2.7735      2.00000
      7      -2.7735      2.00000
      8      -2.7735      2.00000
      9       5.8801      2.00000
     10       5.8801      2.00000
     11       5.8801      2.00000
     12       5.8801      2.00000
     13       6.6805      2.00000
     14       6.6805      2.00000
     15       6.6805      2.00000
     16       6.6805      2.00000
     17      17.7417      0.00000
     18      17.7417      0.00000
     19      17.7417      0.00000
     20      17.7417      0.00000
     21      18.1988      0.00000
     22      18.1988      0.00000
     23      18.1988      0.00000
     24      18.1989      0.00000

 k-point    81 :       0.4167    0.4167    0.4167
  band No.  band energies     occupation 
      1      -7.2211      2.00000
      2      -6.1160      2.00000
      3      -6.1160      2.00000
      4      -6.1160      2.00000
      5      -3.3098      2.00000
      6      -3.3098      2.00000
      7      -3.3098      2.00000
      8      -2.2290      2.00000
      9       6.0861      2.00000
     10       6.0861      2.00000
     11       6.0861      2.00000
     12       6.3914      2.00000
     13       6.3914      2.00000
     14       6.3914      2.00000
     15       6.8549      2.00000
     16       6.8549      2.00000
     17      17.4608      0.00000
     18      17.4608      0.00000
     19      17.4608      0.00000
     20      17.8394      0.00000
     21      17.8394      0.00000
     22      18.0007      0.00000
     23      18.4862      0.00000
     24      18.4868      0.00000

 k-point    82 :       0.5000    0.4167    0.4167
  band No.  band energies     occupation 
      1      -6.6632      2.00000
      2      -6.6632      2.00000
      3      -5.9672      2.00000
      4      -5.9672      2.00000
      5      -3.5679      2.00000
      6      -3.5679      2.00000
      7      -2.8853      2.00000
      8      -2.8853      2.00000
      9       6.1737      2.00000
     10       6.1737      2.00000
     11       6.5161      2.00000
     12       6.5161      2.00000
     13       6.6289      2.00000
     14       6.6289      2.00000
     15       6.6751      2.00000
     16       6.6751      2.00000
     17      17.6880      0.00000
     18      17.6880      0.00000
     19      17.7567      0.00000
     20      17.7568      0.00000
     21      18.0365      0.00000
     22      18.0387      0.00000
     23      18.0881      0.00000
     24      18.0913      0.00000

 k-point    83 :       0.5000    0.5000    0.4167
  band No.  band energies     occupation 
      1      -6.2298      2.00000
      2      -6.2298      2.00000
      3      -6.2298      2.00000
      4      -6.2298      2.00000
      5      -3.4220      2.00000
      6      -3.4220      2.00000
      7      -3.4220      2.00000
      8      -3.4220      2.00000
      9       6.5050      2.00000
     10       6.5050      2.00000
     11       6.5050      2.00000
     12       6.5050      2.00000
     13       6.7195      2.00000
     14       6.7195      2.00000
     15       6.7195      2.00000
     16       6.7195      2.00000
     17      17.8420      0.00000
     18      17.8420      0.00000
     19      17.8421      0.00000
     20      17.8424      0.00000
     21      17.9514      0.00000
     22      17.9515      0.00000
     23      17.9515      0.00000
     24      17.9534      0.00000

 k-point    84 :       0.5000    0.5000    0.5000
  band No.  band energies     occupation 
      1      -6.0793      2.00000
      2      -6.0793      2.00000
      3      -6.0793      2.00000
      4      -6.0793      2.00000
      5      -3.6831      2.00000
      6      -3.6831      2.00000
      7      -3.6831      2.00000
      8      -3.6831      2.00000
      9       6.7360      2.00000
     10       6.7360      2.00000
     11       6.7360      2.00000
     12       6.7360      2.00000
     13       6.7360      2.00000
     14       6.7360      2.00000
     15       6.7360      2.00000
     16       6.7360      2.00000
     17      17.8648      0.00000
     18      17.8648      0.00000
     19      17.8648      0.00000
     20      17.8648      0.00000
     21      17.8650      0.00000
     22      17.8653      0.00000
     23      17.8659      0.00000
     24      18.0554      0.00000


--------------------------------------------------------------------------------------------------------


 soft charge-density along one line, spin component           1
         0         1         2         3         4         5         6         7         8         9
 total charge-density along one line
 
 pseudopotential strength for first ion, spin component:           1
  9.454  -0.004   0.000   0.000   0.000  -0.000  -0.000   0.000
 -0.004  -0.002  -0.000  -0.000   0.000  -0.000  -0.000   0.000
  0.000  -0.000  -3.675  -0.000  -0.000  -0.008  -0.000  -0.000
  0.000  -0.000  -0.000  -3.675   0.000  -0.000  -0.008   0.000
  0.000   0.000  -0.000   0.000  -3.675  -0.000   0.000  -0.008
 -0.000  -0.000  -0.008  -0.000  -0.000  -0.758  -0.000  -0.000
 -0.000  -0.000  -0.000  -0.008   0.000  -0.000  -0.758   0.000
  0.000   0.000  -0.000   0.000  -0.008  -0.000   0.000  -0.758
 total augmentation occupancy for first ion, spin component:           1
  1.422  -1.010  -0.000   0.000   0.000   0.000   0.000   0.000
 -1.010   0.995  -0.000   0.000  -0.000  -0.000  -0.000  -0.000
  0.000   0.000   1.089  -0.000  -0.000   0.182   0.000   0.000
  0.000   0.000  -0.000   1.089   0.000   0.000   0.182   0.000
 -0.000  -0.000  -0.000   0.000   1.089   0.000   0.000   0.182
 -0.000  -0.000   0.182   0.000   0.000   0.036   0.000   0.000
  0.000   0.000   0.000   0.182  -0.000  -0.000   0.036  -0.000
  0.000   0.000   0.000  -0.000   0.182   0.000  -0.000   0.036


------------------------ aborting loop because EDIFF is reached ----------------------------------------


    CHARGE:  cpu time    0.1138: real time    0.1138
    FORLOC:  cpu time    0.0020: real time    0.0020
    FORNL :  cpu time    0.1932: real time    0.1933
    STRESS:  cpu time    0.4537: real time    0.4539
    FORHAR:  cpu time    0.0053: real time    0.0053
    MIXING:  cpu time    0.0020: real time    0.0020
    OFIELD:  cpu time    0.0001: real time    0.0001

  FORCE on cell =-STRESS in cart. coord.  units (eV):
  Direction    XX          YY          ZZ          XY          YZ          ZX
  --------------------------------------------------------------------------------------
  Alpha Z   112.70645   112.70645   112.70645
  Ewald    -460.94794  -460.94794  -460.94794    -0.00000    -0.00000     0.00000
  Hartree    35.52675    35.52675    35.52675    -0.00000    -0.00000    -0.00000
  E(xc)    -119.18348  -119.18348  -119.18348     0.00000    -0.00000    -0.00000
  Local     -48.00406   -48.00406   -48.00406    -0.00000     0.00000     0.00000
  n-local   -27.25951   -28.06566   -27.43347     0.67706     0.82819     0.39489
  augment    -2.77156    -2.77156    -2.77156    -0.00000    -0.00000    -0.00000
  Kinetic   496.40205   512.26193   513.36757    -4.65447    -6.49754    -3.24115
  Fock        0.00000     0.00000     0.00000     0.00000     0.00000     0.00000
  -------------------------------------------------------------------------------------
  Total      -2.91622    -2.91622    -2.91622    -0.00000    -0.00000    -0.00000
  in kB    -100.98273  -100.98273  -100.98273    -0.00000    -0.00000    -0.00000
  external pressure =     -100.98 kB  Pullay stress =        0.00 kB


 VOLUME and BASIS-vectors are now :
 -----------------------------------------------------------------------------
  energy-cutoff  :      400.00
  volume of cell :       46.27
      direct lattice vectors                 reciprocal lattice vectors
     3.589999359  0.000000000  0.000000000     0.278551582  0.000000000  0.000000000
     0.000000000  3.589999359  0.000000000     0.000000000  0.278551582  0.000000000
     0.000000000  0.000000000  3.589999359     0.000000000  0.000000000  0.278551582

  length of vectors
     3.589999359  3.589999359  3.589999359     0.278551582  0.278551582  0.278551582


 FORCES acting on ions
    electron-ion (+dipol)            ewald-force                    non-local-force                 convergence-correction
 -----------------------------------------------------------------------------------------------
   0.158E-13 -.152E-12 0.430E-13   -.711E-14 0.142E-13 0.142E-13   -.254E-16 -.523E-16 -.912E-17   0.925E-14 0.280E-14 -.534E-14
   -.792E-14 -.179E-14 0.561E-13   -.684E-14 0.636E-14 0.419E-17   0.124E-16 0.370E-16 0.306E-16   -.356E-14 -.101E-14 -.477E-14
   0.158E-13 -.165E-12 0.558E-13   -.711E-14 0.711E-14 0.142E-13   -.256E-16 -.478E-16 -.207E-16   0.872E-14 0.225E-14 -.396E-14
   -.158E-13 0.191E-13 0.348E-13   -.667E-14 0.119E-16 -.836E-15   0.165E-16 0.439E-16 0.281E-16   -.315E-14 -.141E-14 -.417E-14
   0.475E-13 0.205E-12 0.424E-12   -.711E-14 0.000E+00 0.000E+00   -.460E-17 -.339E-16 -.312E-16   0.436E-14 0.379E-14 -.492E-14
   0.158E-13 0.168E-14 -.378E-12   0.708E-14 -.918E-14 -.150E-13   0.114E-16 0.601E-16 0.139E-16   -.624E-14 -.694E-15 -.473E-14
   0.238E-13 -.186E-12 0.324E-13   -.711E-14 -.711E-14 0.000E+00   -.127E-16 -.350E-16 -.236E-16   0.389E-14 0.336E-14 -.546E-14
   0.158E-13 0.376E-12 0.511E-13   0.708E-14 -.143E-13 -.141E-13   0.296E-16 0.394E-16 0.168E-16   -.568E-14 -.108E-14 -.618E-14
 -----------------------------------------------------------------------------------------------
   0.111E-12 0.977E-13 0.318E-12   -.278E-13 -.287E-14 -.158E-14   0.167E-17 0.114E-16 0.487E-17   0.759E-14 0.799E-14 -.395E-13
 
 
 POSITION                                       TOTAL-FORCE (eV/Angst)
 -----------------------------------------------------------------------------------
      0.89750      2.69250      0.89750        -0.000000      0.000000     -0.000000
      0.00000      0.00000      1.79500         0.000000     -0.000000      0.000000
      0.89750      0.89750      2.69250        -0.000000      0.000000      0.000000
      0.00000      1.79500      0.00000        -0.000000      0.000000     -0.000000
      2.69250      2.69250      2.69250        -0.000000      0.000000     -0.000000
      1.79500      0.00000      0.00000        -0.000000     -0.000000      0.000000
      2.69250      0.89750      0.89750         0.000000     -0.000000     -0.000000
      1.79500      1.79500      1.79500         0.000000     -0.000000     -0.000000
 -----------------------------------------------------------------------------------
    total drift:                                0.000000      0.000000      0.000000


--------------------------------------------------------------------------------------------------------



  FREE ENERGIE OF THE ION-ELECTRON SYSTEM (eV)
  ---------------------------------------------------
  free  energy   TOTEN  =       -72.73658474 eV

  energy  without entropy=      -72.73658474  energy(sigma->0) =      -72.73658474
 


--------------------------------------------------------------------------------------------------------


    POTLOK:  cpu time    0.0264: real time    0.0264


--------------------------------------------------------------------------------------------------------


     LOOP+:  cpu time   49.6860: real time   49.7326
    4ORBIT:  cpu time    0.0000: real time    0.0000
 BZINTS: Fermi energy:  9.574661; 32.000000 electrons
         Band energy:  19.900649;  BLOECHL correction:  0.000000

 total amount of memory used by VASP MPI-rank0    33890. kBytes
=======================================================================

   base      :      30000. kBytes
   nonl-proj :       1188. kBytes
   fftplans  :        345. kBytes
   grid      :        481. kBytes
   one-center:          6. kBytes
   wavefun   :       1870. kBytes
 
  
  
 General timing and accounting informations for this job:
 ========================================================
  
                  Total CPU time used (sec):       52.093
                            User time (sec):       50.352
                          System time (sec):        1.741
                         Elapsed time (sec):       52.474
  
                   Maximum memory used (kb):      187560.
                   Average memory used (kb):           0.
  
                          Minor page faults:        36881
                          Major page faults:           36
                 Voluntary context switches:          786
