   8   8   0   0
  0.5957902E+01  0.3625721E-09  0.3625721E-09  0.3625721E-09  0.2000000E-16
  1.000000000000000E-004
  CAR 
 unknown system                          
     21.95536115    -13.37835963  301      9.13216499      1.00000000
    -13.378  0.0000E+00  0.0000E+00
    -13.261  0.0000E+00  0.0000E+00
    -13.143  0.0000E+00  0.0000E+00
    -13.025  0.0000E+00  0.0000E+00
    -12.907  0.0000E+00  0.0000E+00
    -12.789  0.0000E+00  0.0000E+00
    -12.672  0.0000E+00  0.0000E+00
    -12.554  0.0000E+00  0.0000E+00
    -12.436  0.0000E+00  0.0000E+00
    -12.318  0.0000E+00  0.0000E+00
    -12.201  0.0000E+00  0.0000E+00
    -12.083  0.0000E+00  0.0000E+00
    -11.965  0.0000E+00  0.0000E+00
    -11.847  0.0000E+00  0.0000E+00
    -11.729  0.3567E-01  0.5092E-03
    -11.612  0.1584E+00  0.1485E-01
    -11.494  0.2483E+00  0.3877E-01
    -11.376  0.2807E+00  0.6962E-01
    -11.258  0.3294E+00  0.1056E+00
    -11.141  0.3712E+00  0.1473E+00
    -11.023  0.4011E+00  0.1927E+00
    -10.905  0.4329E+00  0.2417E+00
    -10.787  0.4724E+00  0.2950E+00
    -10.669  0.4964E+00  0.3523E+00
    -10.552  0.5206E+00  0.4122E+00
    -10.434  0.5472E+00  0.4750E+00
    -10.316  0.5764E+00  0.5411E+00
    -10.198  0.6048E+00  0.6107E+00
    -10.081  0.6244E+00  0.6831E+00
     -9.963  0.6451E+00  0.7578E+00
     -9.845  0.6677E+00  0.8351E+00
     -9.727  0.6912E+00  0.9151E+00
     -9.609  0.7163E+00  0.9980E+00
     -9.492  0.7388E+00  0.1084E+01
     -9.374  0.7572E+00  0.1172E+01
     -9.256  0.7755E+00  0.1262E+01
     -9.138  0.7964E+00  0.1355E+01
     -9.021  0.8178E+00  0.1450E+01
     -8.903  0.8402E+00  0.1547E+01
     -8.785  0.8634E+00  0.1648E+01
     -8.667  0.8816E+00  0.1751E+01
     -8.549  0.9002E+00  0.1855E+01
     -8.432  0.9198E+00  0.1963E+01
     -8.314  0.9401E+00  0.2072E+01
     -8.196  0.9608E+00  0.2184E+01
     -8.078  0.9945E+00  0.2299E+01
     -7.961  0.1051E+01  0.2420E+01
     -7.843  0.1086E+01  0.2546E+01
     -7.725  0.1127E+01  0.2677E+01
     -7.607  0.1125E+01  0.2810E+01
     -7.489  0.1096E+01  0.2941E+01
     -7.372  0.1075E+01  0.3068E+01
     -7.254  0.1107E+01  0.3197E+01
     -7.136  0.1121E+01  0.3328E+01
     -7.018  0.1131E+01  0.3461E+01
     -6.901  0.1167E+01  0.3596E+01
     -6.783  0.1237E+01  0.3737E+01
     -6.665  0.1284E+01  0.3885E+01
     -6.547  0.1404E+01  0.4045E+01
     -6.429  0.1459E+01  0.4214E+01
     -6.312  0.1614E+01  0.4394E+01
     -6.194  0.1730E+01  0.4591E+01
     -6.076  0.1636E+01  0.4783E+01
     -5.958  0.1716E+01  0.4974E+01
     -5.840  0.1462E+01  0.5154E+01
     -5.723  0.1475E+01  0.5325E+01
     -5.605  0.1468E+01  0.5500E+01
     -5.487  0.1457E+01  0.5672E+01
     -5.369  0.1409E+01  0.5839E+01
     -5.252  0.1304E+01  0.5998E+01
     -5.134  0.1260E+01  0.6148E+01
     -5.016  0.1234E+01  0.6295E+01
     -4.898  0.1252E+01  0.6440E+01
     -4.780  0.1161E+01  0.6585E+01
     -4.663  0.1088E+01  0.6717E+01
     -4.545  0.1093E+01  0.6847E+01
     -4.427  0.1111E+01  0.6979E+01
     -4.309  0.1026E+01  0.7102E+01
     -4.192  0.1003E+01  0.7221E+01
     -4.074  0.1007E+01  0.7340E+01
     -3.956  0.9425E+00  0.7458E+01
     -3.838  0.8511E+00  0.7564E+01
     -3.720  0.7676E+00  0.7659E+01
     -3.603  0.9078E+00  0.7755E+01
     -3.485  0.8434E+00  0.7858E+01
     -3.367  0.9254E+00  0.7963E+01
     -3.249  0.8784E+00  0.8079E+01
     -3.132  0.8555E+00  0.8180E+01
     -3.014  0.9494E+00  0.8286E+01
     -2.896  0.9894E+00  0.8399E+01
     -2.778  0.1039E+01  0.8517E+01
     -2.660  0.1184E+01  0.8647E+01
     -2.543  0.1440E+01  0.8800E+01
     -2.425  0.1653E+01  0.8982E+01
     -2.307  0.1928E+01  0.9193E+01
     -2.189  0.2405E+01  0.9443E+01
     -2.072  0.3276E+01  0.9771E+01
     -1.954  0.2986E+01  0.1018E+02
     -1.836  0.2189E+01  0.1048E+02
     -1.718  0.1912E+01  0.1072E+02
     -1.600  0.1749E+01  0.1094E+02
     -1.483  0.1635E+01  0.1114E+02
     -1.365  0.1540E+01  0.1132E+02
     -1.247  0.1466E+01  0.1150E+02
     -1.129  0.1433E+01  0.1167E+02
     -1.012  0.1394E+01  0.1184E+02
     -0.894  0.1353E+01  0.1200E+02
     -0.776  0.1347E+01  0.1216E+02
     -0.658  0.1172E+01  0.1231E+02
     -0.540  0.1135E+01  0.1245E+02
     -0.423  0.1113E+01  0.1258E+02
     -0.305  0.1093E+01  0.1271E+02
     -0.187  0.1077E+01  0.1284E+02
     -0.069  0.1045E+01  0.1296E+02
      0.048  0.9843E+00  0.1308E+02
      0.166  0.1101E+01  0.1320E+02
      0.284  0.1330E+01  0.1335E+02
      0.402  0.1576E+01  0.1352E+02
      0.520  0.1801E+01  0.1372E+02
      0.637  0.1998E+01  0.1394E+02
      0.755  0.2347E+01  0.1421E+02
      0.873  0.2255E+01  0.1448E+02
      0.991  0.2323E+01  0.1475E+02
      1.108  0.2483E+01  0.1503E+02
      1.226  0.2120E+01  0.1531E+02
      1.344  0.1618E+01  0.1552E+02
      1.462  0.1606E+01  0.1570E+02
      1.580  0.1722E+01  0.1589E+02
      1.697  0.2053E+01  0.1611E+02
      1.815  0.2221E+01  0.1637E+02
      1.933  0.2358E+01  0.1664E+02
      2.051  0.2474E+01  0.1692E+02
      2.168  0.2448E+01  0.1721E+02
      2.286  0.2378E+01  0.1750E+02
      2.404  0.2398E+01  0.1778E+02
      2.522  0.2675E+01  0.1808E+02
      2.640  0.3055E+01  0.1841E+02
      2.757  0.3113E+01  0.1880E+02
      2.875  0.2872E+01  0.1915E+02
      2.993  0.2276E+01  0.1945E+02
      3.111  0.2815E+01  0.1974E+02
      3.228  0.2871E+01  0.2009E+02
      3.346  0.2927E+01  0.2043E+02
      3.464  0.3758E+01  0.2081E+02
      3.582  0.4298E+01  0.2130E+02
      3.700  0.3635E+01  0.2177E+02
      3.817  0.2971E+01  0.2216E+02
      3.935  0.2618E+01  0.2248E+02
      4.053  0.2623E+01  0.2279E+02
      4.171  0.3249E+01  0.2313E+02
      4.289  0.2799E+01  0.2349E+02
      4.406  0.3122E+01  0.2384E+02
      4.524  0.3071E+01  0.2421E+02
      4.642  0.3040E+01  0.2456E+02
      4.760  0.3097E+01  0.2492E+02
      4.877  0.3213E+01  0.2530E+02
      4.995  0.3117E+01  0.2568E+02
      5.113  0.2661E+01  0.2602E+02
      5.231  0.2458E+01  0.2632E+02
      5.349  0.2449E+01  0.2661E+02
      5.466  0.2511E+01  0.2690E+02
      5.584  0.2850E+01  0.2722E+02
      5.702  0.2932E+01  0.2756E+02
      5.820  0.2885E+01  0.2791E+02
      5.937  0.2794E+01  0.2824E+02
      6.055  0.2583E+01  0.2856E+02
      6.173  0.3047E+01  0.2886E+02
      6.291  0.2587E+01  0.2915E+02
      6.409  0.2856E+01  0.2952E+02
      6.526  0.1934E+01  0.2979E+02
      6.644  0.1754E+01  0.3000E+02
      6.762  0.1628E+01  0.3020E+02
      6.880  0.1468E+01  0.3039E+02
      6.997  0.1385E+01  0.3056E+02
      7.115  0.1306E+01  0.3071E+02
      7.233  0.1233E+01  0.3086E+02
      7.351  0.1110E+01  0.3100E+02
      7.469  0.1001E+01  0.3113E+02
      7.586  0.9304E+00  0.3124E+02
      7.704  0.8716E+00  0.3134E+02
      7.822  0.8317E+00  0.3144E+02
      7.940  0.7445E+00  0.3154E+02
      8.057  0.6662E+00  0.3162E+02
      8.175  0.5932E+00  0.3169E+02
      8.293  0.5664E+00  0.3176E+02
      8.411  0.4594E+00  0.3182E+02
      8.529  0.3712E+00  0.3187E+02
      8.646  0.3929E+00  0.3192E+02
      8.764  0.2606E+00  0.3196E+02
      8.882  0.1440E+00  0.3198E+02
      9.000  0.5523E-01  0.3200E+02
      9.117  0.0000E+00  0.3200E+02
      9.235  0.0000E+00  0.3200E+02
      9.353  0.0000E+00  0.3200E+02
      9.471  0.0000E+00  0.3200E+02
      9.589  0.0000E+00  0.3200E+02
      9.706  0.0000E+00  0.3200E+02
      9.824  0.0000E+00  0.3200E+02
      9.942  0.0000E+00  0.3200E+02
     10.060  0.0000E+00  0.3200E+02
     10.177  0.0000E+00  0.3200E+02
     10.295  0.0000E+00  0.3200E+02
     10.413  0.0000E+00  0.3200E+02
     10.531  0.0000E+00  0.3200E+02
     10.649  0.0000E+00  0.3200E+02
     10.766  0.0000E+00  0.3200E+02
     10.884  0.0000E+00  0.3200E+02
     11.002  0.0000E+00  0.3200E+02
     11.120  0.0000E+00  0.3200E+02
     11.237  0.0000E+00  0.3200E+02
     11.355  0.0000E+00  0.3200E+02
     11.473  0.0000E+00  0.3200E+02
     11.591  0.0000E+00  0.3200E+02
     11.709  0.0000E+00  0.3200E+02
     11.826  0.0000E+00  0.3200E+02
     11.944  0.0000E+00  0.3200E+02
     12.062  0.0000E+00  0.3200E+02
     12.180  0.0000E+00  0.3200E+02
     12.297  0.0000E+00  0.3200E+02
     12.415  0.0000E+00  0.3200E+02
     12.533  0.0000E+00  0.3200E+02
     12.651  0.0000E+00  0.3200E+02
     12.769  0.0000E+00  0.3200E+02
     12.886  0.0000E+00  0.3200E+02
     13.004  0.0000E+00  0.3200E+02
     13.122  0.1495E-01  0.3200E+02
     13.240  0.1477E+00  0.3201E+02
     13.357  0.3572E+00  0.3204E+02
     13.475  0.5566E+00  0.3209E+02
     13.593  0.6322E+00  0.3216E+02
     13.711  0.6322E+00  0.3224E+02
     13.829  0.8357E+00  0.3232E+02
     13.946  0.9462E+00  0.3243E+02
     14.064  0.1076E+01  0.3255E+02
     14.182  0.1539E+01  0.3272E+02
     14.300  0.1485E+01  0.3290E+02
     14.418  0.1473E+01  0.3307E+02
     14.535  0.1579E+01  0.3325E+02
     14.653  0.1582E+01  0.3344E+02
     14.771  0.1747E+01  0.3363E+02
     14.889  0.1903E+01  0.3385E+02
     15.006  0.2101E+01  0.3408E+02
     15.124  0.2273E+01  0.3433E+02
     15.242  0.2376E+01  0.3461E+02
     15.360  0.2150E+01  0.3487E+02
     15.478  0.2133E+01  0.3513E+02
     15.595  0.2169E+01  0.3538E+02
     15.713  0.2283E+01  0.3564E+02
     15.831  0.2431E+01  0.3592E+02
     15.949  0.2611E+01  0.3622E+02
     16.066  0.2800E+01  0.3653E+02
     16.184  0.2910E+01  0.3687E+02
     16.302  0.2949E+01  0.3722E+02
     16.420  0.3076E+01  0.3757E+02
     16.538  0.3273E+01  0.3794E+02
     16.655  0.3667E+01  0.3836E+02
     16.773  0.3874E+01  0.3880E+02
     16.891  0.4356E+01  0.3928E+02
     17.009  0.4762E+01  0.3981E+02
     17.126  0.5080E+01  0.4040E+02
     17.244  0.4423E+01  0.4095E+02
     17.362  0.4105E+01  0.4140E+02
     17.480  0.4281E+01  0.4192E+02
     17.598  0.3597E+01  0.4238E+02
     17.715  0.3645E+01  0.4280E+02
     17.833  0.3928E+01  0.4325E+02
     17.951  0.3968E+01  0.4372E+02
     18.069  0.3075E+01  0.4413E+02
     18.186  0.2780E+01  0.4447E+02
     18.304  0.2610E+01  0.4479E+02
     18.422  0.2540E+01  0.4509E+02
     18.540  0.2686E+01  0.4540E+02
     18.658  0.2887E+01  0.4573E+02
     18.775  0.2843E+01  0.4607E+02
     18.893  0.2869E+01  0.4640E+02
     19.011  0.2798E+01  0.4674E+02
     19.129  0.2568E+01  0.4705E+02
     19.246  0.2092E+01  0.4733E+02
     19.364  0.1797E+01  0.4755E+02
     19.482  0.1180E+01  0.4773E+02
     19.600  0.6619E+00  0.4784E+02
     19.718  0.3889E+00  0.4790E+02
     19.835  0.2770E+00  0.4794E+02
     19.953  0.1918E+00  0.4796E+02
     20.071  0.1314E+00  0.4798E+02
     20.189  0.7292E-01  0.4799E+02
     20.306  0.1510E-01  0.4800E+02
     20.424  0.0000E+00  0.4800E+02
     20.542  0.0000E+00  0.4800E+02
     20.660  0.0000E+00  0.4800E+02
     20.778  0.0000E+00  0.4800E+02
     20.895  0.0000E+00  0.4800E+02
     21.013  0.0000E+00  0.4800E+02
     21.131  0.0000E+00  0.4800E+02
     21.249  0.0000E+00  0.4800E+02
     21.366  0.0000E+00  0.4800E+02
     21.484  0.0000E+00  0.4800E+02
     21.602  0.0000E+00  0.4800E+02
     21.720  0.0000E+00  0.4800E+02
     21.838  0.0000E+00  0.4800E+02
     21.955  0.0000E+00  0.4800E+02
