 vasp.5.4.4.18Apr17-6-g9f103f2a35 (build Mar 12 2022 03:36:41) complex          
  
 executed on IFC19.0.3.199_CrayMP date 2022.12.01  10:41:59
 running on   16 total cores
 distrk:  each k-point on   16 cores,    1 groups
 distr:  one band on NCORES_PER_BAND=   4 cores,    4 groups


--------------------------------------------------------------------------------------------------------


 INCAR:
 POTCAR:   PAW_PBE C 08Apr2002                    
 POTCAR:   PAW_PBE C 08Apr2002                    
   VRHFIN =C: s2p2                                                              
   LEXCH  = PE                                                                  
   EATOM  =   147.1560 eV,   10.8157 Ry                                         
                                                                                
   TITEL  = PAW_PBE C 08Apr2002                                                 
   LULTRA =        F    use ultrasoft PP ?                                      
   IUNSCR =        0    unscreen: 0-lin 1-nonlin 2-no                           
   RPACOR =     .000    partial core radius                                     
   POMASS =   12.011; ZVAL   =    4.000    mass and valenz                      
   RCORE  =    1.500    outmost cutoff radius                                   
   RWIGS  =    1.630; RWIGS  =     .863    wigner-seitz radius (au A)           
   ENMAX  =  400.000; ENMIN  =  300.000 eV                                      
   ICORE  =        2    local potential                                         
   LCOR   =        T    correct aug charges                                     
   LPAW   =        T    paw PP                                                  
   EAUG   =  644.873                                                            
   DEXC   =     .000                                                            
   RMAX   =    2.266    core radius for proj-oper                               
   RAUG   =    1.300    factor for augmentation sphere                          
   RDEP   =    1.501    radius for radial grids                                 
   RDEPT  =    1.300    core radius for aug-charge                              
   QCUT   =   -5.516; QGAM   =   11.032    optimization parameters              
                                                                                
   Description                                                                  
     l     E      TYP  RCUT    TYP  RCUT                                        
     0   .000     23  1.200                                                     
     0   .000     23  1.200                                                     
     1   .000     23  1.500                                                     
     1  2.500     23  1.500                                                     
     2   .000      7  1.500                                                     
  local pseudopotential read in
  atomic valenz-charges read in
  non local Contribution for L=           0  read in
    real space projection operators read in
  non local Contribution for L=           0  read in
    real space projection operators read in
  non local Contribution for L=           1  read in
    real space projection operators read in
  non local Contribution for L=           1  read in
    real space projection operators read in
    PAW grid and wavefunctions read in
 
   number of l-projection  operators is LMAX  =           4
   number of lm-projection operators is LMMAX =           8
 
 PAW_PBE C 08Apr2002                    :
 energy of atom  1       EATOM= -147.1560
 kinetic energy error for atom=    0.0288 (will be added to EATOM!!)
 
 
 POSCAR: C8                                      
  positions in direct lattice
  No initial velocities read in
 exchange correlation table for  LEXCH =        8
   RHO(1)=    0.500       N(1)  =     2000
   RHO(2)=  100.500       N(2)  =     4000
 


--------------------------------------------------------------------------------------------------------


 ion  position               nearest neighbor table
   1  0.250  0.750  0.250-   2 1.57   4 1.57   6 1.57   8 1.57
   2  0.000  0.000  0.500-   1 1.57   3 1.57   5 1.57   7 1.57
   3  0.250  0.250  0.750-   2 1.57   4 1.57   6 1.57   8 1.57
   4  0.000  0.500  0.000-   1 1.57   3 1.57   5 1.57   7 1.57
   5  0.750  0.750  0.750-   2 1.57   4 1.57   6 1.57   8 1.57
   6  0.500  0.000  0.000-   1 1.57   3 1.57   5 1.57   7 1.57
   7  0.750  0.250  0.250-   2 1.57   4 1.57   6 1.57   8 1.57
   8  0.500  0.500  0.500-   1 1.57   3 1.57   5 1.57   7 1.57
 
  LATTYP: Found a simple cubic cell.
 ALAT       =     3.6257214453
  
  Lattice vectors:
  
 A1 = (   3.6257214453,   0.0000000000,   0.0000000000)
 A2 = (   0.0000000000,   3.6257214453,   0.0000000000)
 A3 = (   0.0000000000,   0.0000000000,   3.6257214453)


Analysis of symmetry for initial positions (statically):
=====================================================================
 Subroutine PRICEL returns following result:
 
  LATTYP: Found a face centered cubic cell.
 ALAT       =     3.6257214453
  
  Lattice vectors:
  
 A1 = (   1.8128607227,   1.8128607227,   0.0000000000)
 A2 = (   1.8128607227,   0.0000000000,  -1.8128607227)
 A3 = (   0.0000000000,   1.8128607227,  -1.8128607227)
 
   4 primitive cells build up your supercell.
 

 Routine SETGRP: Setting up the symmetry group for a 
 simple cubic supercell.


 Subroutine GETGRP returns: Found 48 space group operations
 (whereof 24 operations were pure point group operations)
 out of a pool of 48 trial point group operations.


The static configuration has the point symmetry T_d .
 The point group associated with its full space group is O_h .


Analysis of symmetry for dynamics (positions and initial velocities):
=====================================================================
 Subroutine PRICEL returns following result:
 
  LATTYP: Found a face centered cubic cell.
 ALAT       =     3.6257214453
  
  Lattice vectors:
  
 A1 = (   1.8128607227,   1.8128607227,   0.0000000000)
 A2 = (   1.8128607227,   0.0000000000,  -1.8128607227)
 A3 = (   0.0000000000,   1.8128607227,  -1.8128607227)
 
   4 primitive cells build up your supercell.
 

 Routine SETGRP: Setting up the symmetry group for a 
 simple cubic supercell.


 Subroutine GETGRP returns: Found 48 space group operations
 (whereof 24 operations were pure point group operations)
 out of a pool of 48 trial point group operations.


The dynamic configuration has the point symmetry T_d .
 The point group associated with its full space group is O_h .


 Subroutine INISYM returns: Found 48 space group operations
 (whereof 24 operations are pure point group operations),
 and found     4 'primitive' translations

 
 
 KPOINTS: kpt_density=1000                        

Automatic generation of k-mesh.
Space group operators:
 irot       det(A)        alpha          n_x          n_y          n_z        tau_x        tau_y        tau_z
    1     1.000000     0.000001     1.000000     0.000000     0.000000     0.000000     0.000000     0.000000
    2     1.000000   120.000000    -0.577350    -0.577350    -0.577350     0.000000     0.000000     0.000000
    3     1.000000   120.000000     0.577350     0.577350     0.577350     0.000000     0.000000     0.000000
    4    -1.000000    90.000000     0.000000     0.000000    -1.000000     0.000000     0.000000     0.000000
    5    -1.000000   180.000000     0.000000     0.707107     0.707107     0.000000     0.000000     0.000000
    6    -1.000000    90.000000     0.000000     1.000000     0.000000     0.000000     0.000000     0.000000
    7     1.000000   180.000000     0.000000     0.000000     1.000000     0.000000     0.000000     0.000000
    8     1.000000   120.000000    -0.577350     0.577350     0.577350     0.000000     0.000000     0.000000
    9     1.000000   120.000000    -0.577350     0.577350    -0.577350     0.000000     0.000000     0.000000
   10    -1.000000    90.000000     0.000000     0.000000     1.000000     0.000000     0.000000     0.000000
   11    -1.000000    90.000000    -1.000000     0.000000     0.000000     0.000000     0.000000     0.000000
   12    -1.000000   180.000000     0.707107     0.000000     0.707107     0.000000     0.000000     0.000000
   13     1.000000   120.000000     0.577350    -0.577350     0.577350     0.000000     0.000000     0.000000
   14     1.000000   120.000000    -0.577350    -0.577350     0.577350     0.000000     0.000000     0.000000
   15     1.000000   180.000000     1.000000     0.000000     0.000000     0.000000     0.000000     0.000000
   16    -1.000000    90.000000     0.000000    -1.000000     0.000000     0.000000     0.000000     0.000000
   17    -1.000000   180.000000     0.707107     0.707107     0.000000     0.000000     0.000000     0.000000
   18    -1.000000    90.000000     1.000000     0.000000     0.000000     0.000000     0.000000     0.000000
   19     1.000000   120.000000     0.577350    -0.577350    -0.577350     0.000000     0.000000     0.000000
   20     1.000000   180.000000     0.000000     1.000000     0.000000     0.000000     0.000000     0.000000
   21     1.000000   120.000000     0.577350     0.577350    -0.577350     0.000000     0.000000     0.000000
   22    -1.000000   180.000000     0.000000    -0.707107     0.707107     0.000000     0.000000     0.000000
   23    -1.000000   180.000000     0.707107    -0.707107     0.000000     0.000000     0.000000     0.000000
   24    -1.000000   180.000000     0.707107     0.000000    -0.707107     0.000000     0.000000     0.000000
   25    -1.000000     0.000001     1.000000     0.000000     0.000000     0.750000     0.750000    -0.750000
   26    -1.000000   120.000000    -0.577350    -0.577350    -0.577350     0.750000     0.750000    -0.750000
   27    -1.000000   120.000000     0.577350     0.577350     0.577350     0.750000     0.750000    -0.750000
   28     1.000000    90.000000     0.000000     0.000000    -1.000000     0.750000     0.750000    -0.750000
   29     1.000000   180.000000     0.000000     0.707107     0.707107     0.750000     0.750000    -0.750000
   30     1.000000    90.000000     0.000000     1.000000     0.000000     0.750000     0.750000    -0.750000
   31    -1.000000   180.000000     0.000000     0.000000     1.000000     0.750000     0.750000    -0.750000
   32    -1.000000   120.000000    -0.577350     0.577350     0.577350     0.750000     0.750000    -0.750000
   33    -1.000000   120.000000    -0.577350     0.577350    -0.577350     0.750000     0.750000    -0.750000
   34     1.000000    90.000000     0.000000     0.000000     1.000000     0.750000     0.750000    -0.750000
   35     1.000000    90.000000    -1.000000     0.000000     0.000000     0.750000     0.750000    -0.750000
   36     1.000000   180.000000     0.707107     0.000000     0.707107     0.750000     0.750000    -0.750000
   37    -1.000000   120.000000     0.577350    -0.577350     0.577350     0.750000     0.750000    -0.750000
   38    -1.000000   120.000000    -0.577350    -0.577350     0.577350     0.750000     0.750000    -0.750000
   39    -1.000000   180.000000     1.000000     0.000000     0.000000     0.750000     0.750000    -0.750000
   40     1.000000    90.000000     0.000000    -1.000000     0.000000     0.750000     0.750000    -0.750000
   41     1.000000   180.000000     0.707107     0.707107     0.000000     0.750000     0.750000    -0.750000
   42     1.000000    90.000000     1.000000     0.000000     0.000000     0.750000     0.750000    -0.750000
   43    -1.000000   120.000000     0.577350    -0.577350    -0.577350     0.750000     0.750000    -0.750000
   44    -1.000000   180.000000     0.000000     1.000000     0.000000     0.750000     0.750000    -0.750000
   45    -1.000000   120.000000     0.577350     0.577350    -0.577350     0.750000     0.750000    -0.750000
   46     1.000000   180.000000     0.000000    -0.707107     0.707107     0.750000     0.750000    -0.750000
   47     1.000000   180.000000     0.707107    -0.707107     0.000000     0.750000     0.750000    -0.750000
   48     1.000000   180.000000     0.707107     0.000000    -0.707107     0.750000     0.750000    -0.750000
 
 Subroutine IBZKPT returns following result:
 ===========================================
 
 Found     84 irreducible k-points:
 
 Following reciprocal coordinates:
            Coordinates               Weight
  0.000000  0.000000  0.000000      1.000000
  0.083333  0.000000  0.000000      6.000000
  0.166667  0.000000  0.000000      6.000000
  0.250000  0.000000  0.000000      6.000000
  0.333333  0.000000  0.000000      6.000000
  0.416667  0.000000  0.000000      6.000000
  0.500000  0.000000  0.000000      3.000000
  0.083333  0.083333  0.000000     12.000000
  0.166667  0.083333  0.000000     24.000000
  0.250000  0.083333  0.000000     24.000000
  0.333333  0.083333  0.000000     24.000000
  0.416667  0.083333  0.000000     24.000000
  0.500000  0.083333  0.000000     12.000000
  0.166667  0.166667  0.000000     12.000000
  0.250000  0.166667  0.000000     24.000000
  0.333333  0.166667  0.000000     24.000000
  0.416667  0.166667  0.000000     24.000000
  0.500000  0.166667  0.000000     12.000000
  0.250000  0.250000  0.000000     12.000000
  0.333333  0.250000  0.000000     24.000000
  0.416667  0.250000  0.000000     24.000000
  0.500000  0.250000  0.000000     12.000000
  0.333333  0.333333  0.000000     12.000000
  0.416667  0.333333  0.000000     24.000000
  0.500000  0.333333  0.000000     12.000000
  0.416667  0.416667  0.000000     12.000000
  0.500000  0.416667  0.000000     12.000000
  0.500000  0.500000  0.000000      3.000000
  0.083333  0.083333  0.083333      8.000000
  0.166667  0.083333  0.083333     24.000000
  0.250000  0.083333  0.083333     24.000000
  0.333333  0.083333  0.083333     24.000000
  0.416667  0.083333  0.083333     24.000000
  0.500000  0.083333  0.083333     12.000000
  0.166667  0.166667  0.083333     24.000000
  0.250000  0.166667  0.083333     48.000000
  0.333333  0.166667  0.083333     48.000000
  0.416667  0.166667  0.083333     48.000000
  0.500000  0.166667  0.083333     24.000000
  0.250000  0.250000  0.083333     24.000000
  0.333333  0.250000  0.083333     48.000000
  0.416667  0.250000  0.083333     48.000000
  0.500000  0.250000  0.083333     24.000000
  0.333333  0.333333  0.083333     24.000000
  0.416667  0.333333  0.083333     48.000000
  0.500000  0.333333  0.083333     24.000000
  0.416667  0.416667  0.083333     24.000000
  0.500000  0.416667  0.083333     24.000000
  0.500000  0.500000  0.083333      6.000000
  0.166667  0.166667  0.166667      8.000000
  0.250000  0.166667  0.166667     24.000000
  0.333333  0.166667  0.166667     24.000000
  0.416667  0.166667  0.166667     24.000000
  0.500000  0.166667  0.166667     12.000000
  0.250000  0.250000  0.166667     24.000000
  0.333333  0.250000  0.166667     48.000000
  0.416667  0.250000  0.166667     48.000000
  0.500000  0.250000  0.166667     24.000000
  0.333333  0.333333  0.166667     24.000000
  0.416667  0.333333  0.166667     48.000000
  0.500000  0.333333  0.166667     24.000000
  0.416667  0.416667  0.166667     24.000000
  0.500000  0.416667  0.166667     24.000000
  0.500000  0.500000  0.166667      6.000000
  0.250000  0.250000  0.250000      8.000000
  0.333333  0.250000  0.250000     24.000000
  0.416667  0.250000  0.250000     24.000000
  0.500000  0.250000  0.250000     12.000000
  0.333333  0.333333  0.250000     24.000000
  0.416667  0.333333  0.250000     48.000000
  0.500000  0.333333  0.250000     24.000000
  0.416667  0.416667  0.250000     24.000000
  0.500000  0.416667  0.250000     24.000000
  0.500000  0.500000  0.250000      6.000000
  0.333333  0.333333  0.333333      8.000000
  0.416667  0.333333  0.333333     24.000000
  0.500000  0.333333  0.333333     12.000000
  0.416667  0.416667  0.333333     24.000000
  0.500000  0.416667  0.333333     24.000000
  0.500000  0.500000  0.333333      6.000000
  0.416667  0.416667  0.416667      8.000000
  0.500000  0.416667  0.416667     12.000000
  0.500000  0.500000  0.416667      6.000000
  0.500000  0.500000  0.500000      1.000000
 
 Following cartesian coordinates:
            Coordinates               Weight
  0.000000  0.000000  0.000000      1.000000
  0.023089  0.000000  0.000000      6.000000
  0.046177  0.000000  0.000000      6.000000
  0.069266  0.000000  0.000000      6.000000
  0.092355  0.000000  0.000000      6.000000
  0.115443  0.000000  0.000000      6.000000
  0.138532  0.000000  0.000000      3.000000
  0.023089  0.023089  0.000000     12.000000
  0.046177  0.023089  0.000000     24.000000
  0.069266  0.023089  0.000000     24.000000
  0.092355  0.023089  0.000000     24.000000
  0.115443  0.023089  0.000000     24.000000
  0.138532  0.023089  0.000000     12.000000
  0.046177  0.046177  0.000000     12.000000
  0.069266  0.046177  0.000000     24.000000
  0.092355  0.046177  0.000000     24.000000
  0.115443  0.046177  0.000000     24.000000
  0.138532  0.046177  0.000000     12.000000
  0.069266  0.069266  0.000000     12.000000
  0.092355  0.069266  0.000000     24.000000
  0.115443  0.069266  0.000000     24.000000
  0.138532  0.069266  0.000000     12.000000
  0.092355  0.092355  0.000000     12.000000
  0.115443  0.092355  0.000000     24.000000
  0.138532  0.092355  0.000000     12.000000
  0.115443  0.115443  0.000000     12.000000
  0.138532  0.115443  0.000000     12.000000
  0.138532  0.138532  0.000000      3.000000
  0.023089  0.023089  0.023089      8.000000
  0.046177  0.023089  0.023089     24.000000
  0.069266  0.023089  0.023089     24.000000
  0.092355  0.023089  0.023089     24.000000
  0.115443  0.023089  0.023089     24.000000
  0.138532  0.023089  0.023089     12.000000
  0.046177  0.046177  0.023089     24.000000
  0.069266  0.046177  0.023089     48.000000
  0.092355  0.046177  0.023089     48.000000
  0.115443  0.046177  0.023089     48.000000
  0.138532  0.046177  0.023089     24.000000
  0.069266  0.069266  0.023089     24.000000
  0.092355  0.069266  0.023089     48.000000
  0.115443  0.069266  0.023089     48.000000
  0.138532  0.069266  0.023089     24.000000
  0.092355  0.092355  0.023089     24.000000
  0.115443  0.092355  0.023089     48.000000
  0.138532  0.092355  0.023089     24.000000
  0.115443  0.115443  0.023089     24.000000
  0.138532  0.115443  0.023089     24.000000
  0.138532  0.138532  0.023089      6.000000
  0.046177  0.046177  0.046177      8.000000
  0.069266  0.046177  0.046177     24.000000
  0.092355  0.046177  0.046177     24.000000
  0.115443  0.046177  0.046177     24.000000
  0.138532  0.046177  0.046177     12.000000
  0.069266  0.069266  0.046177     24.000000
  0.092355  0.069266  0.046177     48.000000
  0.115443  0.069266  0.046177     48.000000
  0.138532  0.069266  0.046177     24.000000
  0.092355  0.092355  0.046177     24.000000
  0.115443  0.092355  0.046177     48.000000
  0.138532  0.092355  0.046177     24.000000
  0.115443  0.115443  0.046177     24.000000
  0.138532  0.115443  0.046177     24.000000
  0.138532  0.138532  0.046177      6.000000
  0.069266  0.069266  0.069266      8.000000
  0.092355  0.069266  0.069266     24.000000
  0.115443  0.069266  0.069266     24.000000
  0.138532  0.069266  0.069266     12.000000
  0.092355  0.092355  0.069266     24.000000
  0.115443  0.092355  0.069266     48.000000
  0.138532  0.092355  0.069266     24.000000
  0.115443  0.115443  0.069266     24.000000
  0.138532  0.115443  0.069266     24.000000
  0.138532  0.138532  0.069266      6.000000
  0.092355  0.092355  0.092355      8.000000
  0.115443  0.092355  0.092355     24.000000
  0.138532  0.092355  0.092355     12.000000
  0.115443  0.115443  0.092355     24.000000
  0.138532  0.115443  0.092355     24.000000
  0.138532  0.138532  0.092355      6.000000
  0.115443  0.115443  0.115443      8.000000
  0.138532  0.115443  0.115443     12.000000
  0.138532  0.138532  0.115443      6.000000
  0.138532  0.138532  0.138532      1.000000
 
 TETIRR: Found    854 inequivalent tetrahedra from    10368


--------------------------------------------------------------------------------------------------------




 Dimension of arrays:
   k-points           NKPTS =     84   k-points in BZ     NKDIM =     84   number of bands    NBANDS=     24
   number of dos      NEDOS =    301   number of ions     NIONS =      8
   non local maximal  LDIM  =      4   non local SUM 2l+1 LMDIM =      8
   total plane-waves  NPLWV =  13824
   max r-space proj   IRMAX =      1   max aug-charges    IRDMAX=   3622
   dimension x,y,z NGX =    24 NGY =   24 NGZ =   24
   dimension x,y,z NGXF=    48 NGYF=   48 NGZF=   48
   support grid    NGXF=    48 NGYF=   48 NGZF=   48
   ions per type =               8
   NGX,Y,Z   is equivalent  to a cutoff of  11.00, 11.00, 11.00 a.u.
   NGXF,Y,Z  is equivalent  to a cutoff of  22.01, 22.01, 22.01 a.u.

 SYSTEM =  unknown system                          
 POSCAR =  C8                                      

 Startparameter for this run:
   NWRITE =      2    write-flag & timer
   PREC   = accura    normal or accurate (medium, high low for compatibility)
   ISTART =      0    job   : 0-new  1-cont  2-samecut
   ICHARG =      2    charge: 1-file 2-atom 10-const
   ISPIN  =      1    spin polarized calculation?
   LNONCOLLINEAR =      F non collinear calculations
   LSORBIT =      F    spin-orbit coupling
   INIWAV =      1    electr: 0-lowe 1-rand  2-diag
   LASPH  =      F    aspherical Exc in radial PAW
   METAGGA=      F    non-selfconsistent MetaGGA calc.

 Electronic Relaxation 1
   ENCUT  =  400.0 eV  29.40 Ry    5.42 a.u.   5.91  5.91  5.91*2*pi/ulx,y,z
   ENINI  =  400.0     initial cutoff
   ENAUG  =  644.9 eV  augmentation charge cutoff
   NELM   =     60;   NELMIN=  2; NELMDL= -5     # of ELM steps 
   EDIFF  = 0.1E-05   stopping-criterion for ELM
   LREAL  =      F    real-space projection
   NLSPLINE    = F    spline interpolate recip. space projectors
   LCOMPAT=      F    compatible to vasp.4.4
   GGA_COMPAT  = T    GGA compatible to vasp.4.4-vasp.4.6
   LMAXPAW     = -100 max onsite density
   LMAXMIX     =    2 max onsite mixed and CHGCAR
   VOSKOWN=      0    Vosko Wilk Nusair interpolation
   ROPT   =    0.00000
 Ionic relaxation
   EDIFFG = 0.1E-04   stopping-criterion for IOM
   NSW    =      0    number of steps for IOM
   NBLOCK =      1;   KBLOCK =      1    inner block; outer block 
   IBRION =     -1    ionic relax: 0-MD 1-quasi-New 2-CG
   NFREE  =      0    steps in history (QN), initial steepest desc. (CG)
   ISIF   =      2    stress and relaxation
   IWAVPR =     10    prediction:  0-non 1-charg 2-wave 3-comb
   ISYM   =      2    0-nonsym 1-usesym 2-fastsym
   LCORR  =      T    Harris-Foulkes like correction to forces

   POTIM  = 0.0200    time-step for ionic-motion
   TEIN   =    0.0    initial temperature
   TEBEG  =    0.0;   TEEND  =   0.0 temperature during run
   SMASS  =  -3.00    Nose mass-parameter (am)
   estimated Nose-frequenzy (Omega)   =  0.10E-29 period in steps =****** mass=  -0.300E-27a.u.
   SCALEE = 1.0000    scale energy and forces
   NPACO  =    256;   APACO  = 16.0  distance and # of slots for P.C.
   PSTRESS=    0.0 pullay stress

  Mass of Ions in am
   POMASS =  12.01
  Ionic Valenz
   ZVAL   =   4.00
  Atomic Wigner-Seitz radii
   RWIGS  =  -1.00
  virtual crystal weights 
   VCA    =   1.00
   NELECT =      32.0000    total number of electrons
   NUPDOWN=      -1.0000    fix difference up-down

 DOS related values:
   EMIN   =  10.00;   EMAX   =-10.00  energy-range for DOS
   EFERMI =   0.00
   ISMEAR =    -5;   SIGMA  =   0.06  broadening in eV -4-tet -1-fermi 0-gaus

 Electronic relaxation 2 (details)
   IALGO  =     38    algorithm
   LDIAG  =      T    sub-space diagonalisation (order eigenvalues)
   LSUBROT=      F    optimize rotation matrix (better conditioning)
   TURBO    =      0    0=normal 1=particle mesh
   IRESTART =      0    0=no restart 2=restart with 2 vectors
   NREBOOT  =      0    no. of reboots
   NMIN     =      0    reboot dimension
   EREF     =   0.00    reference energy to select bands
   IMIX   =      4    mixing-type and parameters
     AMIX     =   0.40;   BMIX     =  1.00
     AMIX_MAG =   1.60;   BMIX_MAG =  1.00
     AMIN     =   0.10
     WC   =   100.;   INIMIX=   1;  MIXPRE=   1;  MAXMIX= -45

 Intra band minimization:
   WEIMIN = 0.0000     energy-eigenvalue tresh-hold
   EBREAK =  0.10E-07  absolut break condition
   DEPER  =   0.30     relativ break condition  

   TIME   =   0.40     timestep for ELM

  volume/ion in A,a.u.               =       5.96        40.21
  Fermi-wavevector in a.u.,A,eV,Ry     =   1.433498  2.708918 27.958832  2.054916
  Thomas-Fermi vector in A             =   2.553009
 
 Write flags
   LWAVE        =      F    write WAVECAR
   LDOWNSAMPLE  =      F    k-point downsampling of WAVECAR
   LCHARG       =      F    write CHGCAR
   LVTOT        =      F    write LOCPOT, total local potential
   LVHAR        =      F    write LOCPOT, Hartree potential only
   LELF         =      F    write electronic localiz. function (ELF)
   LORBIT       =      0    0 simple, 1 ext, 2 COOP (PROOUT), +10 PAW based schemes


 Dipole corrections
   LMONO  =      F    monopole corrections only (constant potential shift)
   LDIPOL =      F    correct potential (dipole corrections)
   IDIPOL =      0    1-x, 2-y, 3-z, 4-all directions 
   EPSILON=  1.0000000 bulk dielectric constant

 Exchange correlation treatment:
   GGA     =    --    GGA type
   LEXCH   =     8    internal setting for exchange type
   VOSKOWN=      0    Vosko Wilk Nusair interpolation
   LHFCALC =     F    Hartree Fock is set to
   LHFONE  =     F    Hartree Fock one center treatment
   AEXX    =    0.0000 exact exchange contribution

 Linear response parameters
   LEPSILON=     F    determine dielectric tensor
   LRPA    =     F    only Hartree local field effects (RPA)
   LNABLA  =     F    use nabla operator in PAW spheres
   LVEL    =     F    velocity operator in full k-point grid
   LINTERFAST=   F  fast interpolation
   KINTER  =     0    interpolate to denser k-point grid
   CSHIFT  =0.1000    complex shift for real part using Kramers Kronig
   OMEGAMAX=  -1.0    maximum frequency
   DEG_THRESHOLD= 0.2000000E-02 threshold for treating states as degnerate
   RTIME   =   -0.100 relaxation time in fs
  (WPLASMAI=    0.000 imaginary part of plasma frequency in eV, 0.658/RTIME)
   DFIELD  = 0.0000000 0.0000000 0.0000000 field for delta impulse in time
 
 Orbital magnetization related:
   ORBITALMAG=     F  switch on orbital magnetization
   LCHIMAG   =     F  perturbation theory with respect to B field
   DQ        =  0.001000  dq finite difference perturbation B field
   LLRAUG    =     F  two centre corrections for induced B field



--------------------------------------------------------------------------------------------------------


 Static calculation
 charge density and potential will be updated during run
 non-spin polarized calculation
 Variant of blocked Davidson
 Davidson routine will perform the subspace rotation
 perform sub-space diagonalisation
    after iterative eigenvector-optimisation
 modified Broyden-mixing scheme, WC =      100.0
 initial mixing is a Kerker type mixing with AMIX =  0.4000 and BMIX =      1.0000
 Hartree-type preconditioning will be used
 using additional bands            8
 reciprocal scheme for non local part
 calculate Harris-corrections to forces 
   (improved forces if not selfconsistent)
 use gradient corrections 
 use of overlap-Matrix (Vanderbilt PP)
 Fermi weights with tetrahedron method with Bloechl corrections


--------------------------------------------------------------------------------------------------------


  energy-cutoff  :      400.00
  volume of cell :       47.66
      direct lattice vectors                 reciprocal lattice vectors
     3.625721445  0.000000000  0.000000000     0.275807178  0.000000000  0.000000000
     0.000000000  3.625721445  0.000000000     0.000000000  0.275807178  0.000000000
     0.000000000  0.000000000  3.625721445     0.000000000  0.000000000  0.275807178

  length of vectors
     3.625721445  3.625721445  3.625721445     0.275807178  0.275807178  0.275807178


 
 k-points in units of 2pi/SCALE and weight: kpt_density=1000                        
   0.00000000  0.00000000  0.00000000       0.001
   0.02308869  0.00000000  0.00000000       0.003
   0.04617739  0.00000000  0.00000000       0.003
   0.06926608  0.00000000  0.00000000       0.003
   0.09235478  0.00000000  0.00000000       0.003
   0.11544347  0.00000000  0.00000000       0.003
   0.13853217  0.00000000  0.00000000       0.002
   0.02308869  0.02308869  0.00000000       0.007
   0.04617739  0.02308869  0.00000000       0.014
   0.06926608  0.02308869  0.00000000       0.014
   0.09235478  0.02308869  0.00000000       0.014
   0.11544347  0.02308869  0.00000000       0.014
   0.13853217  0.02308869  0.00000000       0.007
   0.04617739  0.04617739  0.00000000       0.007
   0.06926608  0.04617739  0.00000000       0.014
   0.09235478  0.04617739  0.00000000       0.014
   0.11544347  0.04617739  0.00000000       0.014
   0.13853217  0.04617739  0.00000000       0.007
   0.06926608  0.06926608  0.00000000       0.007
   0.09235478  0.06926608  0.00000000       0.014
   0.11544347  0.06926608  0.00000000       0.014
   0.13853217  0.06926608  0.00000000       0.007
   0.09235478  0.09235478  0.00000000       0.007
   0.11544347  0.09235478  0.00000000       0.014
   0.13853217  0.09235478  0.00000000       0.007
   0.11544347  0.11544347  0.00000000       0.007
   0.13853217  0.11544347  0.00000000       0.007
   0.13853217  0.13853217  0.00000000       0.002
   0.02308869  0.02308869  0.02308869       0.005
   0.04617739  0.02308869  0.02308869       0.014
   0.06926608  0.02308869  0.02308869       0.014
   0.09235478  0.02308869  0.02308869       0.014
   0.11544347  0.02308869  0.02308869       0.014
   0.13853217  0.02308869  0.02308869       0.007
   0.04617739  0.04617739  0.02308869       0.014
   0.06926608  0.04617739  0.02308869       0.028
   0.09235478  0.04617739  0.02308869       0.028
   0.11544347  0.04617739  0.02308869       0.028
   0.13853217  0.04617739  0.02308869       0.014
   0.06926608  0.06926608  0.02308869       0.014
   0.09235478  0.06926608  0.02308869       0.028
   0.11544347  0.06926608  0.02308869       0.028
   0.13853217  0.06926608  0.02308869       0.014
   0.09235478  0.09235478  0.02308869       0.014
   0.11544347  0.09235478  0.02308869       0.028
   0.13853217  0.09235478  0.02308869       0.014
   0.11544347  0.11544347  0.02308869       0.014
   0.13853217  0.11544347  0.02308869       0.014
   0.13853217  0.13853217  0.02308869       0.003
   0.04617739  0.04617739  0.04617739       0.005
   0.06926608  0.04617739  0.04617739       0.014
   0.09235478  0.04617739  0.04617739       0.014
   0.11544347  0.04617739  0.04617739       0.014
   0.13853217  0.04617739  0.04617739       0.007
   0.06926608  0.06926608  0.04617739       0.014
   0.09235478  0.06926608  0.04617739       0.028
   0.11544347  0.06926608  0.04617739       0.028
   0.13853217  0.06926608  0.04617739       0.014
   0.09235478  0.09235478  0.04617739       0.014
   0.11544347  0.09235478  0.04617739       0.028
   0.13853217  0.09235478  0.04617739       0.014
   0.11544347  0.11544347  0.04617739       0.014
   0.13853217  0.11544347  0.04617739       0.014
   0.13853217  0.13853217  0.04617739       0.003
   0.06926608  0.06926608  0.06926608       0.005
   0.09235478  0.06926608  0.06926608       0.014
   0.11544347  0.06926608  0.06926608       0.014
   0.13853217  0.06926608  0.06926608       0.007
   0.09235478  0.09235478  0.06926608       0.014
   0.11544347  0.09235478  0.06926608       0.028
   0.13853217  0.09235478  0.06926608       0.014
   0.11544347  0.11544347  0.06926608       0.014
   0.13853217  0.11544347  0.06926608       0.014
   0.13853217  0.13853217  0.06926608       0.003
   0.09235478  0.09235478  0.09235478       0.005
   0.11544347  0.09235478  0.09235478       0.014
   0.13853217  0.09235478  0.09235478       0.007
   0.11544347  0.11544347  0.09235478       0.014
   0.13853217  0.11544347  0.09235478       0.014
   0.13853217  0.13853217  0.09235478       0.003
   0.11544347  0.11544347  0.11544347       0.005
   0.13853217  0.11544347  0.11544347       0.007
   0.13853217  0.13853217  0.11544347       0.003
   0.13853217  0.13853217  0.13853217       0.001
 
 k-points in reciprocal lattice and weights: kpt_density=1000                        
   0.00000000  0.00000000  0.00000000       0.001
   0.08333333  0.00000000  0.00000000       0.003
   0.16666667  0.00000000  0.00000000       0.003
   0.25000000  0.00000000  0.00000000       0.003
   0.33333333  0.00000000  0.00000000       0.003
   0.41666667  0.00000000  0.00000000       0.003
   0.50000000  0.00000000  0.00000000       0.002
   0.08333333  0.08333333  0.00000000       0.007
   0.16666667  0.08333333  0.00000000       0.014
   0.25000000  0.08333333  0.00000000       0.014
   0.33333333  0.08333333  0.00000000       0.014
   0.41666667  0.08333333  0.00000000       0.014
   0.50000000  0.08333333  0.00000000       0.007
   0.16666667  0.16666667  0.00000000       0.007
   0.25000000  0.16666667  0.00000000       0.014
   0.33333333  0.16666667  0.00000000       0.014
   0.41666667  0.16666667  0.00000000       0.014
   0.50000000  0.16666667  0.00000000       0.007
   0.25000000  0.25000000  0.00000000       0.007
   0.33333333  0.25000000  0.00000000       0.014
   0.41666667  0.25000000  0.00000000       0.014
   0.50000000  0.25000000  0.00000000       0.007
   0.33333333  0.33333333  0.00000000       0.007
   0.41666667  0.33333333  0.00000000       0.014
   0.50000000  0.33333333  0.00000000       0.007
   0.41666667  0.41666667  0.00000000       0.007
   0.50000000  0.41666667  0.00000000       0.007
   0.50000000  0.50000000  0.00000000       0.002
   0.08333333  0.08333333  0.08333333       0.005
   0.16666667  0.08333333  0.08333333       0.014
   0.25000000  0.08333333  0.08333333       0.014
   0.33333333  0.08333333  0.08333333       0.014
   0.41666667  0.08333333  0.08333333       0.014
   0.50000000  0.08333333  0.08333333       0.007
   0.16666667  0.16666667  0.08333333       0.014
   0.25000000  0.16666667  0.08333333       0.028
   0.33333333  0.16666667  0.08333333       0.028
   0.41666667  0.16666667  0.08333333       0.028
   0.50000000  0.16666667  0.08333333       0.014
   0.25000000  0.25000000  0.08333333       0.014
   0.33333333  0.25000000  0.08333333       0.028
   0.41666667  0.25000000  0.08333333       0.028
   0.50000000  0.25000000  0.08333333       0.014
   0.33333333  0.33333333  0.08333333       0.014
   0.41666667  0.33333333  0.08333333       0.028
   0.50000000  0.33333333  0.08333333       0.014
   0.41666667  0.41666667  0.08333333       0.014
   0.50000000  0.41666667  0.08333333       0.014
   0.50000000  0.50000000  0.08333333       0.003
   0.16666667  0.16666667  0.16666667       0.005
   0.25000000  0.16666667  0.16666667       0.014
   0.33333333  0.16666667  0.16666667       0.014
   0.41666667  0.16666667  0.16666667       0.014
   0.50000000  0.16666667  0.16666667       0.007
   0.25000000  0.25000000  0.16666667       0.014
   0.33333333  0.25000000  0.16666667       0.028
   0.41666667  0.25000000  0.16666667       0.028
   0.50000000  0.25000000  0.16666667       0.014
   0.33333333  0.33333333  0.16666667       0.014
   0.41666667  0.33333333  0.16666667       0.028
   0.50000000  0.33333333  0.16666667       0.014
   0.41666667  0.41666667  0.16666667       0.014
   0.50000000  0.41666667  0.16666667       0.014
   0.50000000  0.50000000  0.16666667       0.003
   0.25000000  0.25000000  0.25000000       0.005
   0.33333333  0.25000000  0.25000000       0.014
   0.41666667  0.25000000  0.25000000       0.014
   0.50000000  0.25000000  0.25000000       0.007
   0.33333333  0.33333333  0.25000000       0.014
   0.41666667  0.33333333  0.25000000       0.028
   0.50000000  0.33333333  0.25000000       0.014
   0.41666667  0.41666667  0.25000000       0.014
   0.50000000  0.41666667  0.25000000       0.014
   0.50000000  0.50000000  0.25000000       0.003
   0.33333333  0.33333333  0.33333333       0.005
   0.41666667  0.33333333  0.33333333       0.014
   0.50000000  0.33333333  0.33333333       0.007
   0.41666667  0.41666667  0.33333333       0.014
   0.50000000  0.41666667  0.33333333       0.014
   0.50000000  0.50000000  0.33333333       0.003
   0.41666667  0.41666667  0.41666667       0.005
   0.50000000  0.41666667  0.41666667       0.007
   0.50000000  0.50000000  0.41666667       0.003
   0.50000000  0.50000000  0.50000000       0.001
 
 position of ions in fractional coordinates (direct lattice) 
   0.25000000  0.75000000  0.25000000
   0.00000000  0.00000000  0.50000000
   0.25000000  0.25000000  0.75000000
   0.00000000  0.50000000  0.00000000
   0.75000000  0.75000000  0.75000000
   0.50000000  0.00000000  0.00000000
   0.75000000  0.25000000  0.25000000
   0.50000000  0.50000000  0.50000000
 
 position of ions in cartesian coordinates  (Angst):
   0.90643036  2.71929108  0.90643036
   0.00000000  0.00000000  1.81286072
   0.90643036  0.90643036  2.71929108
   0.00000000  1.81286072  0.00000000
   2.71929108  2.71929108  2.71929108
   1.81286072  0.00000000  0.00000000
   2.71929108  0.90643036  0.90643036
   1.81286072  1.81286072  1.81286072
 


--------------------------------------------------------------------------------------------------------


 k-point  1 :   0.0000 0.0000 0.0000  plane waves:     847
 k-point  2 :   0.0833 0.0000 0.0000  plane waves:     871
 k-point  3 :   0.1667 0.0000 0.0000  plane waves:     860
 k-point  4 :   0.2500 0.0000 0.0000  plane waves:     852
 k-point  5 :   0.3333 0.0000 0.0000  plane waves:     868
 k-point  6 :   0.4167 0.0000 0.0000  plane waves:     864
 k-point  7 :   0.5000 0.0000 0.0000  plane waves:     852
 k-point  8 :   0.0833 0.0833 0.0000  plane waves:     865
 k-point  9 :   0.1667 0.0833 0.0000  plane waves:     862
 k-point 10 :   0.2500 0.0833 0.0000  plane waves:     861
 k-point 11 :   0.3333 0.0833 0.0000  plane waves:     859
 k-point 12 :   0.4167 0.0833 0.0000  plane waves:     858
 k-point 13 :   0.5000 0.0833 0.0000  plane waves:     860
 k-point 14 :   0.1667 0.1667 0.0000  plane waves:     859
 k-point 15 :   0.2500 0.1667 0.0000  plane waves:     866
 k-point 16 :   0.3333 0.1667 0.0000  plane waves:     860
 k-point 17 :   0.4167 0.1667 0.0000  plane waves:     854
 k-point 18 :   0.5000 0.1667 0.0000  plane waves:     864
 k-point 19 :   0.2500 0.2500 0.0000  plane waves:     868
 k-point 20 :   0.3333 0.2500 0.0000  plane waves:     867
 k-point 21 :   0.4167 0.2500 0.0000  plane waves:     863
 k-point 22 :   0.5000 0.2500 0.0000  plane waves:     872
 k-point 23 :   0.3333 0.3333 0.0000  plane waves:     874
 k-point 24 :   0.4167 0.3333 0.0000  plane waves:     866
 k-point 25 :   0.5000 0.3333 0.0000  plane waves:     866
 k-point 26 :   0.4167 0.4167 0.0000  plane waves:     864
 k-point 27 :   0.5000 0.4167 0.0000  plane waves:     868
 k-point 28 :   0.5000 0.5000 0.0000  plane waves:     872
 k-point 29 :   0.0833 0.0833 0.0833  plane waves:     865
 k-point 30 :   0.1667 0.0833 0.0833  plane waves:     857
 k-point 31 :   0.2500 0.0833 0.0833  plane waves:     859
 k-point 32 :   0.3333 0.0833 0.0833  plane waves:     864
 k-point 33 :   0.4167 0.0833 0.0833  plane waves:     862
 k-point 34 :   0.5000 0.0833 0.0833  plane waves:     862
 k-point 35 :   0.1667 0.1667 0.0833  plane waves:     862
 k-point 36 :   0.2500 0.1667 0.0833  plane waves:     863
 k-point 37 :   0.3333 0.1667 0.0833  plane waves:     863
 k-point 38 :   0.4167 0.1667 0.0833  plane waves:     862
 k-point 39 :   0.5000 0.1667 0.0833  plane waves:     864
 k-point 40 :   0.2500 0.2500 0.0833  plane waves:     865
 k-point 41 :   0.3333 0.2500 0.0833  plane waves:     869
 k-point 42 :   0.4167 0.2500 0.0833  plane waves:     863
 k-point 43 :   0.5000 0.2500 0.0833  plane waves:     862
 k-point 44 :   0.3333 0.3333 0.0833  plane waves:     866
 k-point 45 :   0.4167 0.3333 0.0833  plane waves:     868
 k-point 46 :   0.5000 0.3333 0.0833  plane waves:     864
 k-point 47 :   0.4167 0.4167 0.0833  plane waves:     861
 k-point 48 :   0.5000 0.4167 0.0833  plane waves:     868
 k-point 49 :   0.5000 0.5000 0.0833  plane waves:     864
 k-point 50 :   0.1667 0.1667 0.1667  plane waves:     868
 k-point 51 :   0.2500 0.1667 0.1667  plane waves:     865
 k-point 52 :   0.3333 0.1667 0.1667  plane waves:     867
 k-point 53 :   0.4167 0.1667 0.1667  plane waves:     869
 k-point 54 :   0.5000 0.1667 0.1667  plane waves:     852
 k-point 55 :   0.2500 0.2500 0.1667  plane waves:     866
 k-point 56 :   0.3333 0.2500 0.1667  plane waves:     868
 k-point 57 :   0.4167 0.2500 0.1667  plane waves:     873
 k-point 58 :   0.5000 0.2500 0.1667  plane waves:     866
 k-point 59 :   0.3333 0.3333 0.1667  plane waves:     872
 k-point 60 :   0.4167 0.3333 0.1667  plane waves:     868
 k-point 61 :   0.5000 0.3333 0.1667  plane waves:     864
 k-point 62 :   0.4167 0.4167 0.1667  plane waves:     869
 k-point 63 :   0.5000 0.4167 0.1667  plane waves:     866
 k-point 64 :   0.5000 0.5000 0.1667  plane waves:     860
 k-point 65 :   0.2500 0.2500 0.2500  plane waves:     859
 k-point 66 :   0.3333 0.2500 0.2500  plane waves:     868
 k-point 67 :   0.4167 0.2500 0.2500  plane waves:     867
 k-point 68 :   0.5000 0.2500 0.2500  plane waves:     874
 k-point 69 :   0.3333 0.3333 0.2500  plane waves:     870
 k-point 70 :   0.4167 0.3333 0.2500  plane waves:     867
 k-point 71 :   0.5000 0.3333 0.2500  plane waves:     870
 k-point 72 :   0.4167 0.4167 0.2500  plane waves:     870
 k-point 73 :   0.5000 0.4167 0.2500  plane waves:     872
 k-point 74 :   0.5000 0.5000 0.2500  plane waves:     864
 k-point 75 :   0.3333 0.3333 0.3333  plane waves:     862
 k-point 76 :   0.4167 0.3333 0.3333  plane waves:     877
 k-point 77 :   0.5000 0.3333 0.3333  plane waves:     876
 k-point 78 :   0.4167 0.4167 0.3333  plane waves:     886
 k-point 79 :   0.5000 0.4167 0.3333  plane waves:     882
 k-point 80 :   0.5000 0.5000 0.3333  plane waves:     884
 k-point 81 :   0.4167 0.4167 0.4167  plane waves:     882
 k-point 82 :   0.5000 0.4167 0.4167  plane waves:     882
 k-point 83 :   0.5000 0.5000 0.4167  plane waves:     876
 k-point 84 :   0.5000 0.5000 0.5000  plane waves:     912

 maximum and minimum number of plane-waves per node :       235      199

 maximum number of plane-waves:       912
 maximum index in each direction: 
   IXMAX=    5   IYMAX=    5   IZMAX=    5
   IXMIN=   -6   IYMIN=   -6   IZMIN=   -6


 parallel 3D FFT for wavefunctions:
    minimum data exchange during FFTs selected (reduces bandwidth)
 parallel 3D FFT for charge:
    minimum data exchange during FFTs selected (reduces bandwidth)


 total amount of memory used by VASP MPI-rank0    34053. kBytes
=======================================================================

   base      :      30000. kBytes
   nonl-proj :       1254. kBytes
   fftplans  :        345. kBytes
   grid      :        481. kBytes
   one-center:          6. kBytes
   wavefun   :       1967. kBytes
 
     INWAV:  cpu time    0.0004: real time    0.0005
 Broyden mixing: mesh for mixing (old mesh)
   NGX = 11   NGY = 11   NGZ = 11
  (NGX  = 48   NGY  = 48   NGZ  = 48)
  gives a total of   1331 points

 initial charge density was supplied:
 charge density of overlapping atoms calculated
 number of electron      32.0000000 magnetization 
 keeping initial charge density in first step


--------------------------------------------------------------------------------------------------------


 Maximum index for augmentation-charges          277 (set IRDMAX)


--------------------------------------------------------------------------------------------------------


 First call to EWALD:  gamma=   0.489
 Maximum number of real-space cells 3x 3x 3
 Maximum number of reciprocal cells 3x 3x 3

    FEWALD:  cpu time    0.0053: real time    0.0053


--------------------------------------- Iteration      1(   1)  ---------------------------------------


    POTLOK:  cpu time    0.0255: real time    0.0293
    SETDIJ:  cpu time    0.0065: real time    0.0065
     EDDAV:  cpu time    3.8509: real time    3.8635
 BZINTS: Fermi energy: 17.899646; 32.000000 electrons
         Band energy: 111.888014;  BLOECHL correction: -0.146205
       DOS:  cpu time    0.1546: real time    0.1546
    --------------------------------------------
      LOOP:  cpu time    4.0376: real time    4.0539

 eigenvalue-minimisations  :  4032
 total energy-change (2. order) : 0.5820515E+02  (-0.1426034E+04)
 number of electron      32.0000000 magnetization 
 augmentation part       32.0000000 magnetization 

 Free energy of the ion-electron system (eV)
  ---------------------------------------------------
  alpha Z        PSCENC =       109.40786984
  Ewald energy   TEWEN  =     -1369.21713778
  -Hartree energ DENC   =       -74.84120574
  -exchange      EXHF   =         0.00000000
  -V(xc)+E(xc)   XCENC  =       113.15365284
  PAW double counting   =       302.65154477     -311.85538214
  entropy T*S    EENTRO =         0.00000000
  eigenvalues    EBANDS =       111.88801366
  atomic energy  EATOM  =      1177.01779097
  Solvation  Ediel_sol  =         0.00000000
  ---------------------------------------------------
  free energy    TOTEN  =        58.20514643 eV

  energy without entropy =       58.20514643  energy(sigma->0) =       58.20514643


--------------------------------------------------------------------------------------------------------




--------------------------------------- Iteration      1(   2)  ---------------------------------------


     EDDAV:  cpu time    4.7655: real time    4.7661
 BZINTS: Fermi energy:  8.637617; 32.000000 electrons
         Band energy: -16.775729;  BLOECHL correction:  0.000000
       DOS:  cpu time    0.0543: real time    0.0543
    --------------------------------------------
      LOOP:  cpu time    4.8198: real time    4.8204

 eigenvalue-minimisations  :  5608
 total energy-change (2. order) :-0.1286637E+03  (-0.1221997E+03)
 number of electron      32.0000000 magnetization 
 augmentation part       32.0000000 magnetization 

 Free energy of the ion-electron system (eV)
  ---------------------------------------------------
  alpha Z        PSCENC =       109.40786984
  Ewald energy   TEWEN  =     -1369.21713778
  -Hartree energ DENC   =       -74.84120574
  -exchange      EXHF   =         0.00000000
  -V(xc)+E(xc)   XCENC  =       113.15365284
  PAW double counting   =       302.65154477     -311.85538214
  entropy T*S    EENTRO =         0.00000000
  eigenvalues    EBANDS =       -16.77572887
  atomic energy  EATOM  =      1177.01779097
  Solvation  Ediel_sol  =         0.00000000
  ---------------------------------------------------
  free energy    TOTEN  =       -70.45859610 eV

  energy without entropy =      -70.45859610  energy(sigma->0) =      -70.45859610


--------------------------------------------------------------------------------------------------------




--------------------------------------- Iteration      1(   3)  ---------------------------------------


     EDDAV:  cpu time    4.5135: real time    4.5168
 BZINTS: Fermi energy:  7.882062; 32.000000 electrons
         Band energy: -21.070402;  BLOECHL correction:  0.000000
       DOS:  cpu time    0.0409: real time    0.0409
    --------------------------------------------
      LOOP:  cpu time    4.5544: real time    4.5577

 eigenvalue-minimisations  :  5160
 total energy-change (2. order) :-0.4294673E+01  (-0.4273790E+01)
 number of electron      32.0000000 magnetization 
 augmentation part       32.0000000 magnetization 

 Free energy of the ion-electron system (eV)
  ---------------------------------------------------
  alpha Z        PSCENC =       109.40786984
  Ewald energy   TEWEN  =     -1369.21713778
  -Hartree energ DENC   =       -74.84120574
  -exchange      EXHF   =         0.00000000
  -V(xc)+E(xc)   XCENC  =       113.15365284
  PAW double counting   =       302.65154477     -311.85538214
  entropy T*S    EENTRO =         0.00000000
  eigenvalues    EBANDS =       -21.07040212
  atomic energy  EATOM  =      1177.01779097
  Solvation  Ediel_sol  =         0.00000000
  ---------------------------------------------------
  free energy    TOTEN  =       -74.75326935 eV

  energy without entropy =      -74.75326935  energy(sigma->0) =      -74.75326935


--------------------------------------------------------------------------------------------------------




--------------------------------------- Iteration      1(   4)  ---------------------------------------


     EDDAV:  cpu time    4.5341: real time    4.5348
 BZINTS: Fermi energy:  7.819374; 32.000000 electrons
         Band energy: -21.116592;  BLOECHL correction:  0.000000
       DOS:  cpu time    0.0364: real time    0.0364
    --------------------------------------------
      LOOP:  cpu time    4.5705: real time    4.5711

 eigenvalue-minimisations  :  5232
 total energy-change (2. order) :-0.4619003E-01  (-0.4614571E-01)
 number of electron      32.0000000 magnetization 
 augmentation part       32.0000000 magnetization 

 Free energy of the ion-electron system (eV)
  ---------------------------------------------------
  alpha Z        PSCENC =       109.40786984
  Ewald energy   TEWEN  =     -1369.21713778
  -Hartree energ DENC   =       -74.84120574
  -exchange      EXHF   =         0.00000000
  -V(xc)+E(xc)   XCENC  =       113.15365284
  PAW double counting   =       302.65154477     -311.85538214
  entropy T*S    EENTRO =         0.00000000
  eigenvalues    EBANDS =       -21.11659215
  atomic energy  EATOM  =      1177.01779097
  Solvation  Ediel_sol  =         0.00000000
  ---------------------------------------------------
  free energy    TOTEN  =       -74.79945938 eV

  energy without entropy =      -74.79945938  energy(sigma->0) =      -74.79945938


--------------------------------------------------------------------------------------------------------




--------------------------------------- Iteration      1(   5)  ---------------------------------------


     EDDAV:  cpu time    4.5292: real time    4.5298
 BZINTS: Fermi energy:  7.773293; 32.000000 electrons
         Band energy: -21.117441;  BLOECHL correction:  0.000000
       DOS:  cpu time    0.0364: real time    0.0364
    CHARGE:  cpu time    0.1162: real time    0.1162
    MIXING:  cpu time    0.0015: real time    0.0015
    --------------------------------------------
      LOOP:  cpu time    4.6833: real time    4.6840

 eigenvalue-minimisations  :  5136
 total energy-change (2. order) :-0.8492232E-03  (-0.8488828E-03)
 number of electron      32.0000030 magnetization 
 augmentation part        0.7495805 magnetization 

 Broyden mixing:
  rms(total) = 0.89507E+00    rms(broyden)= 0.89490E+00
  rms(prec ) = 0.20922E+01
  weight for this iteration     100.00

 Free energy of the ion-electron system (eV)
  ---------------------------------------------------
  alpha Z        PSCENC =       109.40786984
  Ewald energy   TEWEN  =     -1369.21713778
  -Hartree energ DENC   =       -74.84120574
  -exchange      EXHF   =         0.00000000
  -V(xc)+E(xc)   XCENC  =       113.15365284
  PAW double counting   =       302.65154477     -311.85538214
  entropy T*S    EENTRO =         0.00000000
  eigenvalues    EBANDS =       -21.11744137
  atomic energy  EATOM  =      1177.01779097
  Solvation  Ediel_sol  =         0.00000000
  ---------------------------------------------------
  free energy    TOTEN  =       -74.80030860 eV

  energy without entropy =      -74.80030860  energy(sigma->0) =      -74.80030860


--------------------------------------------------------------------------------------------------------




--------------------------------------- Iteration      1(   6)  ---------------------------------------


    POTLOK:  cpu time    0.0220: real time    0.1311
    SETDIJ:  cpu time    0.0059: real time    0.0059
     EDDAV:  cpu time    4.1397: real time    4.1399
 BZINTS: Fermi energy:  8.472308; 32.000000 electrons
         Band energy:  -5.870565;  BLOECHL correction:  0.000000
       DOS:  cpu time    0.0408: real time    0.0408
    CHARGE:  cpu time    0.1146: real time    0.1146
    MIXING:  cpu time    0.0017: real time    0.0017
    --------------------------------------------
      LOOP:  cpu time    4.3248: real time    4.4341

 eigenvalue-minimisations  :  4608
 total energy-change (2. order) : 0.1625379E+01  (-0.1086682E+00)
 number of electron      32.0000029 magnetization 
 augmentation part        0.7333619 magnetization 

 Broyden mixing:
  rms(total) = 0.49468E+00    rms(broyden)= 0.49467E+00
  rms(prec ) = 0.11382E+01
  weight for this iteration     100.00

 eigenvalues of (default mixing * dielectric matrix)
  average eigenvalue GAMMA=   2.1849
  2.1849

 Free energy of the ion-electron system (eV)
  ---------------------------------------------------
  alpha Z        PSCENC =       109.40786984
  Ewald energy   TEWEN  =     -1369.21713778
  -Hartree energ DENC   =       -89.33455617
  -exchange      EXHF   =         0.00000000
  -V(xc)+E(xc)   XCENC  =       114.50409406
  PAW double counting   =       385.10015425     -394.78257992
  entropy T*S    EENTRO =         0.00000000
  eigenvalues    EBANDS =        -5.87056511
  atomic energy  EATOM  =      1177.01779097
  Solvation  Ediel_sol  =         0.00000000
  ---------------------------------------------------
  free energy    TOTEN  =       -73.17492985 eV

  energy without entropy =      -73.17492985  energy(sigma->0) =      -73.17492985


--------------------------------------------------------------------------------------------------------




--------------------------------------- Iteration      1(   7)  ---------------------------------------


    POTLOK:  cpu time    0.0197: real time    0.0203
    SETDIJ:  cpu time    0.0059: real time    0.0059
     EDDAV:  cpu time    4.2138: real time    4.2140
 BZINTS: Fermi energy:  9.146818; 32.000000 electrons
         Band energy:  11.924258;  BLOECHL correction:  0.000000
       DOS:  cpu time    0.0366: real time    0.0366
    CHARGE:  cpu time    0.1221: real time    0.1221
    MIXING:  cpu time    0.0019: real time    0.0019
    --------------------------------------------
      LOOP:  cpu time    4.3999: real time    4.4007

 eigenvalue-minimisations  :  4776
 total energy-change (2. order) : 0.5498558E+00  (-0.1244002E+00)
 number of electron      32.0000028 magnetization 
 augmentation part        0.7159034 magnetization 

 Broyden mixing:
  rms(total) = 0.68139E-01    rms(broyden)= 0.67814E-01
  rms(prec ) = 0.11863E+00
  weight for this iteration     100.00

 eigenvalues of (default mixing * dielectric matrix)
  average eigenvalue GAMMA=   2.2671
  2.0007  2.5334

 Free energy of the ion-electron system (eV)
  ---------------------------------------------------
  alpha Z        PSCENC =       109.40786984
  Ewald energy   TEWEN  =     -1369.21713778
  -Hartree energ DENC   =      -107.87911871
  -exchange      EXHF   =         0.00000000
  -V(xc)+E(xc)   XCENC  =       116.25580408
  PAW double counting   =       496.38345901     -506.51799903
  entropy T*S    EENTRO =         0.00000000
  eigenvalues    EBANDS =        11.92425755
  atomic energy  EATOM  =      1177.01779097
  Solvation  Ediel_sol  =         0.00000000
  ---------------------------------------------------
  free energy    TOTEN  =       -72.62507407 eV

  energy without entropy =      -72.62507407  energy(sigma->0) =      -72.62507407


--------------------------------------------------------------------------------------------------------




--------------------------------------- Iteration      1(   8)  ---------------------------------------


    POTLOK:  cpu time    0.0203: real time    0.2996
    SETDIJ:  cpu time    0.0058: real time    0.0058
     EDDAV:  cpu time    4.6252: real time    4.6255
 BZINTS: Fermi energy:  9.146962; 32.000000 electrons
         Band energy:  12.200787;  BLOECHL correction:  0.000000
       DOS:  cpu time    0.0366: real time    0.0475
    CHARGE:  cpu time    0.1168: real time    0.1168
    MIXING:  cpu time    0.0021: real time    0.0021
    --------------------------------------------
      LOOP:  cpu time    4.8068: real time    5.0973

 eigenvalue-minimisations  :  5200
 total energy-change (2. order) :-0.6882547E-02  (-0.2510192E-02)
 number of electron      32.0000028 magnetization 
 augmentation part        0.7164735 magnetization 

 Broyden mixing:
  rms(total) = 0.77352E-02    rms(broyden)= 0.76392E-02
  rms(prec ) = 0.13403E-01
  weight for this iteration     100.00

 eigenvalues of (default mixing * dielectric matrix)
  average eigenvalue GAMMA=   2.1019
  1.4537  2.6750  2.1769

 Free energy of the ion-electron system (eV)
  ---------------------------------------------------
  alpha Z        PSCENC =       109.40786984
  Ewald energy   TEWEN  =     -1369.21713778
  -Hartree energ DENC   =      -108.33247106
  -exchange      EXHF   =         0.00000000
  -V(xc)+E(xc)   XCENC  =       116.30147253
  PAW double counting   =       503.69308032     -513.70334863
  entropy T*S    EENTRO =         0.00000000
  eigenvalues    EBANDS =        12.20078719
  atomic energy  EATOM  =      1177.01779097
  Solvation  Ediel_sol  =         0.00000000
  ---------------------------------------------------
  free energy    TOTEN  =       -72.63195661 eV

  energy without entropy =      -72.63195661  energy(sigma->0) =      -72.63195661


--------------------------------------------------------------------------------------------------------




--------------------------------------- Iteration      1(   9)  ---------------------------------------


    POTLOK:  cpu time    0.0205: real time    0.0209
    SETDIJ:  cpu time    0.0056: real time    0.0056
     EDDAV:  cpu time    4.3534: real time    4.3536
 BZINTS: Fermi energy:  9.138399; 32.000000 electrons
         Band energy:  12.097352;  BLOECHL correction:  0.000000
       DOS:  cpu time    0.0365: real time    0.0365
    CHARGE:  cpu time    0.1204: real time    0.1205
    MIXING:  cpu time    0.0021: real time    0.0021
    --------------------------------------------
      LOOP:  cpu time    4.5385: real time    4.5392

 eigenvalue-minimisations  :  4864
 total energy-change (2. order) :-0.2220680E-03  (-0.4305641E-04)
 number of electron      32.0000028 magnetization 
 augmentation part        0.7164203 magnetization 

 Broyden mixing:
  rms(total) = 0.27691E-02    rms(broyden)= 0.27625E-02
  rms(prec ) = 0.49576E-02
  weight for this iteration     100.00

 eigenvalues of (default mixing * dielectric matrix)
  average eigenvalue GAMMA=   2.0576
  0.9776  2.7801  2.4788  1.9937

 Free energy of the ion-electron system (eV)
  ---------------------------------------------------
  alpha Z        PSCENC =       109.40786984
  Ewald energy   TEWEN  =     -1369.21713778
  -Hartree energ DENC   =      -108.23332209
  -exchange      EXHF   =         0.00000000
  -V(xc)+E(xc)   XCENC  =       116.29186445
  PAW double counting   =       502.90048701     -512.89708270
  entropy T*S    EENTRO =         0.00000000
  eigenvalues    EBANDS =        12.09735159
  atomic energy  EATOM  =      1177.01779097
  Solvation  Ediel_sol  =         0.00000000
  ---------------------------------------------------
  free energy    TOTEN  =       -72.63217868 eV

  energy without entropy =      -72.63217868  energy(sigma->0) =      -72.63217868


--------------------------------------------------------------------------------------------------------




--------------------------------------- Iteration      1(  10)  ---------------------------------------


    POTLOK:  cpu time    0.0200: real time    0.0204
    SETDIJ:  cpu time    0.0057: real time    0.0057
     EDDAV:  cpu time    4.4480: real time    4.4482
 BZINTS: Fermi energy:  9.135292; 32.000000 electrons
         Band energy:  12.135952;  BLOECHL correction:  0.000000
       DOS:  cpu time    0.0366: real time    0.0366
    CHARGE:  cpu time    0.1164: real time    0.1164
    MIXING:  cpu time    0.0027: real time    0.0027
    --------------------------------------------
      LOOP:  cpu time    4.6295: real time    4.6300

 eigenvalue-minimisations  :  5104
 total energy-change (2. order) :-0.5708993E-04  (-0.5192463E-05)
 number of electron      32.0000028 magnetization 
 augmentation part        0.7163939 magnetization 

 Broyden mixing:
  rms(total) = 0.25714E-03    rms(broyden)= 0.25237E-03
  rms(prec ) = 0.60225E-03
  weight for this iteration     100.00

 eigenvalues of (default mixing * dielectric matrix)
  average eigenvalue GAMMA=   1.9663
  2.9391  2.5560  2.0647  0.9891  1.2828

 Free energy of the ion-electron system (eV)
  ---------------------------------------------------
  alpha Z        PSCENC =       109.40786984
  Ewald energy   TEWEN  =     -1369.21713778
  -Hartree energ DENC   =      -108.27402114
  -exchange      EXHF   =         0.00000000
  -V(xc)+E(xc)   XCENC  =       116.29534506
  PAW double counting   =       502.41235104     -512.41038596
  entropy T*S    EENTRO =         0.00000000
  eigenvalues    EBANDS =        12.13595219
  atomic energy  EATOM  =      1177.01779097
  Solvation  Ediel_sol  =         0.00000000
  ---------------------------------------------------
  free energy    TOTEN  =       -72.63223577 eV

  energy without entropy =      -72.63223577  energy(sigma->0) =      -72.63223577


--------------------------------------------------------------------------------------------------------




--------------------------------------- Iteration      1(  11)  ---------------------------------------


    POTLOK:  cpu time    0.0198: real time    0.0202
    SETDIJ:  cpu time    0.0057: real time    0.0057
     EDDAV:  cpu time    3.6883: real time    3.6886
 BZINTS: Fermi energy:  9.132165; 32.000000 electrons
         Band energy:  12.148195;  BLOECHL correction:  0.000000
       DOS:  cpu time    0.0361: real time    0.0361
    --------------------------------------------
      LOOP:  cpu time    3.7499: real time    3.7506

 eigenvalue-minimisations  :  3704
 total energy-change (2. order) :-0.5107804E-06  (-0.1090484E-06)
 number of electron      32.0000028 magnetization 
 augmentation part        0.7163939 magnetization 

 Free energy of the ion-electron system (eV)
  ---------------------------------------------------
  alpha Z        PSCENC =       109.40786984
  Ewald energy   TEWEN  =     -1369.21713778
  -Hartree energ DENC   =      -108.28683917
  -exchange      EXHF   =         0.00000000
  -V(xc)+E(xc)   XCENC  =       116.29653473
  PAW double counting   =       502.44571921     -512.44436942
  entropy T*S    EENTRO =         0.00000000
  eigenvalues    EBANDS =        12.14819533
  atomic energy  EATOM  =      1177.01779097
  Solvation  Ediel_sol  =         0.00000000
  ---------------------------------------------------
  free energy    TOTEN  =       -72.63223628 eV

  energy without entropy =      -72.63223628  energy(sigma->0) =      -72.63223628


--------------------------------------------------------------------------------------------------------




 average (electrostatic) potential at core
  the test charge radii are     0.6991
  (the norm of the test charge is              1.0000)
       1 -46.0850       2 -46.0850       3 -46.0850       4 -46.0850       5 -46.0850
       6 -46.0850       7 -46.0850       8 -46.0850
 
 
 
 E-fermi :   9.1322     XC(G=0): -12.9785     alpha+bet :-16.8499


 k-point     1 :       0.0000    0.0000    0.0000
  band No.  band energies     occupation 
      1     -11.7723      2.00000
      2      -3.3704      2.00000
      3      -3.3704      2.00000
      4      -3.3704      2.00000
      5      -3.3704      2.00000
      6      -3.3704      2.00000
      7      -3.3704      2.00000
      8       3.0513      2.00000
      9       3.0513      2.00000
     10       3.0513      2.00000
     11       3.0513      2.00000
     12       3.0513      2.00000
     13       3.0513      2.00000
     14       9.0918      2.00000
     15       9.0918      2.00000
     16       9.0918      2.00000
     17      13.7135      0.00000
     18      13.7135      0.00000
     19      13.7135      0.00000
     20      13.7135      0.00000
     21      13.7135      0.00000
     22      13.7135      0.00000
     23      14.5411      0.00000
     24      14.5411      0.00000

 k-point     2 :       0.0833    0.0000    0.0000
  band No.  band energies     occupation 
      1     -11.7103      2.00000
      2      -4.6227      2.00000
      3      -3.3326      2.00000
      4      -3.3326      2.00000
      5      -3.3326      2.00000
      6      -3.3326      2.00000
      7      -2.0603      2.00000
      8       2.9170      2.00000
      9       2.9170      2.00000
     10       2.9170      2.00000
     11       2.9170      2.00000
     12       3.1113      2.00000
     13       3.1113      2.00000
     14       8.8347      2.00000
     15       8.8347      2.00000
     16       8.9203      2.00000
     17      13.3772      0.00000
     18      13.9670      0.00000
     19      13.9670      0.00000
     20      13.9670      0.00000
     21      13.9670      0.00000
     22      14.1950      0.00000
     23      14.4748      0.00000
     24      14.8239      0.00000

 k-point     3 :       0.1667    0.0000    0.0000
  band No.  band energies     occupation 
      1     -11.5245      2.00000
      2      -5.8013      2.00000
      3      -3.2239      2.00000
      4      -3.2239      2.00000
      5      -3.2239      2.00000
      6      -3.2239      2.00000
      7      -0.7111      2.00000
      8       2.5622      2.00000
      9       2.5622      2.00000
     10       2.5622      2.00000
     11       2.5622      2.00000
     12       3.2920      2.00000
     13       3.2920      2.00000
     14       8.2135      2.00000
     15       8.2135      2.00000
     16       8.4467      2.00000
     17      13.1737      0.00000
     18      14.3289      0.00000
     19      14.6825      0.00000
     20      14.6825      0.00000
     21      14.6825      0.00000
     22      14.6825      0.00000
     23      14.8348      0.00000
     24      15.5928      0.00000

 k-point     4 :       0.2500    0.0000    0.0000
  band No.  band energies     occupation 
      1     -11.2157      2.00000
      2      -6.8938      2.00000
      3      -3.0608      2.00000
      4      -3.0608      2.00000
      5      -3.0608      2.00000
      6      -3.0608      2.00000
      7       0.6556      2.00000
      8       2.0923      2.00000
      9       2.0923      2.00000
     10       2.0923      2.00000
     11       2.0923      2.00000
     12       3.5891      2.00000
     13       3.5891      2.00000
     14       7.4367      2.00000
     15       7.4367      2.00000
     16       7.7339      2.00000
     17      13.0879      0.00000
     18      14.1151      0.00000
     19      15.6448      0.00000
     20      15.7523      0.00000
     21      15.7523      0.00000
     22      15.7523      0.00000
     23      15.7523      0.00000
     24      16.6246      0.00000

 k-point     5 :       0.3333    0.0000    0.0000
  band No.  band energies     occupation 
      1     -10.7849      2.00000
      2      -7.8902      2.00000
      3      -2.8751      2.00000
      4      -2.8751      2.00000
      5      -2.8751      2.00000
      6      -2.8751      2.00000
      7       1.6259      2.00000
      8       1.6259      2.00000
      9       1.6259      2.00000
     10       1.6259      2.00000
     11       2.0107      2.00000
     12       4.0001      2.00000
     13       4.0001      2.00000
     14       6.6241      2.00000
     15       6.6241      2.00000
     16       6.8250      2.00000
     17      13.1017      0.00000
     18      13.8650      0.00000
     19      16.6178      0.00000
     20      17.0555      0.00000
     21      17.0555      0.00000
     22      17.0555      0.00000
     23      17.0555      0.00000
     24      17.7824      0.00000

 k-point     6 :       0.4167    0.0000    0.0000
  band No.  band energies     occupation 
      1     -10.2340      2.00000
      2      -8.7827      2.00000
      3      -2.7192      2.00000
      4      -2.7192      2.00000
      5      -2.7192      2.00000
      6      -2.7192      2.00000
      7       1.2806      2.00000
      8       1.2806      2.00000
      9       1.2806      2.00000
     10       1.2806      2.00000
     11       3.3320      2.00000
     12       4.5198      2.00000
     13       4.5198      2.00000
     14       5.7664      2.00000
     15       5.8484      2.00000
     16       5.8484      2.00000
     17      13.2075      0.00000
     18      13.6178      0.00000
     19      17.7409      0.00000
     20      18.4653      0.00000
     21      18.4653      0.00000
     22      18.4653      0.00000
     23      18.4657      0.00000
     24      19.0016      0.00000

 k-point     7 :       0.5000    0.0000    0.0000
  band No.  band energies     occupation 
      1      -9.5655      2.00000
      2      -9.5655      2.00000
      3      -2.6562      2.00000
      4      -2.6562      2.00000
      5      -2.6562      2.00000
      6      -2.6562      2.00000
      7       1.1530      2.00000
      8       1.1530      2.00000
      9       1.1530      2.00000
     10       1.1530      2.00000
     11       4.5926      2.00000
     12       4.5926      2.00000
     13       5.1400      2.00000
     14       5.1400      2.00000
     15       5.1400      2.00000
     16       5.1400      2.00000
     17      13.3847      0.00000
     18      13.3847      0.00000
     19      18.9566      0.00000
     20      18.9566      0.00000
     21      19.4823      0.00000
     22      19.4823      0.00000
     23      19.4823      0.00000
     24      19.4868      0.00000

 k-point     8 :       0.0833    0.0833    0.0000
  band No.  band energies     occupation 
      1     -11.6483      2.00000
      2      -4.5766      2.00000
      3      -4.5766      2.00000
      4      -3.3356      2.00000
      5      -3.2580      2.00000
      6      -2.0358      2.00000
      7      -2.0358      2.00000
      8       2.4572      2.00000
      9       2.9644      2.00000
     10       2.9644      2.00000
     11       2.9963      2.00000
     12       2.9963      2.00000
     13       3.1539      2.00000
     14       8.3884      2.00000
     15       8.5921      2.00000
     16       9.0042      2.00000
     17      13.6378      0.00000
     18      13.6378      0.00000
     19      13.8156      0.00000
     20      14.4405      0.00000
     21      14.4405      0.00000
     22      14.5854      0.00000
     23      14.6508      0.00000
     24      14.8951      0.00000

 k-point     9 :       0.1667    0.0833    0.0000
  band No.  band energies     occupation 
      1     -11.4627      2.00000
      2      -5.7501      2.00000
      3      -4.4414      2.00000
      4      -3.2822      2.00000
      5      -3.1086      2.00000
      6      -1.9709      2.00000
      7      -0.7088      2.00000
      8       1.8801      2.00000
      9       2.5712      2.00000
     10       2.6937      2.00000
     11       3.1224      2.00000
     12       3.1339      2.00000
     13       3.2036      2.00000
     14       7.6707      2.00000
     15       7.9866      2.00000
     16       8.7362      2.00000
     17      13.4383      0.00000
     18      14.1670      0.00000
     19      14.3680      0.00000
     20      14.5769      0.00000
     21      15.0715      0.00000
     22      15.1339      0.00000
     23      15.5725      0.00000
     24      15.5886      0.00000

 k-point    10 :       0.2500    0.0833    0.0000
  band No.  band energies     occupation 
      1     -11.1541      2.00000
      2      -6.8391      2.00000
      3      -4.2266      2.00000
      4      -3.2040      2.00000
      5      -2.8901      2.00000
      6      -1.8925      2.00000
      7       0.6173      2.00000
      8       1.3063      2.00000
      9       2.0414      2.00000
     10       2.3157      2.00000
     11       2.8714      2.00000
     12       3.4235      2.00000
     13       3.5454      2.00000
     14       6.8451      2.00000
     15       7.2229      2.00000
     16       8.1472      2.00000
     17      13.3543      0.00000
     18      14.3735      0.00000
     19      14.9674      0.00000
     20      15.4563      0.00000
     21      15.8682      0.00000
     22      16.1743      0.00000
     23      16.6113      0.00000
     24      16.6348      0.00000

 k-point    11 :       0.3333    0.0833    0.0000
  band No.  band energies     occupation 
      1     -10.7237      2.00000
      2      -7.8332      2.00000
      3      -3.9512      2.00000
      4      -3.1547      2.00000
      5      -2.6194      2.00000
      6      -1.8484      2.00000
      7       0.8553      2.00000
      8       1.4885      2.00000
      9       1.9008      2.00000
     10       1.9893      2.00000
     11       2.5077      2.00000
     12       3.8275      2.00000
     13       4.0318      2.00000
     14       5.9768      2.00000
     15       6.4237      2.00000
     16       7.3483      2.00000
     17      13.3717      0.00000
     18      14.1304      0.00000
     19      16.1030      0.00000
     20      16.7836      0.00000
     21      16.8270      0.00000
     22      17.4397      0.00000
     23      17.7017      0.00000
     24      17.7711      0.00000

 k-point    12 :       0.4167    0.0833    0.0000
  band No.  band energies     occupation 
      1     -10.1734      2.00000
      2      -8.7241      2.00000
      3      -3.6496      2.00000
      4      -3.2010      2.00000
      5      -2.3283      2.00000
      6      -1.8978      2.00000
      7       0.6347      2.00000
      8       1.0088      2.00000
      9       1.8284      2.00000
     10       2.1436      2.00000
     11       3.0918      2.00000
     12       4.3407      2.00000
     13       4.6825      2.00000
     14       5.0882      2.00000
     15       5.6567      2.00000
     16       6.4323      2.00000
     17      13.4781      0.00000
     18      13.8829      0.00000
     19      17.4364      0.00000
     20      17.9336      0.00000
     21      18.2437      0.00000
     22      18.7144      0.00000
     23      18.8495      0.00000
     24      18.9935      0.00000

 k-point    13 :       0.5000    0.0833    0.0000
  band No.  band energies     occupation 
      1      -9.5057      2.00000
      2      -9.5057      2.00000
      3      -3.3772      2.00000
      4      -3.3772      2.00000
      5      -2.0680      2.00000
      6      -2.0680      2.00000
      7       0.6969      2.00000
      8       0.6969      2.00000
      9       1.8898      2.00000
     10       1.8898      2.00000
     11       4.1472      2.00000
     12       4.1472      2.00000
     13       4.9544      2.00000
     14       4.9544      2.00000
     15       5.5032      2.00000
     16       5.5032      2.00000
     17      13.6546      0.00000
     18      13.6546      0.00000
     19      18.7485      0.00000
     20      18.7485      0.00000
     21      19.1251      0.00000
     22      19.1251      0.00000
     23      19.6821      0.00000
     24      19.6832      0.00000

 k-point    14 :       0.1667    0.1667    0.0000
  band No.  band energies     occupation 
      1     -11.2775      2.00000
      2      -5.5981      2.00000
      3      -5.5981      2.00000
      4      -3.3139      2.00000
      5      -2.9221      2.00000
      6      -0.7170      2.00000
      7      -0.7170      2.00000
      8       1.1979      2.00000
      9       2.7138      2.00000
     10       2.7138      2.00000
     11       2.9843      2.00000
     12       2.9843      2.00000
     13       3.4568      2.00000
     14       6.8874      2.00000
     15       7.4161      2.00000
     16       8.7607      2.00000
     17      14.1163      0.00000
     18      14.1790      0.00000
     19      14.1790      0.00000
     20      15.0219      0.00000
     21      15.7378      0.00000
     22      15.7378      0.00000
     23      15.7605      0.00000
     24      16.0777      0.00000

 k-point    15 :       0.2500    0.1667    0.0000
  band No.  band energies     occupation 
      1     -10.9697      2.00000
      2      -6.6762      2.00000
      3      -5.3511      2.00000
      4      -3.3730      2.00000
      5      -2.6621      2.00000
      6      -0.7744      2.00000
      7       0.4875      2.00000
      8       0.6358      2.00000
      9       2.1432      2.00000
     10       2.7453      2.00000
     11       2.9826      2.00000
     12       3.4549      2.00000
     13       3.5224      2.00000
     14       6.0375      2.00000
     15       6.6789      2.00000
     16       8.4154      2.00000
     17      14.1005      0.00000
     18      14.5577      0.00000
     19      15.0192      0.00000
     20      15.2765      0.00000
     21      16.4995      0.00000
     22      16.5978      0.00000
     23      16.6935      0.00000
     24      16.7381      0.00000

 k-point    16 :       0.3333    0.1667    0.0000
  band No.  band energies     occupation 
      1     -10.5406      2.00000
      2      -7.6629      2.00000
      3      -5.0207      2.00000
      4      -3.5285      2.00000
      5      -2.3353      2.00000
      6      -0.9303      2.00000
      7       0.3129      2.00000
      8       1.5337      2.00000
      9       1.5899      2.00000
     10       2.6082      2.00000
     11       3.3699      2.00000
     12       3.3714      2.00000
     13       4.1279      2.00000
     14       5.1717      2.00000
     15       5.9011      2.00000
     16       7.7641      2.00000
     17      14.1203      0.00000
     18      14.8262      0.00000
     19      15.4293      0.00000
     20      16.6128      0.00000
     21      17.4219      0.00000
     22      17.5088      0.00000
     23      17.7341      0.00000
     24      17.9297      0.00000

 k-point    17 :       0.4167    0.1667    0.0000
  band No.  band energies     occupation 
      1      -9.9920      2.00000
      2      -8.5487      2.00000
      3      -4.6275      2.00000
      4      -3.8180      2.00000
      5      -1.9599      2.00000
      6      -1.2050      2.00000
      7       0.2853      2.00000
      8       0.9706      2.00000
      9       2.5670      2.00000
     10       2.6405      2.00000
     11       3.1047      2.00000
     12       3.8669      2.00000
     13       4.3129      2.00000
     14       4.9850      2.00000
     15       5.1519      2.00000
     16       6.9108      2.00000
     17      14.2228      0.00000
     18      14.6038      0.00000
     19      16.6055      0.00000
     20      18.0877      0.00000
     21      18.4594      0.00000
     22      18.4818      0.00000
     23      18.8091      0.00000
     24      18.9666      0.00000

 k-point    18 :       0.5000    0.1667    0.0000
  band No.  band energies     occupation 
      1      -9.3268      2.00000
      2      -9.3268      2.00000
      3      -4.2075      2.00000
      4      -4.2075      2.00000
      5      -1.5671      2.00000
      6      -1.5671      2.00000
      7       0.5285      2.00000
      8       0.5285      2.00000
      9       2.8279      2.00000
     10       2.8279      2.00000
     11       3.4557      2.00000
[...]

 k-point    72 :       0.4167    0.4167    0.2500
  band No.  band energies     occupation 
      1      -8.2253      2.00000
      2      -6.9009      2.00000
      3      -6.9009      2.00000
      4      -5.8630      2.00000
      5      -2.9977      2.00000
      6      -1.9915      2.00000
      7      -1.9915      2.00000
      8      -0.7091      2.00000
      9       3.7874      2.00000
     10       4.5332      2.00000
     11       4.5332      2.00000
     12       5.6062      2.00000
     13       5.6400      2.00000
     14       5.8057      2.00000
     15       5.8057      2.00000
     16       6.8363      2.00000
     17      16.3848      0.00000
     18      16.9209      0.00000
     19      16.9209      0.00000
     20      17.2386      0.00000
     21      17.3170      0.00000
     22      17.7866      0.00000
     23      17.7866      0.00000
     24      17.8562      0.00000

 k-point    73 :       0.5000    0.4167    0.2500
  band No.  band energies     occupation 
      1      -7.6051      2.00000
      2      -7.6051      2.00000
      3      -6.3746      2.00000
      4      -6.3746      2.00000
      5      -2.6032      2.00000
      6      -2.6032      2.00000
      7      -1.4124      2.00000
      8      -1.4124      2.00000
      9       4.1784      2.00000
     10       4.1784      2.00000
     11       5.0990      2.00000
     12       5.0990      2.00000
     13       5.8459      2.00000
     14       5.8459      2.00000
     15       6.4395      2.00000
     16       6.4395      2.00000
     17      16.8817      0.00000
     18      16.8817      0.00000
     19      17.1730      0.00000
     20      17.1730      0.00000
     21      17.4406      0.00000
     22      17.4406      0.00000
     23      18.0709      0.00000
     24      18.0709      0.00000

 k-point    74 :       0.5000    0.5000    0.2500
  band No.  band energies     occupation 
      1      -7.0170      2.00000
      2      -7.0170      2.00000
      3      -7.0170      2.00000
      4      -7.0170      2.00000
      5      -2.0832      2.00000
      6      -2.0832      2.00000
      7      -2.0832      2.00000
      8      -2.0832      2.00000
      9       4.6558      2.00000
     10       4.6558      2.00000
     11       4.6558      2.00000
     12       4.6558      2.00000
     13       6.2868      2.00000
     14       6.2868      2.00000
     15       6.2868      2.00000
     16       6.2868      2.00000
     17      17.0013      0.00000
     18      17.0013      0.00000
     19      17.0013      0.00000
     20      17.0013      0.00000
     21      17.9764      0.00000
     22      17.9764      0.00000
     23      17.9764      0.00000
     24      17.9764      0.00000

 k-point    75 :       0.3333    0.3333    0.3333
  band No.  band energies     occupation 
      1      -8.8645      2.00000
      2      -6.2554      2.00000
      3      -6.2554      2.00000
      4      -6.2554      2.00000
      5      -2.5225      2.00000
      6      -2.5225      2.00000
      7      -2.5225      2.00000
      8       0.0104      2.00000
      9       4.2491      2.00000
     10       4.2491      2.00000
     11       4.2491      2.00000
     12       5.2806      2.00000
     13       5.2806      2.00000
     14       5.2806      2.00000
     15       6.8516      2.00000
     16       6.8516      2.00000
     17      15.9692      0.00000
     18      15.9692      0.00000
     19      15.9692      0.00000
     20      17.0585      0.00000
     21      17.1250      0.00000
     22      17.1250      0.00000
     23      19.4580      0.00000
     24      19.4615      0.00000

 k-point    76 :       0.4167    0.3333    0.3333
  band No.  band energies     occupation 
      1      -8.3430      2.00000
      2      -7.0134      2.00000
      3      -5.9677      2.00000
      4      -5.9677      2.00000
      5      -3.1124      2.00000
      6      -3.1124      2.00000
      7      -2.0964      2.00000
      8      -0.8039      2.00000
      9       4.4556      2.00000
     10       4.4556      2.00000
     11       5.3186      2.00000
     12       5.4894      2.00000
     13       5.4894      2.00000
     14       5.6333      2.00000
     15       6.4417      2.00000
     16       6.7190      2.00000
     17      16.2911      0.00000
     18      16.4854      0.00000
     19      16.4854      0.00000
     20      16.8942      0.00000
     21      17.3262      0.00000
     22      17.5517      0.00000
     23      18.4490      0.00000
     24      18.4499      0.00000

 k-point    77 :       0.5000    0.3333    0.3333
  band No.  band energies     occupation 
      1      -7.7205      2.00000
      2      -7.7205      2.00000
      3      -5.8355      2.00000
      4      -5.8355      2.00000
      5      -3.3467      2.00000
      6      -3.3467      2.00000
      7      -1.5127      2.00000
      8      -1.5127      2.00000
      9       4.5252      2.00000
     10       4.5252      2.00000
     11       5.5595      2.00000
     12       5.5595      2.00000
     13       6.0294      2.00000
     14       6.0294      2.00000
     15       6.1785      2.00000
     16       6.1785      2.00000
     17      16.6137      0.00000
     18      16.6137      0.00000
     19      17.0927      0.00000
     20      17.0927      0.00000
     21      17.6419      0.00000
     22      17.6419      0.00000
     23      17.9050      0.00000
     24      17.9054      0.00000

 k-point    78 :       0.4167    0.4167    0.3333
  band No.  band energies     occupation 
      1      -7.8378      2.00000
      2      -6.5965      2.00000
      3      -6.5965      2.00000
      4      -5.9450      2.00000
      5      -3.4540      2.00000
      6      -2.8169      2.00000
      7      -2.8169      2.00000
      8      -1.6085      2.00000
      9       4.8631      2.00000
     10       5.3138      2.00000
     11       5.3138      2.00000
     12       5.8348      2.00000
     13       5.9011      2.00000
     14       5.9011      2.00000
     15       6.2402      2.00000
     16       6.6915      2.00000
     17      16.6298      0.00000
     18      16.7767      0.00000
     19      16.7767      0.00000
     20      17.2007      0.00000
     21      17.2760      0.00000
     22      17.4393      0.00000
     23      17.8685      0.00000
     24      17.8685      0.00000

 k-point    79 :       0.5000    0.4167    0.3333
  band No.  band energies     occupation 
      1      -7.2448      2.00000
      2      -7.2448      2.00000
      3      -6.1912      2.00000
      4      -6.1912      2.00000
      5      -3.3196      2.00000
      6      -3.3196      2.00000
      7      -2.2911      2.00000
      8      -2.2911      2.00000
      9       5.1388      2.00000
     10       5.1388      2.00000
     11       5.8584      2.00000
     12       5.8584      2.00000
     13       5.9928      2.00000
     14       5.9928      2.00000
     15       6.3962      2.00000
     16       6.3962      2.00000
     17      17.0563      0.00000
     18      17.0563      0.00000
     19      17.0635      0.00000
     20      17.0635      0.00000
     21      17.4642      0.00000
     22      17.4643      0.00000
     23      17.6264      0.00000
     24      17.6265      0.00000

 k-point    80 :       0.5000    0.5000    0.3333
  band No.  band energies     occupation 
      1      -6.7107      2.00000
      2      -6.7107      2.00000
      3      -6.7107      2.00000
      4      -6.7107      2.00000
      5      -2.9187      2.00000
      6      -2.9187      2.00000
      7      -2.9187      2.00000
      8      -2.9187      2.00000
      9       5.5499      2.00000
     10       5.5499      2.00000
     11       5.5499      2.00000
     12       5.5499      2.00000
     13       6.3366      2.00000
     14       6.3366      2.00000
     15       6.3366      2.00000
     16       6.3366      2.00000
     17      17.1402      0.00000
     18      17.1402      0.00000
     19      17.1402      0.00000
     20      17.1402      0.00000
     21      17.6364      0.00000
     22      17.6364      0.00000
     23      17.6364      0.00000
     24      17.6366      0.00000

 k-point    81 :       0.4167    0.4167    0.4167
  band No.  band energies     occupation 
      1      -7.3602      2.00000
      2      -6.3014      2.00000
      3      -6.3014      2.00000
      4      -6.3014      2.00000
      5      -3.4296      2.00000
      6      -3.4296      2.00000
      7      -3.4296      2.00000
      8      -2.3939      2.00000
      9       5.7494      2.00000
     10       5.7494      2.00000
     11       5.7494      2.00000
     12       6.0573      2.00000
     13       6.0573      2.00000
     14       6.0573      2.00000
     15       6.4994      2.00000
     16       6.4994      2.00000
     17      16.8936      0.00000
     18      16.8936      0.00000
     19      16.8936      0.00000
     20      17.1992      0.00000
     21      17.2908      0.00000
     22      17.2908      0.00000
     23      17.9287      0.00000
     24      17.9461      0.00000

 k-point    82 :       0.5000    0.4167    0.4167
  band No.  band energies     occupation 
      1      -6.8234      2.00000
      2      -6.8234      2.00000
      3      -6.1649      2.00000
      4      -6.1649      2.00000
      5      -3.6728      2.00000
      6      -3.6728      2.00000
      7      -3.0264      2.00000
      8      -3.0264      2.00000
      9       5.8376      2.00000
     10       5.8376      2.00000
     11       6.1768      2.00000
     12       6.1768      2.00000
     13       6.2842      2.00000
     14       6.2842      2.00000
     15       6.3305      2.00000
     16       6.3305      2.00000
     17      17.1194      0.00000
     18      17.1197      0.00000
     19      17.2228      0.00000
     20      17.2240      0.00000
     21      17.3713      0.00000
     22      17.3789      0.00000
     23      17.4260      0.00000
     24      17.4314      0.00000

 k-point    83 :       0.5000    0.5000    0.4167
  band No.  band energies     occupation 
      1      -6.4132      2.00000
      2      -6.4132      2.00000
      3      -6.4132      2.00000
      4      -6.4132      2.00000
      5      -3.5382      2.00000
      6      -3.5382      2.00000
      7      -3.5382      2.00000
      8      -3.5382      2.00000
      9       6.1655      2.00000
     10       6.1655      2.00000
     11       6.1655      2.00000
     12       6.1655      2.00000
     13       6.3741      2.00000
     14       6.3741      2.00000
     15       6.3741      2.00000
     16       6.3741      2.00000
     17      17.2541      0.00000
     18      17.2550      0.00000
     19      17.2558      0.00000
     20      17.2579      0.00000
     21      17.4040      0.00000
     22      17.4127      0.00000
     23      17.4237      0.00000
     24      17.4423      0.00000

 k-point    84 :       0.5000    0.5000    0.5000
  band No.  band energies     occupation 
      1      -6.2754      2.00000
      2      -6.2754      2.00000
      3      -6.2754      2.00000
      4      -6.2754      2.00000
      5      -3.7842      2.00000
      6      -3.7842      2.00000
      7      -3.7842      2.00000
      8      -3.7842      2.00000
      9       6.3816      2.00000
     10       6.3816      2.00000
     11       6.3816      2.00000
     12       6.3816      2.00000
     13       6.3816      2.00000
     14       6.3816      2.00000
     15       6.3816      2.00000
     16       6.3816      2.00000
     17      17.2413      0.00000
     18      17.2418      0.00000
     19      17.2425      0.00000
     20      17.2466      0.00000
     21      17.3202      0.00000
     22      17.3202      0.00000
     23      17.3202      0.00000
     24      17.3202      0.00000


--------------------------------------------------------------------------------------------------------


 soft charge-density along one line, spin component           1
         0         1         2         3         4         5         6         7         8         9
 total charge-density along one line
 
 pseudopotential strength for first ion, spin component:           1
  9.477  -0.004   0.000   0.000   0.000  -0.000  -0.000  -0.000
 -0.004  -0.002  -0.000  -0.000  -0.000  -0.000  -0.000  -0.000
  0.000  -0.000  -3.699  -0.000  -0.000  -0.007  -0.000  -0.000
  0.000  -0.000  -0.000  -3.699   0.000  -0.000  -0.007   0.000
  0.000  -0.000  -0.000   0.000  -3.699  -0.000   0.000  -0.007
 -0.000  -0.000  -0.007  -0.000  -0.000  -0.758  -0.000  -0.000
 -0.000  -0.000  -0.000  -0.007   0.000  -0.000  -0.758   0.000
 -0.000  -0.000  -0.000   0.000  -0.007  -0.000   0.000  -0.758
 total augmentation occupancy for first ion, spin component:           1
  1.419  -0.969   0.000  -0.000   0.000   0.000  -0.000   0.000
 -0.969   0.934   0.000  -0.000   0.000   0.000   0.000   0.000
  0.000   0.000   1.072   0.000   0.000   0.176   0.000   0.000
  0.000  -0.000   0.000   1.072   0.000   0.000   0.176  -0.000
  0.000  -0.000   0.000  -0.000   1.072   0.000   0.000   0.176
 -0.000  -0.000   0.176  -0.000  -0.000   0.034   0.000  -0.000
  0.000  -0.000  -0.000   0.176   0.000   0.000   0.034  -0.000
 -0.000  -0.000   0.000  -0.000   0.176  -0.000  -0.000   0.034


------------------------ aborting loop because EDIFF is reached ----------------------------------------


    CHARGE:  cpu time    0.1131: real time    0.1131
    FORLOC:  cpu time    0.0020: real time    0.0020
    FORNL :  cpu time    0.1986: real time    0.1986
    STRESS:  cpu time    0.4689: real time    0.4692
    FORHAR:  cpu time    0.0057: real time    0.0057
    MIXING:  cpu time    0.0019: real time    0.0019
    OFIELD:  cpu time    0.0001: real time    0.0001

  FORCE on cell =-STRESS in cart. coord.  units (eV):
  Direction    XX          YY          ZZ          XY          YZ          ZX
  --------------------------------------------------------------------------------------
  Alpha Z   109.40787   109.40787   109.40787
  Ewald    -456.40649  -456.40649  -456.40649     0.00000    -0.00000     0.00000
  Hartree    36.09482    36.09482    36.09482    -0.00000    -0.00000    -0.00000
  E(xc)    -118.38297  -118.38297  -118.38297     0.00000     0.00000    -0.00000
  Local     -50.06193   -50.06193   -50.06193    -0.00000    -0.00000     0.00000
  n-local   -26.03246   -26.84602   -26.09657     0.68801     0.84975     0.40630
  augment    -2.65947    -2.65947    -2.65947    -0.00000    -0.00000    -0.00000
  Kinetic   491.27021   506.90650   507.50810    -4.64158    -6.49179    -3.23823
  Fock        0.00000     0.00000     0.00000     0.00000     0.00000     0.00000
  -------------------------------------------------------------------------------------
  Total      -6.43824    -6.43824    -6.43824     0.00000     0.00000     0.00000
  in kB    -216.41865  -216.41865  -216.41865     0.00000     0.00000     0.00000
  external pressure =     -216.42 kB  Pullay stress =        0.00 kB


 VOLUME and BASIS-vectors are now :
 -----------------------------------------------------------------------------
  energy-cutoff  :      400.00
  volume of cell :       47.66
      direct lattice vectors                 reciprocal lattice vectors
     3.625721445  0.000000000  0.000000000     0.275807178  0.000000000  0.000000000
     0.000000000  3.625721445  0.000000000     0.000000000  0.275807178  0.000000000
     0.000000000  0.000000000  3.625721445     0.000000000  0.000000000  0.275807178

  length of vectors
     3.625721445  3.625721445  3.625721445     0.275807178  0.275807178  0.275807178


 FORCES acting on ions
    electron-ion (+dipol)            ewald-force                    non-local-force                 convergence-correction
 -----------------------------------------------------------------------------------------------
   0.157E-13 -.152E-12 0.534E-13   -.213E-13 -.711E-14 0.000E+00   -.199E-16 -.770E-17 -.305E-16   -.170E-14 -.842E-15 -.111E-13
   0.000E+00 0.155E-14 0.669E-13   -.146E-13 0.588E-14 0.213E-13   0.177E-16 -.152E-16 0.443E-16   0.548E-14 -.232E-14 -.106E-13
   0.784E-14 -.171E-12 0.723E-13   -.711E-14 -.711E-14 -.711E-14   -.211E-16 0.133E-16 -.279E-16   -.196E-14 -.954E-15 -.116E-13
   0.000E+00 0.225E-13 0.444E-13   -.833E-15 0.712E-14 0.132E-13   -.463E-17 -.140E-16 0.493E-16   0.557E-14 -.929E-15 -.912E-14
   0.235E-13 0.208E-12 0.438E-12   0.000E+00 -.711E-14 -.142E-13   -.125E-16 0.117E-16 -.420E-16   -.386E-14 -.753E-15 -.108E-13
   0.235E-13 0.483E-14 -.368E-12   0.292E-16 0.501E-14 0.614E-14   0.304E-16 0.259E-17 0.388E-16   -.167E-14 -.343E-14 -.898E-14
   0.314E-13 -.193E-12 0.385E-13   0.142E-13 -.711E-14 -.213E-13   -.642E-18 0.240E-17 -.479E-16   -.318E-14 -.118E-14 -.105E-13
   0.314E-13 0.379E-12 0.652E-13   0.143E-13 0.712E-14 0.847E-16   0.223E-16 -.246E-16 0.270E-16   -.194E-14 -.135E-14 -.102E-13
 -----------------------------------------------------------------------------------------------
   0.133E-12 0.990E-13 0.411E-12   -.153E-13 -.329E-14 -.183E-14   0.117E-16 -.314E-16 0.111E-16   -.325E-14 -.118E-13 -.829E-13
 
 
 POSITION                                       TOTAL-FORCE (eV/Angst)
 -----------------------------------------------------------------------------------
      0.90643      2.71929      0.90643        -0.000000      0.000000      0.000000
      0.00000      0.00000      1.81286        -0.000000      0.000000      0.000000
      0.90643      0.90643      2.71929         0.000000     -0.000000     -0.000000
      0.00000      1.81286      0.00000        -0.000000     -0.000000      0.000000
      2.71929      2.71929      2.71929         0.000000     -0.000000     -0.000000
      1.81286      0.00000      0.00000         0.000000     -0.000000     -0.000000
      2.71929      0.90643      0.90643         0.000000      0.000000      0.000000
      1.81286      1.81286      1.81286        -0.000000      0.000000     -0.000000
 -----------------------------------------------------------------------------------
    total drift:                                0.000000      0.000000      0.000000


--------------------------------------------------------------------------------------------------------



  FREE ENERGIE OF THE ION-ELECTRON SYSTEM (eV)
  ---------------------------------------------------
  free  energy   TOTEN  =       -72.63223628 eV

  energy  without entropy=      -72.63223628  energy(sigma->0) =      -72.63223628
 


--------------------------------------------------------------------------------------------------------


    POTLOK:  cpu time    0.0275: real time    0.0275


--------------------------------------------------------------------------------------------------------


     LOOP+:  cpu time   49.9876: real time   50.4175
    4ORBIT:  cpu time    0.0000: real time    0.0000
 BZINTS: Fermi energy:  9.132165; 32.000000 electrons
         Band energy:  12.148195;  BLOECHL correction:  0.000000

 total amount of memory used by VASP MPI-rank0    34053. kBytes
=======================================================================

   base      :      30000. kBytes
   nonl-proj :       1254. kBytes
   fftplans  :        345. kBytes
   grid      :        481. kBytes
   one-center:          6. kBytes
   wavefun   :       1967. kBytes
 
  
  
 General timing and accounting informations for this job:
 ========================================================
  
                  Total CPU time used (sec):       52.445
                            User time (sec):       50.473
                          System time (sec):        1.972
                         Elapsed time (sec):       55.239
  
                   Maximum memory used (kb):      187560.
                   Average memory used (kb):           0.
  
                          Minor page faults:        36890
                          Major page faults:           36
                 Voluntary context switches:          789
