   8   8   0   0
  0.5320849E+01  0.3443406E-09  0.3443406E-09  0.3589999E-09  0.2000000E-16
  1.000000000000000E-004
  CAR 
 unknown system                          
     24.71646599    -13.38015605  301     11.00961885      1.00000000
    -13.380  0.0000E+00  0.0000E+00
    -13.253  0.0000E+00  0.0000E+00
    -13.126  0.0000E+00  0.0000E+00
    -12.999  0.0000E+00  0.0000E+00
    -12.872  0.0000E+00  0.0000E+00
    -12.745  0.0000E+00  0.0000E+00
    -12.618  0.0000E+00  0.0000E+00
    -12.491  0.0000E+00  0.0000E+00
    -12.364  0.0000E+00  0.0000E+00
    -12.237  0.0000E+00  0.0000E+00
    -12.110  0.0000E+00  0.0000E+00
    -11.983  0.0000E+00  0.0000E+00
    -11.856  0.0000E+00  0.0000E+00
    -11.729  0.0000E+00  0.0000E+00
    -11.602  0.3286E-01  0.5058E-03
    -11.475  0.1465E+00  0.1479E-01
    -11.348  0.2289E+00  0.3859E-01
    -11.221  0.2593E+00  0.6933E-01
    -11.094  0.3043E+00  0.1051E+00
    -10.967  0.3434E+00  0.1466E+00
    -10.840  0.3702E+00  0.1918E+00
    -10.713  0.3994E+00  0.2406E+00
    -10.586  0.4342E+00  0.2936E+00
    -10.459  0.4583E+00  0.3504E+00
    -10.332  0.4800E+00  0.4100E+00
    -10.205  0.5041E+00  0.4724E+00
    -10.078  0.5307E+00  0.5381E+00
     -9.951  0.5546E+00  0.6070E+00
     -9.824  0.5744E+00  0.6788E+00
     -9.697  0.5938E+00  0.7530E+00
     -9.570  0.6138E+00  0.8296E+00
     -9.444  0.6350E+00  0.9089E+00
     -9.317  0.6564E+00  0.9910E+00
     -9.190  0.6776E+00  0.1076E+01
     -9.063  0.6944E+00  0.1163E+01
     -8.936  0.7113E+00  0.1252E+01
     -8.809  0.7294E+00  0.1344E+01
     -8.682  0.7485E+00  0.1437E+01
     -8.555  0.7681E+00  0.1534E+01
     -8.428  0.7865E+00  0.1632E+01
     -8.301  0.8053E+00  0.1733E+01
     -8.174  0.8213E+00  0.1837E+01
     -8.047  0.8383E+00  0.1942E+01
     -7.920  0.8563E+00  0.2050E+01
     -7.793  0.8748E+00  0.2160E+01
     -7.666  0.9091E+00  0.2272E+01
     -7.539  0.9450E+00  0.2390E+01
     -7.412  0.9922E+00  0.2513E+01
     -7.285  0.1023E+01  0.2642E+01
     -7.158  0.1036E+01  0.2773E+01
     -7.031  0.1020E+01  0.2904E+01
     -6.904  0.9909E+00  0.3031E+01
     -6.777  0.9949E+00  0.3157E+01
     -6.650  0.9944E+00  0.3284E+01
     -6.523  0.9972E+00  0.3410E+01
     -6.396  0.1019E+01  0.3538E+01
     -6.269  0.1071E+01  0.3670E+01
     -6.142  0.1123E+01  0.3809E+01
     -6.015  0.1166E+01  0.3956E+01
     -5.888  0.1178E+01  0.4104E+01
     -5.761  0.1250E+01  0.4257E+01
     -5.634  0.1355E+01  0.4420E+01
     -5.507  0.1511E+01  0.4603E+01
     -5.380  0.1497E+01  0.4799E+01
     -5.253  0.1454E+01  0.4984E+01
     -5.126  0.1395E+01  0.5169E+01
     -4.999  0.1286E+01  0.5337E+01
     -4.872  0.1305E+01  0.5501E+01
     -4.745  0.1317E+01  0.5668E+01
     -4.618  0.1299E+01  0.5837E+01
     -4.491  0.1201E+01  0.5995E+01
     -4.364  0.1154E+01  0.6143E+01
     -4.237  0.1131E+01  0.6289E+01
     -4.110  0.1098E+01  0.6430E+01
     -3.983  0.1109E+01  0.6570E+01
     -3.856  0.1036E+01  0.6706E+01
     -3.729  0.9952E+00  0.6835E+01
     -3.602  0.9906E+00  0.6960E+01
     -3.475  0.9422E+00  0.7083E+01
     -3.348  0.9144E+00  0.7201E+01
     -3.221  0.1006E+01  0.7319E+01
     -3.094  0.1081E+01  0.7455E+01
     -2.967  0.1154E+01  0.7595E+01
     -2.840  0.1114E+01  0.7740E+01
     -2.713  0.1063E+01  0.7878E+01
     -2.586  0.1049E+01  0.8011E+01
     -2.459  0.1088E+01  0.8148E+01
     -2.332  0.1079E+01  0.8285E+01
     -2.205  0.1070E+01  0.8422E+01
     -2.078  0.1004E+01  0.8552E+01
     -1.951  0.1082E+01  0.8685E+01
     -1.824  0.1181E+01  0.8829E+01
     -1.697  0.1323E+01  0.8987E+01
     -1.570  0.1521E+01  0.9168E+01
     -1.443  0.1823E+01  0.9380E+01
     -1.316  0.2033E+01  0.9625E+01
     -1.189  0.2442E+01  0.9906E+01
     -1.062  0.2326E+01  0.1022E+02
     -0.935  0.2082E+01  0.1050E+02
     -0.808  0.1923E+01  0.1075E+02
     -0.681  0.1700E+01  0.1097E+02
     -0.554  0.1527E+01  0.1118E+02
     -0.427  0.1439E+01  0.1137E+02
     -0.300  0.1370E+01  0.1155E+02
     -0.173  0.1324E+01  0.1172E+02
     -0.046  0.1306E+01  0.1188E+02
      0.081  0.1254E+01  0.1205E+02
      0.208  0.1193E+01  0.1220E+02
      0.335  0.1142E+01  0.1235E+02
      0.462  0.1158E+01  0.1249E+02
      0.589  0.1137E+01  0.1264E+02
      0.716  0.1113E+01  0.1278E+02
      0.843  0.1126E+01  0.1292E+02
      0.970  0.1216E+01  0.1307E+02
      1.097  0.1433E+01  0.1324E+02
      1.224  0.1760E+01  0.1344E+02
      1.351  0.1980E+01  0.1368E+02
      1.478  0.2179E+01  0.1395E+02
      1.605  0.2099E+01  0.1422E+02
      1.732  0.1982E+01  0.1448E+02
      1.858  0.2024E+01  0.1473E+02
      1.985  0.2105E+01  0.1499E+02
      2.112  0.2053E+01  0.1526E+02
      2.239  0.1772E+01  0.1550E+02
      2.366  0.1377E+01  0.1571E+02
      2.493  0.1516E+01  0.1588E+02
      2.620  0.1812E+01  0.1609E+02
      2.747  0.2128E+01  0.1634E+02
      2.874  0.2199E+01  0.1662E+02
      3.001  0.2242E+01  0.1690E+02
      3.128  0.2296E+01  0.1719E+02
      3.255  0.2273E+01  0.1748E+02
      3.382  0.2275E+01  0.1777E+02
      3.509  0.2561E+01  0.1807E+02
      3.636  0.2724E+01  0.1842E+02
      3.763  0.2778E+01  0.1877E+02
      3.890  0.2938E+01  0.1913E+02
      4.017  0.2504E+01  0.1948E+02
      4.144  0.2370E+01  0.1979E+02
      4.271  0.2528E+01  0.2009E+02
      4.398  0.2916E+01  0.2044E+02
      4.525  0.3241E+01  0.2083E+02
      4.652  0.3223E+01  0.2124E+02
      4.779  0.3071E+01  0.2164E+02
      4.906  0.2993E+01  0.2203E+02
      5.033  0.2791E+01  0.2240E+02
      5.160  0.2808E+01  0.2276E+02
      5.287  0.2625E+01  0.2310E+02
      5.414  0.2538E+01  0.2343E+02
      5.541  0.2555E+01  0.2375E+02
      5.668  0.2901E+01  0.2409E+02
      5.795  0.2905E+01  0.2446E+02
      5.922  0.2860E+01  0.2483E+02
      6.049  0.2837E+01  0.2519E+02
      6.176  0.2809E+01  0.2555E+02
      6.303  0.2546E+01  0.2589E+02
      6.430  0.2317E+01  0.2620E+02
      6.557  0.2296E+01  0.2649E+02
      6.684  0.2374E+01  0.2679E+02
      6.811  0.2442E+01  0.2709E+02
      6.938  0.2543E+01  0.2741E+02
      7.065  0.2539E+01  0.2773E+02
      7.192  0.2487E+01  0.2805E+02
      7.319  0.2272E+01  0.2836E+02
      7.446  0.2253E+01  0.2865E+02
      7.573  0.2363E+01  0.2894E+02
      7.700  0.2164E+01  0.2923E+02
      7.827  0.1939E+01  0.2950E+02
      7.954  0.1796E+01  0.2973E+02
      8.081  0.1744E+01  0.2996E+02
      8.208  0.1625E+01  0.3018E+02
      8.335  0.1405E+01  0.3037E+02
      8.462  0.1291E+01  0.3054E+02
      8.589  0.1198E+01  0.3070E+02
      8.716  0.1082E+01  0.3084E+02
      8.843  0.1007E+01  0.3097E+02
      8.970  0.9457E+00  0.3110E+02
      9.097  0.8827E+00  0.3121E+02
      9.224  0.8197E+00  0.3132E+02
      9.351  0.7394E+00  0.3142E+02
      9.478  0.6685E+00  0.3151E+02
      9.605  0.6060E+00  0.3159E+02
      9.732  0.5711E+00  0.3166E+02
      9.859  0.5111E+00  0.3173E+02
      9.986  0.4435E+00  0.3179E+02
     10.113  0.3650E+00  0.3185E+02
     10.240  0.3205E+00  0.3189E+02
     10.367  0.2497E+00  0.3192E+02
     10.494  0.2131E+00  0.3195E+02
     10.621  0.1485E+00  0.3198E+02
     10.748  0.8931E-01  0.3199E+02
     10.875  0.1313E-01  0.3200E+02
     11.002  0.0000E+00  0.3200E+02
     11.129  0.0000E+00  0.3200E+02
     11.256  0.0000E+00  0.3200E+02
     11.383  0.0000E+00  0.3200E+02
     11.510  0.0000E+00  0.3200E+02
     11.637  0.0000E+00  0.3200E+02
     11.764  0.0000E+00  0.3200E+02
     11.891  0.0000E+00  0.3200E+02
     12.018  0.0000E+00  0.3200E+02
     12.145  0.0000E+00  0.3200E+02
     12.272  0.0000E+00  0.3200E+02
     12.399  0.0000E+00  0.3200E+02
     12.526  0.0000E+00  0.3200E+02
     12.653  0.0000E+00  0.3200E+02
     12.780  0.0000E+00  0.3200E+02
     12.907  0.0000E+00  0.3200E+02
     13.034  0.0000E+00  0.3200E+02
     13.160  0.0000E+00  0.3200E+02
     13.287  0.0000E+00  0.3200E+02
     13.414  0.0000E+00  0.3200E+02
     13.541  0.0000E+00  0.3200E+02
     13.668  0.0000E+00  0.3200E+02
     13.795  0.0000E+00  0.3200E+02
     13.922  0.0000E+00  0.3200E+02
     14.049  0.0000E+00  0.3200E+02
     14.176  0.0000E+00  0.3200E+02
     14.303  0.0000E+00  0.3200E+02
     14.430  0.0000E+00  0.3200E+02
     14.557  0.0000E+00  0.3200E+02
     14.684  0.4578E-02  0.3200E+02
     14.811  0.8036E-01  0.3200E+02
     14.938  0.2052E+00  0.3202E+02
     15.065  0.3286E+00  0.3206E+02
     15.192  0.3742E+00  0.3210E+02
     15.319  0.4109E+00  0.3215E+02
     15.446  0.5238E+00  0.3221E+02
     15.573  0.5794E+00  0.3228E+02
     15.700  0.7262E+00  0.3236E+02
     15.827  0.9343E+00  0.3247E+02
     15.954  0.9741E+00  0.3259E+02
     16.081  0.1097E+01  0.3273E+02
     16.208  0.1119E+01  0.3287E+02
     16.335  0.1203E+01  0.3301E+02
     16.462  0.1350E+01  0.3318E+02
     16.589  0.1564E+01  0.3336E+02
     16.716  0.1754E+01  0.3357E+02
     16.843  0.1939E+01  0.3381E+02
     16.970  0.1795E+01  0.3404E+02
     17.097  0.1800E+01  0.3427E+02
     17.224  0.1852E+01  0.3450E+02
     17.351  0.1933E+01  0.3474E+02
     17.478  0.2050E+01  0.3499E+02
     17.605  0.2161E+01  0.3526E+02
     17.732  0.2308E+01  0.3554E+02
     17.859  0.2318E+01  0.3584E+02
     17.986  0.2400E+01  0.3614E+02
     18.113  0.2537E+01  0.3645E+02
     18.240  0.2621E+01  0.3678E+02
     18.367  0.2768E+01  0.3712E+02
     18.494  0.3113E+01  0.3749E+02
     18.621  0.3254E+01  0.3790E+02
     18.748  0.3631E+01  0.3833E+02
     18.875  0.4431E+01  0.3883E+02
     19.002  0.4496E+01  0.3941E+02
     19.129  0.3306E+01  0.3989E+02
     19.256  0.3065E+01  0.4029E+02
     19.383  0.2681E+01  0.4064E+02
     19.510  0.3325E+01  0.4101E+02
     19.637  0.3424E+01  0.4143E+02
     19.764  0.3248E+01  0.4184E+02
     19.891  0.3036E+01  0.4225E+02
     20.018  0.2824E+01  0.4262E+02
     20.145  0.2776E+01  0.4298E+02
     20.272  0.2807E+01  0.4333E+02
     20.399  0.2939E+01  0.4370E+02
     20.526  0.2830E+01  0.4406E+02
     20.653  0.2701E+01  0.4442E+02
     20.780  0.2894E+01  0.4477E+02
     20.907  0.3059E+01  0.4516E+02
     21.034  0.2889E+01  0.4554E+02
     21.161  0.2643E+01  0.4589E+02
     21.288  0.2535E+01  0.4621E+02
     21.415  0.2556E+01  0.4654E+02
     21.542  0.2293E+01  0.4685E+02
     21.669  0.2013E+01  0.4712E+02
     21.796  0.1657E+01  0.4735E+02
     21.923  0.1354E+01  0.4754E+02
     22.050  0.1410E+01  0.4771E+02
     22.177  0.7788E+00  0.4785E+02
     22.304  0.4608E+00  0.4792E+02
     22.431  0.2280E+00  0.4797E+02
     22.558  0.1006E+00  0.4799E+02
     22.685  0.4282E-01  0.4800E+02
     22.812  0.1722E-01  0.4800E+02
     22.939  0.2597E-02  0.4800E+02
     23.066  0.0000E+00  0.4800E+02
     23.193  0.0000E+00  0.4800E+02
     23.320  0.0000E+00  0.4800E+02
     23.447  0.0000E+00  0.4800E+02
     23.574  0.0000E+00  0.4800E+02
     23.701  0.0000E+00  0.4800E+02
     23.828  0.0000E+00  0.4800E+02
     23.955  0.0000E+00  0.4800E+02
     24.082  0.0000E+00  0.4800E+02
     24.209  0.0000E+00  0.4800E+02
     24.335  0.0000E+00  0.4800E+02
     24.462  0.0000E+00  0.4800E+02
     24.589  0.0000E+00  0.4800E+02
     24.716  0.0000E+00  0.4800E+02
