       N       E                     dE             d eps       ncg     rms          rms(c)
DAV:   1     0.583342628580E+02    0.58334E+02   -0.14626E+04  9408   0.106E+03
DAV:   2    -0.712187871228E+02   -0.12955E+03   -0.12309E+03 12880   0.226E+02
DAV:   3    -0.752982252487E+02   -0.40794E+01   -0.40601E+01 12296   0.374E+01
DAV:   4    -0.753355537274E+02   -0.37328E-01   -0.37299E-01 11584   0.395E+00
DAV:   5    -0.753362365511E+02   -0.68282E-03   -0.68248E-03 12248   0.474E-01    0.103E+01
DAV:   6    -0.730506651600E+02    0.22856E+01   -0.14923E+00 10448   0.710E+00    0.556E+00
DAV:   7    -0.722805600354E+02    0.77011E+00   -0.16570E+00 10928   0.769E+00    0.712E-01
DAV:   8    -0.722886813235E+02   -0.81213E-02   -0.31396E-02 11728   0.104E+00    0.845E-02
DAV:   9    -0.722888803142E+02   -0.19899E-03   -0.42072E-04 11296   0.141E-01    0.292E-02
DAV:  10    -0.722889296496E+02   -0.49335E-04   -0.39374E-05 11768   0.487E-02    0.280E-03
DAV:  11    -0.722889303907E+02   -0.74101E-06   -0.10052E-06  8688   0.720E-03
   1 F= -.72288930E+02 E0= -.72288930E+02  d E =0.000000E+00
