   8   8   0   0
  0.5705161E+01  0.3573710E-09  0.3573710E-09  0.3573710E-09  0.2000000E-16
  1.000000000000000E-004
  CAR 
 unknown system                          
     22.98216540    -13.38072190  301      9.78546755      1.00000000
    -13.381  0.0000E+00  0.0000E+00
    -13.260  0.0000E+00  0.0000E+00
    -13.138  0.0000E+00  0.0000E+00
    -13.017  0.0000E+00  0.0000E+00
    -12.896  0.0000E+00  0.0000E+00
    -12.775  0.0000E+00  0.0000E+00
    -12.653  0.0000E+00  0.0000E+00
    -12.532  0.0000E+00  0.0000E+00
    -12.411  0.0000E+00  0.0000E+00
    -12.290  0.0000E+00  0.0000E+00
    -12.169  0.0000E+00  0.0000E+00
    -12.047  0.0000E+00  0.0000E+00
    -11.926  0.0000E+00  0.0000E+00
    -11.805  0.0000E+00  0.0000E+00
    -11.684  0.3451E-01  0.5071E-03
    -11.563  0.1536E+00  0.1482E-01
    -11.441  0.2407E+00  0.3867E-01
    -11.320  0.2721E+00  0.6945E-01
    -11.199  0.3193E+00  0.1053E+00
    -11.078  0.3599E+00  0.1469E+00
    -10.957  0.3887E+00  0.1922E+00
    -10.835  0.4194E+00  0.2411E+00
    -10.714  0.4576E+00  0.2942E+00
    -10.593  0.4810E+00  0.3513E+00
    -10.472  0.5043E+00  0.4110E+00
    -10.350  0.5298E+00  0.4736E+00
    -10.229  0.5580E+00  0.5395E+00
    -10.108  0.5855E+00  0.6089E+00
     -9.987  0.6044E+00  0.6810E+00
     -9.866  0.6243E+00  0.7554E+00
     -9.744  0.6460E+00  0.8324E+00
     -9.623  0.6685E+00  0.9121E+00
     -9.502  0.6926E+00  0.9945E+00
     -9.381  0.7144E+00  0.1080E+01
     -9.260  0.7321E+00  0.1168E+01
     -9.138  0.7495E+00  0.1257E+01
     -9.017  0.7694E+00  0.1349E+01
     -8.896  0.7898E+00  0.1444E+01
     -8.775  0.8111E+00  0.1541E+01
     -8.654  0.8332E+00  0.1641E+01
     -8.532  0.8507E+00  0.1743E+01
     -8.411  0.8682E+00  0.1847E+01
     -8.290  0.8867E+00  0.1953E+01
     -8.169  0.9058E+00  0.2062E+01
     -8.047  0.9253E+00  0.2173E+01
     -7.926  0.9488E+00  0.2286E+01
     -7.805  0.1010E+01  0.2406E+01
     -7.684  0.1036E+01  0.2530E+01
     -7.563  0.1084E+01  0.2660E+01
     -7.441  0.1085E+01  0.2791E+01
     -7.320  0.1059E+01  0.2921E+01
     -7.199  0.1028E+01  0.3048E+01
     -7.078  0.1061E+01  0.3175E+01
     -6.957  0.1074E+01  0.3304E+01
     -6.835  0.1081E+01  0.3435E+01
     -6.714  0.1106E+01  0.3567E+01
     -6.593  0.1166E+01  0.3705E+01
     -6.472  0.1202E+01  0.3849E+01
     -6.351  0.1309E+01  0.4003E+01
     -6.229  0.1358E+01  0.4166E+01
     -6.108  0.1433E+01  0.4333E+01
     -5.987  0.1591E+01  0.4518E+01
     -5.866  0.1554E+01  0.4714E+01
     -5.745  0.1538E+01  0.4904E+01
     -5.623  0.1460E+01  0.5088E+01
     -5.502  0.1403E+01  0.5260E+01
     -5.381  0.1414E+01  0.5433E+01
     -5.260  0.1401E+01  0.5602E+01
     -5.138  0.1376E+01  0.5773E+01
     -5.017  0.1285E+01  0.5936E+01
     -4.896  0.1217E+01  0.6087E+01
     -4.775  0.1202E+01  0.6233E+01
     -4.654  0.1171E+01  0.6377E+01
     -4.532  0.1186E+01  0.6522E+01
     -4.411  0.1076E+01  0.6658E+01
     -4.290  0.1086E+01  0.6790E+01
     -4.169  0.1112E+01  0.6921E+01
     -4.048  0.1008E+01  0.7047E+01
     -3.926  0.9606E+00  0.7166E+01
     -3.805  0.9823E+00  0.7283E+01
     -3.684  0.1027E+01  0.7400E+01
     -3.563  0.8832E+00  0.7513E+01
     -3.442  0.9947E+00  0.7625E+01
     -3.320  0.9345E+00  0.7742E+01
     -3.199  0.1019E+01  0.7861E+01
     -3.078  0.9407E+00  0.7979E+01
     -2.957  0.1000E+01  0.8104E+01
     -2.835  0.1018E+01  0.8221E+01
     -2.714  0.9735E+00  0.8341E+01
     -2.593  0.9558E+00  0.8457E+01
     -2.472  0.1029E+01  0.8577E+01
     -2.351  0.1174E+01  0.8709E+01
     -2.229  0.1368E+01  0.8864E+01
     -2.108  0.1583E+01  0.9043E+01
     -1.987  0.1825E+01  0.9249E+01
     -1.866  0.2302E+01  0.9494E+01
     -1.745  0.2949E+01  0.9811E+01
     -1.623  0.3023E+01  0.1018E+02
     -1.502  0.2362E+01  0.1050E+02
     -1.381  0.1841E+01  0.1075E+02
     -1.260  0.1683E+01  0.1096E+02
     -1.139  0.1572E+01  0.1116E+02
     -1.017  0.1483E+01  0.1134E+02
     -0.896  0.1412E+01  0.1152E+02
     -0.775  0.1376E+01  0.1168E+02
     -0.654  0.1342E+01  0.1185E+02
     -0.533  0.1302E+01  0.1201E+02
     -0.411  0.1296E+01  0.1217E+02
     -0.290  0.1151E+01  0.1233E+02
     -0.169  0.1115E+01  0.1246E+02
     -0.048  0.1095E+01  0.1260E+02
      0.074  0.1082E+01  0.1273E+02
      0.195  0.1074E+01  0.1286E+02
      0.316  0.1061E+01  0.1299E+02
      0.437  0.1031E+01  0.1312E+02
      0.558  0.1320E+01  0.1326E+02
      0.680  0.1573E+01  0.1343E+02
      0.801  0.1826E+01  0.1364E+02
      0.922  0.2218E+01  0.1388E+02
      1.043  0.2257E+01  0.1416E+02
      1.164  0.2127E+01  0.1443E+02
      1.286  0.2162E+01  0.1469E+02
      1.407  0.2242E+01  0.1495E+02
      1.528  0.2154E+01  0.1522E+02
      1.649  0.1804E+01  0.1546E+02
      1.770  0.1698E+01  0.1566E+02
      1.892  0.1563E+01  0.1585E+02
      2.013  0.1862E+01  0.1606E+02
      2.134  0.2107E+01  0.1630E+02
      2.255  0.2279E+01  0.1656E+02
      2.377  0.2325E+01  0.1685E+02
      2.498  0.2379E+01  0.1713E+02
      2.619  0.2322E+01  0.1742E+02
      2.740  0.2362E+01  0.1770E+02
      2.861  0.2651E+01  0.1800E+02
      2.983  0.2935E+01  0.1833E+02
      3.104  0.3001E+01  0.1872E+02
      3.225  0.2689E+01  0.1906E+02
      3.346  0.2281E+01  0.1937E+02
      3.467  0.2719E+01  0.1966E+02
      3.589  0.2807E+01  0.2001E+02
      3.710  0.2793E+01  0.2035E+02
      3.831  0.3462E+01  0.2072E+02
      3.952  0.4076E+01  0.2118E+02
      4.073  0.3622E+01  0.2166E+02
      4.195  0.3078E+01  0.2206E+02
      4.316  0.2582E+01  0.2240E+02
      4.437  0.2547E+01  0.2271E+02
      4.558  0.3011E+01  0.2304E+02
      4.680  0.2764E+01  0.2339E+02
      4.801  0.2839E+01  0.2373E+02
      4.922  0.3009E+01  0.2409E+02
      5.043  0.2939E+01  0.2445E+02
      5.164  0.2968E+01  0.2481E+02
      5.286  0.3063E+01  0.2517E+02
      5.407  0.3074E+01  0.2555E+02
      5.528  0.2720E+01  0.2590E+02
      5.649  0.2490E+01  0.2621E+02
      5.770  0.2358E+01  0.2650E+02
      5.892  0.2380E+01  0.2679E+02
      6.013  0.2754E+01  0.2709E+02
      6.134  0.2888E+01  0.2743E+02
      6.255  0.2769E+01  0.2777E+02
      6.376  0.2718E+01  0.2810E+02
      6.498  0.2587E+01  0.2843E+02
      6.619  0.2410E+01  0.2873E+02
      6.740  0.2317E+01  0.2902E+02
      6.861  0.3630E+01  0.2934E+02
      6.982  0.1984E+01  0.2967E+02
      7.104  0.1763E+01  0.2990E+02
      7.225  0.1698E+01  0.3010E+02
      7.346  0.1492E+01  0.3029E+02
      7.467  0.1375E+01  0.3046E+02
      7.589  0.1301E+01  0.3063E+02
      7.710  0.1220E+01  0.3078E+02
      7.831  0.1142E+01  0.3092E+02
      7.952  0.1019E+01  0.3105E+02
      8.073  0.9189E+00  0.3117E+02
      8.195  0.8746E+00  0.3128E+02
      8.316  0.8252E+00  0.3138E+02
      8.437  0.7671E+00  0.3148E+02
      8.558  0.6941E+00  0.3157E+02
      8.679  0.6179E+00  0.3165E+02
      8.801  0.5483E+00  0.3172E+02
      8.922  0.5273E+00  0.3178E+02
      9.043  0.4101E+00  0.3184E+02
      9.164  0.3397E+00  0.3189E+02
      9.285  0.3834E+00  0.3193E+02
      9.407  0.2070E+00  0.3197E+02
      9.528  0.1160E+00  0.3199E+02
      9.649  0.1332E-01  0.3200E+02
      9.770  0.0000E+00  0.3200E+02
      9.892  0.0000E+00  0.3200E+02
     10.013  0.0000E+00  0.3200E+02
     10.134  0.0000E+00  0.3200E+02
     10.255  0.0000E+00  0.3200E+02
     10.376  0.0000E+00  0.3200E+02
     10.498  0.0000E+00  0.3200E+02
     10.619  0.0000E+00  0.3200E+02
     10.740  0.0000E+00  0.3200E+02
     10.861  0.0000E+00  0.3200E+02
     10.982  0.0000E+00  0.3200E+02
     11.104  0.0000E+00  0.3200E+02
     11.225  0.0000E+00  0.3200E+02
     11.346  0.0000E+00  0.3200E+02
     11.467  0.0000E+00  0.3200E+02
     11.588  0.0000E+00  0.3200E+02
     11.710  0.0000E+00  0.3200E+02
     11.831  0.0000E+00  0.3200E+02
     11.952  0.0000E+00  0.3200E+02
     12.073  0.0000E+00  0.3200E+02
     12.195  0.0000E+00  0.3200E+02
     12.316  0.0000E+00  0.3200E+02
     12.437  0.0000E+00  0.3200E+02
     12.558  0.0000E+00  0.3200E+02
     12.679  0.0000E+00  0.3200E+02
     12.801  0.0000E+00  0.3200E+02
     12.922  0.0000E+00  0.3200E+02
     13.043  0.0000E+00  0.3200E+02
     13.164  0.0000E+00  0.3200E+02
     13.285  0.0000E+00  0.3200E+02
     13.407  0.0000E+00  0.3200E+02
     13.528  0.0000E+00  0.3200E+02
     13.649  0.0000E+00  0.3200E+02
     13.770  0.0000E+00  0.3200E+02
     13.891  0.6511E-01  0.3200E+02
     14.013  0.2327E+00  0.3202E+02
     14.134  0.4674E+00  0.3206E+02
     14.255  0.5904E+00  0.3213E+02
     14.376  0.5920E+00  0.3220E+02
     14.497  0.7224E+00  0.3228E+02
     14.619  0.8814E+00  0.3238E+02
     14.740  0.9729E+00  0.3249E+02
     14.861  0.1987E+01  0.3263E+02
     14.982  0.1461E+01  0.3282E+02
     15.104  0.1431E+01  0.3299E+02
     15.225  0.1474E+01  0.3317E+02
     15.346  0.1527E+01  0.3335E+02
     15.467  0.1615E+01  0.3354E+02
     15.588  0.1735E+01  0.3374E+02
     15.710  0.1849E+01  0.3396E+02
     15.831  0.2083E+01  0.3420E+02
     15.952  0.2305E+01  0.3447E+02
     16.073  0.2148E+01  0.3475E+02
     16.194  0.2063E+01  0.3500E+02
     16.316  0.2075E+01  0.3525E+02
     16.437  0.2146E+01  0.3551E+02
     16.558  0.2269E+01  0.3577E+02
     16.679  0.2441E+01  0.3606E+02
     16.800  0.2588E+01  0.3636E+02
     16.922  0.2795E+01  0.3669E+02
     17.043  0.2788E+01  0.3703E+02
     17.164  0.2880E+01  0.3737E+02
     17.285  0.3034E+01  0.3773E+02
     17.407  0.3347E+01  0.3811E+02
     17.528  0.3556E+01  0.3853E+02
     17.649  0.3976E+01  0.3899E+02
     17.770  0.4437E+01  0.3951E+02
     17.891  0.4589E+01  0.4005E+02
     18.013  0.4057E+01  0.4060E+02
     18.134  0.3149E+01  0.4102E+02
     18.255  0.3419E+01  0.4140E+02
     18.376  0.4079E+01  0.4186E+02
     18.497  0.3606E+01  0.4237E+02
     18.619  0.3502E+01  0.4279E+02
     18.740  0.3744E+01  0.4323E+02
     18.861  0.3771E+01  0.4369E+02
     18.982  0.3185E+01  0.4411E+02
     19.103  0.2780E+01  0.4447E+02
     19.225  0.2594E+01  0.4479E+02
     19.346  0.2520E+01  0.4510E+02
     19.467  0.2669E+01  0.4541E+02
     19.588  0.2887E+01  0.4575E+02
     19.710  0.2728E+01  0.4608E+02
     19.831  0.2812E+01  0.4642E+02
     19.952  0.2684E+01  0.4676E+02
     20.073  0.2569E+01  0.4708E+02
     20.194  0.2047E+01  0.4736E+02
     20.316  0.1605E+01  0.4758E+02
     20.437  0.1197E+01  0.4775E+02
     20.558  0.5343E+00  0.4785E+02
     20.679  0.4010E+00  0.4790E+02
     20.800  0.2389E+00  0.4794E+02
     20.922  0.1705E+00  0.4797E+02
     21.043  0.1165E+00  0.4798E+02
     21.164  0.6526E-01  0.4799E+02
     21.285  0.1617E-01  0.4800E+02
     21.406  0.0000E+00  0.4800E+02
     21.528  0.0000E+00  0.4800E+02
     21.649  0.0000E+00  0.4800E+02
     21.770  0.0000E+00  0.4800E+02
     21.891  0.0000E+00  0.4800E+02
     22.012  0.0000E+00  0.4800E+02
     22.134  0.0000E+00  0.4800E+02
     22.255  0.0000E+00  0.4800E+02
     22.376  0.0000E+00  0.4800E+02
     22.497  0.0000E+00  0.4800E+02
     22.619  0.0000E+00  0.4800E+02
     22.740  0.0000E+00  0.4800E+02
     22.861  0.0000E+00  0.4800E+02
     22.982  0.0000E+00  0.4800E+02
