   8   8   0   0
  0.6311783E+01  0.3696131E-09  0.3696131E-09  0.3696131E-09  0.2000000E-16
  1.000000000000000E-004
  CAR 
 unknown system                          
     20.53521319    -13.36890194  301      8.34385846      1.00000000
    -13.369  0.0000E+00  0.0000E+00
    -13.256  0.0000E+00  0.0000E+00
    -13.143  0.0000E+00  0.0000E+00
    -13.030  0.0000E+00  0.0000E+00
    -12.917  0.0000E+00  0.0000E+00
    -12.804  0.0000E+00  0.0000E+00
    -12.691  0.0000E+00  0.0000E+00
    -12.578  0.0000E+00  0.0000E+00
    -12.465  0.0000E+00  0.0000E+00
    -12.352  0.0000E+00  0.0000E+00
    -12.239  0.0000E+00  0.0000E+00
    -12.126  0.0000E+00  0.0000E+00
    -12.013  0.0000E+00  0.0000E+00
    -11.900  0.0000E+00  0.0000E+00
    -11.787  0.3708E-01  0.5079E-03
    -11.674  0.1649E+00  0.1484E-01
    -11.561  0.2586E+00  0.3873E-01
    -11.448  0.2924E+00  0.6956E-01
    -11.335  0.3432E+00  0.1055E+00
    -11.222  0.3869E+00  0.1472E+00
    -11.109  0.4180E+00  0.1926E+00
    -10.996  0.4513E+00  0.2416E+00
    -10.883  0.4925E+00  0.2949E+00
    -10.770  0.5177E+00  0.3522E+00
    -10.657  0.5430E+00  0.4122E+00
    -10.544  0.5709E+00  0.4751E+00
    -10.431  0.6015E+00  0.5413E+00
    -10.318  0.6312E+00  0.6110E+00
    -10.205  0.6519E+00  0.6835E+00
    -10.092  0.6737E+00  0.7584E+00
     -9.978  0.6975E+00  0.8358E+00
     -9.865  0.7222E+00  0.9160E+00
     -9.752  0.7488E+00  0.9991E+00
     -9.639  0.7724E+00  0.1085E+01
     -9.526  0.7920E+00  0.1174E+01
     -9.413  0.8114E+00  0.1264E+01
     -9.300  0.8336E+00  0.1357E+01
     -9.187  0.8564E+00  0.1453E+01
     -9.074  0.8802E+00  0.1551E+01
     -8.961  0.9049E+00  0.1652E+01
     -8.848  0.9244E+00  0.1755E+01
     -8.735  0.9444E+00  0.1861E+01
     -8.622  0.9656E+00  0.1969E+01
     -8.509  0.9875E+00  0.2079E+01
     -8.396  0.1010E+01  0.2192E+01
     -8.283  0.1052E+01  0.2307E+01
     -8.170  0.1108E+01  0.2430E+01
     -8.057  0.1149E+01  0.2557E+01
     -7.944  0.1188E+01  0.2690E+01
     -7.831  0.1183E+01  0.2825E+01
     -7.718  0.1152E+01  0.2957E+01
     -7.605  0.1138E+01  0.3085E+01
     -7.492  0.1172E+01  0.3216E+01
     -7.379  0.1189E+01  0.3350E+01
     -7.266  0.1203E+01  0.3485E+01
     -7.153  0.1251E+01  0.3623E+01
     -7.040  0.1334E+01  0.3769E+01
     -6.927  0.1393E+01  0.3922E+01
     -6.814  0.1552E+01  0.4089E+01
     -6.701  0.1675E+01  0.4270E+01
     -6.588  0.1778E+01  0.4466E+01
     -6.475  0.1686E+01  0.4662E+01
     -6.362  0.1727E+01  0.4855E+01
     -6.249  0.1594E+01  0.5044E+01
     -6.136  0.1533E+01  0.5219E+01
     -6.023  0.1559E+01  0.5391E+01
     -5.910  0.1571E+01  0.5570E+01
     -5.797  0.1450E+01  0.5739E+01
     -5.684  0.1459E+01  0.5903E+01
     -5.571  0.1346E+01  0.6061E+01
     -5.458  0.1319E+01  0.6210E+01
     -5.345  0.1294E+01  0.6358E+01
     -5.232  0.1271E+01  0.6507E+01
     -5.119  0.1173E+01  0.6645E+01
     -5.006  0.1114E+01  0.6774E+01
     -4.893  0.1135E+01  0.6903E+01
     -4.780  0.1092E+01  0.7034E+01
     -4.667  0.1060E+01  0.7156E+01
     -4.554  0.1088E+01  0.7277E+01
     -4.441  0.1085E+01  0.7398E+01
     -4.328  0.9402E+00  0.7511E+01
     -4.215  0.8382E+00  0.7612E+01
     -4.102  0.7420E+00  0.7701E+01
     -3.989  0.6484E+00  0.7779E+01
     -3.876  0.6076E+00  0.7849E+01
     -3.763  0.7783E+00  0.7931E+01
     -3.650  0.8055E+00  0.8023E+01
     -3.537  0.7345E+00  0.8113E+01
     -3.424  0.7743E+00  0.8198E+01
     -3.311  0.9470E+00  0.8292E+01
     -3.198  0.1082E+01  0.8408E+01
     -3.085  0.1207E+01  0.8537E+01
     -2.972  0.1399E+01  0.8685E+01
     -2.859  0.1689E+01  0.8857E+01
     -2.746  0.1977E+01  0.9063E+01
     -2.633  0.2427E+01  0.9311E+01
     -2.520  0.3531E+01  0.9634E+01
     -2.407  0.3152E+01  0.1007E+02
     -2.294  0.2406E+01  0.1038E+02
     -2.181  0.2093E+01  0.1063E+02
     -2.068  0.1883E+01  0.1086E+02
     -1.955  0.1754E+01  0.1106E+02
     -1.842  0.1646E+01  0.1126E+02
     -1.728  0.1561E+01  0.1144E+02
     -1.615  0.1524E+01  0.1161E+02
     -1.502  0.1481E+01  0.1178E+02
     -1.389  0.1459E+01  0.1195E+02
     -1.276  0.1441E+01  0.1211E+02
     -1.163  0.1234E+01  0.1226E+02
     -1.050  0.1186E+01  0.1240E+02
     -0.937  0.1160E+01  0.1253E+02
     -0.824  0.1134E+01  0.1266E+02
     -0.711  0.1107E+01  0.1279E+02
     -0.598  0.1062E+01  0.1291E+02
     -0.485  0.1011E+01  0.1302E+02
     -0.372  0.9949E+00  0.1314E+02
     -0.259  0.1064E+01  0.1325E+02
     -0.146  0.1152E+01  0.1338E+02
     -0.033  0.1330E+01  0.1352E+02
      0.080  0.1579E+01  0.1368E+02
      0.193  0.1695E+01  0.1386E+02
      0.306  0.2071E+01  0.1408E+02
      0.419  0.2575E+01  0.1434E+02
      0.532  0.2514E+01  0.1463E+02
      0.645  0.2763E+01  0.1492E+02
      0.758  0.2475E+01  0.1524E+02
      0.871  0.1562E+01  0.1546E+02
      0.984  0.1284E+01  0.1562E+02
      1.097  0.1786E+01  0.1578E+02
      1.210  0.2216E+01  0.1601E+02
      1.323  0.2346E+01  0.1627E+02
      1.436  0.2387E+01  0.1654E+02
      1.549  0.2550E+01  0.1681E+02
      1.662  0.2525E+01  0.1710E+02
      1.775  0.2528E+01  0.1739E+02
      1.888  0.2451E+01  0.1767E+02
      2.001  0.2624E+01  0.1795E+02
      2.114  0.2895E+01  0.1826E+02
      2.227  0.3317E+01  0.1861E+02
      2.340  0.3268E+01  0.1901E+02
      2.453  0.2527E+01  0.1934E+02
      2.566  0.2345E+01  0.1961E+02
      2.679  0.3064E+01  0.1992E+02
      2.792  0.3015E+01  0.2027E+02
      2.905  0.3347E+01  0.2062E+02
      3.018  0.4486E+01  0.2107E+02
      3.131  0.4043E+01  0.2158E+02
      3.244  0.3332E+01  0.2199E+02
      3.357  0.2832E+01  0.2234E+02
      3.470  0.2708E+01  0.2265E+02
      3.583  0.3063E+01  0.2296E+02
      3.696  0.3003E+01  0.2336E+02
      3.809  0.3092E+01  0.2369E+02
      3.922  0.3305E+01  0.2407E+02
      4.035  0.3147E+01  0.2443E+02
      4.148  0.3233E+01  0.2479E+02
      4.261  0.3325E+01  0.2516E+02
      4.374  0.3441E+01  0.2554E+02
      4.487  0.2934E+01  0.2590E+02
      4.600  0.2668E+01  0.2622E+02
      4.713  0.2592E+01  0.2651E+02
      4.826  0.2612E+01  0.2681E+02
      4.939  0.2980E+01  0.2712E+02
      5.052  0.3257E+01  0.2746E+02
      5.165  0.3079E+01  0.2781E+02
      5.278  0.2957E+01  0.2815E+02
      5.391  0.2846E+01  0.2848E+02
      5.504  0.2646E+01  0.2879E+02
      5.617  0.2592E+01  0.2909E+02
      5.730  0.3514E+01  0.2944E+02
      5.843  0.2092E+01  0.2974E+02
      5.956  0.1887E+01  0.2997E+02
      6.069  0.1751E+01  0.3017E+02
      6.182  0.1583E+01  0.3036E+02
      6.295  0.1476E+01  0.3054E+02
      6.408  0.1392E+01  0.3070E+02
      6.522  0.1303E+01  0.3085E+02
      6.635  0.1186E+01  0.3099E+02
      6.748  0.1070E+01  0.3112E+02
      6.861  0.9871E+00  0.3123E+02
      6.974  0.9220E+00  0.3134E+02
      7.087  0.8797E+00  0.3144E+02
      7.200  0.7882E+00  0.3154E+02
      7.313  0.7051E+00  0.3162E+02
      7.426  0.6294E+00  0.3170E+02
      7.539  0.5975E+00  0.3177E+02
      7.652  0.4741E+00  0.3183E+02
      7.765  0.3898E+00  0.3188E+02
      7.878  0.4222E+00  0.3192E+02
      7.991  0.2542E+00  0.3196E+02
      8.104  0.1411E+00  0.3199E+02
      8.217  0.1857E-01  0.3200E+02
      8.330  0.0000E+00  0.3200E+02
      8.443  0.0000E+00  0.3200E+02
      8.556  0.0000E+00  0.3200E+02
      8.669  0.0000E+00  0.3200E+02
      8.782  0.0000E+00  0.3200E+02
      8.895  0.0000E+00  0.3200E+02
      9.008  0.0000E+00  0.3200E+02
      9.121  0.0000E+00  0.3200E+02
      9.234  0.0000E+00  0.3200E+02
      9.347  0.0000E+00  0.3200E+02
      9.460  0.0000E+00  0.3200E+02
      9.573  0.0000E+00  0.3200E+02
      9.686  0.0000E+00  0.3200E+02
      9.799  0.0000E+00  0.3200E+02
      9.912  0.0000E+00  0.3200E+02
     10.025  0.0000E+00  0.3200E+02
     10.138  0.0000E+00  0.3200E+02
     10.251  0.0000E+00  0.3200E+02
     10.364  0.0000E+00  0.3200E+02
     10.477  0.0000E+00  0.3200E+02
     10.590  0.0000E+00  0.3200E+02
     10.703  0.0000E+00  0.3200E+02
     10.816  0.0000E+00  0.3200E+02
     10.929  0.0000E+00  0.3200E+02
     11.042  0.0000E+00  0.3200E+02
     11.155  0.0000E+00  0.3200E+02
     11.268  0.0000E+00  0.3200E+02
     11.381  0.0000E+00  0.3200E+02
     11.494  0.0000E+00  0.3200E+02
     11.607  0.0000E+00  0.3200E+02
     11.720  0.0000E+00  0.3200E+02
     11.833  0.0000E+00  0.3200E+02
     11.946  0.0000E+00  0.3200E+02
     12.059  0.0000E+00  0.3200E+02
     12.172  0.0000E+00  0.3200E+02
     12.285  0.9833E-01  0.3200E+02
     12.398  0.2892E+00  0.3203E+02
     12.511  0.5167E+00  0.3207E+02
     12.624  0.6290E+00  0.3214E+02
     12.737  0.6465E+00  0.3221E+02
     12.850  0.7643E+00  0.3229E+02
     12.963  0.9632E+00  0.3239E+02
     13.076  0.1056E+01  0.3250E+02
     13.189  0.1538E+01  0.3264E+02
     13.302  0.1567E+01  0.3283E+02
     13.415  0.1522E+01  0.3301E+02
     13.528  0.1560E+01  0.3318E+02
     13.641  0.1665E+01  0.3336E+02
     13.754  0.1768E+01  0.3355E+02
     13.867  0.1944E+01  0.3376E+02
     13.980  0.2038E+01  0.3399E+02
     14.093  0.2282E+01  0.3424E+02
     14.206  0.2455E+01  0.3451E+02
     14.319  0.2288E+01  0.3479E+02
     14.432  0.2241E+01  0.3504E+02
     14.545  0.2261E+01  0.3530E+02
     14.658  0.2369E+01  0.3556E+02
     14.772  0.2520E+01  0.3583E+02
     14.885  0.2729E+01  0.3613E+02
     14.998  0.2904E+01  0.3645E+02
     15.111  0.3130E+01  0.3679E+02
     15.224  0.3142E+01  0.3714E+02
     15.337  0.3266E+01  0.3751E+02
     15.450  0.3618E+01  0.3789E+02
     15.563  0.3906E+01  0.3832E+02
     15.676  0.4408E+01  0.3879E+02
     15.789  0.5424E+01  0.3933E+02
     15.902  0.5406E+01  0.3996E+02
     16.015  0.4699E+01  0.4055E+02
     16.128  0.4496E+01  0.4107E+02
     16.241  0.4653E+01  0.4158E+02
     16.354  0.3855E+01  0.4207E+02
     16.467  0.3929E+01  0.4251E+02
     16.580  0.4065E+01  0.4297E+02
     16.693  0.4279E+01  0.4343E+02
     16.806  0.3693E+01  0.4389E+02
     16.919  0.2971E+01  0.4426E+02
     17.032  0.2773E+01  0.4459E+02
     17.145  0.2654E+01  0.4489E+02
     17.258  0.2702E+01  0.4519E+02
     17.371  0.3026E+01  0.4551E+02
     17.484  0.2976E+01  0.4584E+02
     17.597  0.2975E+01  0.4618E+02
     17.710  0.2983E+01  0.4651E+02
     17.823  0.2904E+01  0.4685E+02
     17.936  0.2514E+01  0.4716E+02
     18.049  0.2026E+01  0.4741E+02
     18.162  0.1519E+01  0.4761E+02
     18.275  0.9988E+00  0.4776E+02
     18.388  0.6487E+00  0.4785E+02
     18.501  0.3894E+00  0.4791E+02
     18.614  0.2715E+00  0.4794E+02
     18.727  0.2022E+00  0.4797E+02
     18.840  0.1398E+00  0.4799E+02
     18.953  0.3965E-01  0.4800E+02
     19.066  0.0000E+00  0.4800E+02
     19.179  0.0000E+00  0.4800E+02
     19.292  0.0000E+00  0.4800E+02
     19.405  0.0000E+00  0.4800E+02
     19.518  0.0000E+00  0.4800E+02
     19.631  0.0000E+00  0.4800E+02
     19.744  0.0000E+00  0.4800E+02
     19.857  0.0000E+00  0.4800E+02
     19.970  0.0000E+00  0.4800E+02
     20.083  0.0000E+00  0.4800E+02
     20.196  0.0000E+00  0.4800E+02
     20.309  0.0000E+00  0.4800E+02
     20.422  0.0000E+00  0.4800E+02
     20.535  0.0000E+00  0.4800E+02
