       N       E                     dE             d eps       ncg     rms          rms(c)
DAV:   1     0.559634453885E+02    0.55963E+02   -0.14137E+04  4032   0.104E+03
DAV:   2    -0.696249375241E+02   -0.12559E+03   -0.11890E+03  5616   0.215E+02
DAV:   3    -0.738802571745E+02   -0.42553E+01   -0.42332E+01  5216   0.372E+01
DAV:   4    -0.739301123928E+02   -0.49855E-01   -0.49801E-01  5256   0.428E+00
DAV:   5    -0.739311726170E+02   -0.10602E-02   -0.10598E-02  5176   0.576E-01    0.834E+00
DAV:   6    -0.725957222757E+02    0.13355E+01   -0.90646E-01  4792   0.523E+00    0.466E+00
DAV:   7    -0.721431943044E+02    0.45253E+00   -0.10579E+00  4840   0.582E+00    0.660E-01
DAV:   8    -0.721493883973E+02   -0.61941E-02   -0.21953E-02  5184   0.844E-01    0.738E-02
DAV:   9    -0.721496149348E+02   -0.22654E-03   -0.42786E-04  4992   0.135E-01    0.268E-02
DAV:  10    -0.721496724237E+02   -0.57489E-04   -0.56472E-05  5080   0.547E-02    0.252E-03
DAV:  11    -0.721496727602E+02   -0.33648E-06   -0.11259E-06  3808   0.700E-03
   1 F= -.72149673E+02 E0= -.72149673E+02  d E =0.000000E+00
