 vasp.5.4.4.18Apr17-6-g9f103f2a35 (build Mar 12 2022 03:36:41) complex          
  
 executed on IFC19.0.3.199_CrayMP date 2022.12.01  11:04:13
 running on   16 total cores
 distrk:  each k-point on   16 cores,    1 groups
 distr:  one band on NCORES_PER_BAND=   4 cores,    4 groups


--------------------------------------------------------------------------------------------------------


 INCAR:
 POTCAR:   PAW_PBE C 08Apr2002                    
 POTCAR:   PAW_PBE C 08Apr2002                    
   VRHFIN =C: s2p2                                                              
   LEXCH  = PE                                                                  
   EATOM  =   147.1560 eV,   10.8157 Ry                                         
                                                                                
   TITEL  = PAW_PBE C 08Apr2002                                                 
   LULTRA =        F    use ultrasoft PP ?                                      
   IUNSCR =        0    unscreen: 0-lin 1-nonlin 2-no                           
   RPACOR =     .000    partial core radius                                     
   POMASS =   12.011; ZVAL   =    4.000    mass and valenz                      
   RCORE  =    1.500    outmost cutoff radius                                   
   RWIGS  =    1.630; RWIGS  =     .863    wigner-seitz radius (au A)           
   ENMAX  =  400.000; ENMIN  =  300.000 eV                                      
   ICORE  =        2    local potential                                         
   LCOR   =        T    correct aug charges                                     
   LPAW   =        T    paw PP                                                  
   EAUG   =  644.873                                                            
   DEXC   =     .000                                                            
   RMAX   =    2.266    core radius for proj-oper                               
   RAUG   =    1.300    factor for augmentation sphere                          
   RDEP   =    1.501    radius for radial grids                                 
   RDEPT  =    1.300    core radius for aug-charge                              
   QCUT   =   -5.516; QGAM   =   11.032    optimization parameters              
                                                                                
   Description                                                                  
     l     E      TYP  RCUT    TYP  RCUT                                        
     0   .000     23  1.200                                                     
     0   .000     23  1.200                                                     
     1   .000     23  1.500                                                     
     1  2.500     23  1.500                                                     
     2   .000      7  1.500                                                     
  local pseudopotential read in
  atomic valenz-charges read in
  non local Contribution for L=           0  read in
    real space projection operators read in
  non local Contribution for L=           0  read in
    real space projection operators read in
  non local Contribution for L=           1  read in
    real space projection operators read in
  non local Contribution for L=           1  read in
    real space projection operators read in
    PAW grid and wavefunctions read in
 
   number of l-projection  operators is LMAX  =           4
   number of lm-projection operators is LMMAX =           8
 
 PAW_PBE C 08Apr2002                    :
 energy of atom  1       EATOM= -147.1560
 kinetic energy error for atom=    0.0288 (will be added to EATOM!!)
 
 
 POSCAR: C8                                      
  positions in direct lattice
  No initial velocities read in
 exchange correlation table for  LEXCH =        8
   RHO(1)=    0.500       N(1)  =     2000
   RHO(2)=  100.500       N(2)  =     4000
 


--------------------------------------------------------------------------------------------------------


 ion  position               nearest neighbor table
   1  0.250  0.750  0.250-   2 1.60   4 1.60   6 1.60   8 1.60
   2  0.000  0.000  0.500-   1 1.60   3 1.60   5 1.60   7 1.60
   3  0.250  0.250  0.750-   2 1.60   4 1.60   6 1.60   8 1.60
   4  0.000  0.500  0.000-   1 1.60   3 1.60   5 1.60   7 1.60
   5  0.750  0.750  0.750-   2 1.60   4 1.60   6 1.60   8 1.60
   6  0.500  0.000  0.000-   1 1.60   3 1.60   5 1.60   7 1.60
   7  0.750  0.250  0.250-   2 1.60   4 1.60   6 1.60   8 1.60
   8  0.500  0.500  0.500-   1 1.60   3 1.60   5 1.60   7 1.60
 
  LATTYP: Found a simple cubic cell.
 ALAT       =     3.6961309232
  
  Lattice vectors:
  
 A1 = (   3.6961309232,   0.0000000000,   0.0000000000)
 A2 = (   0.0000000000,   3.6961309232,   0.0000000000)
 A3 = (   0.0000000000,   0.0000000000,   3.6961309232)


Analysis of symmetry for initial positions (statically):
=====================================================================
 Subroutine PRICEL returns following result:
 
  LATTYP: Found a face centered cubic cell.
 ALAT       =     3.6961309232
  
  Lattice vectors:
  
 A1 = (   1.8480654616,   1.8480654616,  -0.0000000000)
 A2 = (   1.8480654616,   0.0000000000,  -1.8480654616)
 A3 = (   0.0000000000,   1.8480654616,  -1.8480654616)
 
   4 primitive cells build up your supercell.
 

 Routine SETGRP: Setting up the symmetry group for a 
 simple cubic supercell.


 Subroutine GETGRP returns: Found 48 space group operations
 (whereof 24 operations were pure point group operations)
 out of a pool of 48 trial point group operations.


The static configuration has the point symmetry T_d .
 The point group associated with its full space group is O_h .


Analysis of symmetry for dynamics (positions and initial velocities):
=====================================================================
 Subroutine PRICEL returns following result:
 
  LATTYP: Found a face centered cubic cell.
 ALAT       =     3.6961309232
  
  Lattice vectors:
  
 A1 = (   1.8480654616,   1.8480654616,  -0.0000000000)
 A2 = (   1.8480654616,   0.0000000000,  -1.8480654616)
 A3 = (   0.0000000000,   1.8480654616,  -1.8480654616)
 
   4 primitive cells build up your supercell.
 

 Routine SETGRP: Setting up the symmetry group for a 
 simple cubic supercell.


 Subroutine GETGRP returns: Found 48 space group operations
 (whereof 24 operations were pure point group operations)
 out of a pool of 48 trial point group operations.


The dynamic configuration has the point symmetry T_d .
 The point group associated with its full space group is O_h .


 Subroutine INISYM returns: Found 48 space group operations
 (whereof 24 operations are pure point group operations),
 and found     4 'primitive' translations

 
 
 KPOINTS: kpt_density=1000                        

Automatic generation of k-mesh.
Space group operators:
 irot       det(A)        alpha          n_x          n_y          n_z        tau_x        tau_y        tau_z
    1     1.000000     0.000001     1.000000     0.000000     0.000000     0.000000     0.000000     0.000000
    2     1.000000   120.000000    -0.577350    -0.577350    -0.577350     0.000000     0.000000     0.000000
    3     1.000000   120.000000     0.577350     0.577350     0.577350     0.000000     0.000000     0.000000
    4    -1.000000    90.000000     0.000000     0.000000    -1.000000     0.000000     0.000000     0.000000
    5    -1.000000   180.000000     0.000000     0.707107     0.707107     0.000000     0.000000     0.000000
    6    -1.000000    90.000000     0.000000     1.000000     0.000000     0.000000     0.000000     0.000000
    7     1.000000   180.000000     0.000000     0.000000     1.000000     0.000000     0.000000     0.000000
    8     1.000000   120.000000    -0.577350     0.577350     0.577350     0.000000     0.000000     0.000000
    9     1.000000   120.000000    -0.577350     0.577350    -0.577350     0.000000     0.000000     0.000000
   10    -1.000000    90.000000     0.000000     0.000000     1.000000     0.000000     0.000000     0.000000
   11    -1.000000    90.000000    -1.000000     0.000000     0.000000     0.000000     0.000000     0.000000
   12    -1.000000   180.000000     0.707107     0.000000     0.707107     0.000000     0.000000     0.000000
   13     1.000000   120.000000     0.577350    -0.577350     0.577350     0.000000     0.000000     0.000000
   14     1.000000   120.000000    -0.577350    -0.577350     0.577350     0.000000     0.000000     0.000000
   15     1.000000   180.000000     1.000000     0.000000     0.000000     0.000000     0.000000     0.000000
   16    -1.000000    90.000000     0.000000    -1.000000     0.000000     0.000000     0.000000     0.000000
   17    -1.000000   180.000000     0.707107     0.707107     0.000000     0.000000     0.000000     0.000000
   18    -1.000000    90.000000     1.000000     0.000000     0.000000     0.000000     0.000000     0.000000
   19     1.000000   120.000000     0.577350    -0.577350    -0.577350     0.000000     0.000000     0.000000
   20     1.000000   180.000000     0.000000     1.000000     0.000000     0.000000     0.000000     0.000000
   21     1.000000   120.000000     0.577350     0.577350    -0.577350     0.000000     0.000000     0.000000
   22    -1.000000   180.000000     0.000000    -0.707107     0.707107     0.000000     0.000000     0.000000
   23    -1.000000   180.000000     0.707107    -0.707107     0.000000     0.000000     0.000000     0.000000
   24    -1.000000   180.000000     0.707107     0.000000    -0.707107     0.000000     0.000000     0.000000
   25    -1.000000     0.000001     1.000000     0.000000     0.000000     0.750000     0.750000    -0.750000
   26    -1.000000   120.000000    -0.577350    -0.577350    -0.577350     0.750000     0.750000    -0.750000
   27    -1.000000   120.000000     0.577350     0.577350     0.577350     0.750000     0.750000    -0.750000
   28     1.000000    90.000000     0.000000     0.000000    -1.000000     0.750000     0.750000    -0.750000
   29     1.000000   180.000000     0.000000     0.707107     0.707107     0.750000     0.750000    -0.750000
   30     1.000000    90.000000     0.000000     1.000000     0.000000     0.750000     0.750000    -0.750000
   31    -1.000000   180.000000     0.000000     0.000000     1.000000     0.750000     0.750000    -0.750000
   32    -1.000000   120.000000    -0.577350     0.577350     0.577350     0.750000     0.750000    -0.750000
   33    -1.000000   120.000000    -0.577350     0.577350    -0.577350     0.750000     0.750000    -0.750000
   34     1.000000    90.000000     0.000000     0.000000     1.000000     0.750000     0.750000    -0.750000
   35     1.000000    90.000000    -1.000000     0.000000     0.000000     0.750000     0.750000    -0.750000
   36     1.000000   180.000000     0.707107     0.000000     0.707107     0.750000     0.750000    -0.750000
   37    -1.000000   120.000000     0.577350    -0.577350     0.577350     0.750000     0.750000    -0.750000
   38    -1.000000   120.000000    -0.577350    -0.577350     0.577350     0.750000     0.750000    -0.750000
   39    -1.000000   180.000000     1.000000     0.000000     0.000000     0.750000     0.750000    -0.750000
   40     1.000000    90.000000     0.000000    -1.000000     0.000000     0.750000     0.750000    -0.750000
   41     1.000000   180.000000     0.707107     0.707107     0.000000     0.750000     0.750000    -0.750000
   42     1.000000    90.000000     1.000000     0.000000     0.000000     0.750000     0.750000    -0.750000
   43    -1.000000   120.000000     0.577350    -0.577350    -0.577350     0.750000     0.750000    -0.750000
   44    -1.000000   180.000000     0.000000     1.000000     0.000000     0.750000     0.750000    -0.750000
   45    -1.000000   120.000000     0.577350     0.577350    -0.577350     0.750000     0.750000    -0.750000
   46     1.000000   180.000000     0.000000    -0.707107     0.707107     0.750000     0.750000    -0.750000
   47     1.000000   180.000000     0.707107    -0.707107     0.000000     0.750000     0.750000    -0.750000
   48     1.000000   180.000000     0.707107     0.000000    -0.707107     0.750000     0.750000    -0.750000
 
 Subroutine IBZKPT returns following result:
 ===========================================
 
 Found     84 irreducible k-points:
 
 Following reciprocal coordinates:
            Coordinates               Weight
  0.000000  0.000000  0.000000      1.000000
  0.083333  0.000000  0.000000      6.000000
  0.166667  0.000000  0.000000      6.000000
  0.250000  0.000000  0.000000      6.000000
  0.333333  0.000000  0.000000      6.000000
  0.416667  0.000000  0.000000      6.000000
  0.500000  0.000000  0.000000      3.000000
  0.083333  0.083333  0.000000     12.000000
  0.166667  0.083333  0.000000     24.000000
  0.250000  0.083333  0.000000     24.000000
  0.333333  0.083333  0.000000     24.000000
  0.416667  0.083333  0.000000     24.000000
  0.500000  0.083333  0.000000     12.000000
  0.166667  0.166667  0.000000     12.000000
  0.250000  0.166667  0.000000     24.000000
  0.333333  0.166667  0.000000     24.000000
  0.416667  0.166667  0.000000     24.000000
  0.500000  0.166667  0.000000     12.000000
  0.250000  0.250000  0.000000     12.000000
  0.333333  0.250000  0.000000     24.000000
  0.416667  0.250000  0.000000     24.000000
  0.500000  0.250000  0.000000     12.000000
  0.333333  0.333333  0.000000     12.000000
  0.416667  0.333333  0.000000     24.000000
  0.500000  0.333333  0.000000     12.000000
  0.416667  0.416667  0.000000     12.000000
  0.500000  0.416667  0.000000     12.000000
  0.500000  0.500000  0.000000      3.000000
  0.083333  0.083333  0.083333      8.000000
  0.166667  0.083333  0.083333     24.000000
  0.250000  0.083333  0.083333     24.000000
  0.333333  0.083333  0.083333     24.000000
  0.416667  0.083333  0.083333     24.000000
  0.500000  0.083333  0.083333     12.000000
  0.166667  0.166667  0.083333     24.000000
  0.250000  0.166667  0.083333     48.000000
  0.333333  0.166667  0.083333     48.000000
  0.416667  0.166667  0.083333     48.000000
  0.500000  0.166667  0.083333     24.000000
  0.250000  0.250000  0.083333     24.000000
  0.333333  0.250000  0.083333     48.000000
  0.416667  0.250000  0.083333     48.000000
  0.500000  0.250000  0.083333     24.000000
  0.333333  0.333333  0.083333     24.000000
  0.416667  0.333333  0.083333     48.000000
  0.500000  0.333333  0.083333     24.000000
  0.416667  0.416667  0.083333     24.000000
  0.500000  0.416667  0.083333     24.000000
  0.500000  0.500000  0.083333      6.000000
  0.166667  0.166667  0.166667      8.000000
  0.250000  0.166667  0.166667     24.000000
  0.333333  0.166667  0.166667     24.000000
  0.416667  0.166667  0.166667     24.000000
  0.500000  0.166667  0.166667     12.000000
  0.250000  0.250000  0.166667     24.000000
  0.333333  0.250000  0.166667     48.000000
  0.416667  0.250000  0.166667     48.000000
  0.500000  0.250000  0.166667     24.000000
  0.333333  0.333333  0.166667     24.000000
  0.416667  0.333333  0.166667     48.000000
  0.500000  0.333333  0.166667     24.000000
  0.416667  0.416667  0.166667     24.000000
  0.500000  0.416667  0.166667     24.000000
  0.500000  0.500000  0.166667      6.000000
  0.250000  0.250000  0.250000      8.000000
  0.333333  0.250000  0.250000     24.000000
  0.416667  0.250000  0.250000     24.000000
  0.500000  0.250000  0.250000     12.000000
  0.333333  0.333333  0.250000     24.000000
  0.416667  0.333333  0.250000     48.000000
  0.500000  0.333333  0.250000     24.000000
  0.416667  0.416667  0.250000     24.000000
  0.500000  0.416667  0.250000     24.000000
  0.500000  0.500000  0.250000      6.000000
  0.333333  0.333333  0.333333      8.000000
  0.416667  0.333333  0.333333     24.000000
  0.500000  0.333333  0.333333     12.000000
  0.416667  0.416667  0.333333     24.000000
  0.500000  0.416667  0.333333     24.000000
  0.500000  0.500000  0.333333      6.000000
  0.416667  0.416667  0.416667      8.000000
  0.500000  0.416667  0.416667     12.000000
  0.500000  0.500000  0.416667      6.000000
  0.500000  0.500000  0.500000      1.000000
 
 Following cartesian coordinates:
            Coordinates               Weight
  0.000000  0.000000  0.000000      1.000000
  0.022649  0.000000  0.000000      6.000000
  0.045298  0.000000  0.000000      6.000000
  0.067947  0.000000  0.000000      6.000000
  0.090595  0.000000  0.000000      6.000000
  0.113244  0.000000  0.000000      6.000000
  0.135893  0.000000  0.000000      3.000000
  0.022649  0.022649  0.000000     12.000000
  0.045298  0.022649  0.000000     24.000000
  0.067947  0.022649  0.000000     24.000000
  0.090595  0.022649  0.000000     24.000000
  0.113244  0.022649  0.000000     24.000000
  0.135893  0.022649  0.000000     12.000000
  0.045298  0.045298  0.000000     12.000000
  0.067947  0.045298  0.000000     24.000000
  0.090595  0.045298  0.000000     24.000000
  0.113244  0.045298  0.000000     24.000000
  0.135893  0.045298  0.000000     12.000000
  0.067947  0.067947  0.000000     12.000000
  0.090595  0.067947  0.000000     24.000000
  0.113244  0.067947  0.000000     24.000000
  0.135893  0.067947  0.000000     12.000000
  0.090595  0.090595  0.000000     12.000000
  0.113244  0.090595  0.000000     24.000000
  0.135893  0.090595  0.000000     12.000000
  0.113244  0.113244  0.000000     12.000000
  0.135893  0.113244  0.000000     12.000000
  0.135893  0.135893  0.000000      3.000000
  0.022649  0.022649  0.022649      8.000000
  0.045298  0.022649  0.022649     24.000000
  0.067947  0.022649  0.022649     24.000000
  0.090595  0.022649  0.022649     24.000000
  0.113244  0.022649  0.022649     24.000000
  0.135893  0.022649  0.022649     12.000000
  0.045298  0.045298  0.022649     24.000000
  0.067947  0.045298  0.022649     48.000000
  0.090595  0.045298  0.022649     48.000000
  0.113244  0.045298  0.022649     48.000000
  0.135893  0.045298  0.022649     24.000000
  0.067947  0.067947  0.022649     24.000000
  0.090595  0.067947  0.022649     48.000000
  0.113244  0.067947  0.022649     48.000000
  0.135893  0.067947  0.022649     24.000000
  0.090595  0.090595  0.022649     24.000000
  0.113244  0.090595  0.022649     48.000000
  0.135893  0.090595  0.022649     24.000000
  0.113244  0.113244  0.022649     24.000000
  0.135893  0.113244  0.022649     24.000000
  0.135893  0.135893  0.022649      6.000000
  0.045298  0.045298  0.045298      8.000000
  0.067947  0.045298  0.045298     24.000000
  0.090595  0.045298  0.045298     24.000000
  0.113244  0.045298  0.045298     24.000000
  0.135893  0.045298  0.045298     12.000000
  0.067947  0.067947  0.045298     24.000000
  0.090595  0.067947  0.045298     48.000000
  0.113244  0.067947  0.045298     48.000000
  0.135893  0.067947  0.045298     24.000000
  0.090595  0.090595  0.045298     24.000000
  0.113244  0.090595  0.045298     48.000000
  0.135893  0.090595  0.045298     24.000000
  0.113244  0.113244  0.045298     24.000000
  0.135893  0.113244  0.045298     24.000000
  0.135893  0.135893  0.045298      6.000000
  0.067947  0.067947  0.067947      8.000000
  0.090595  0.067947  0.067947     24.000000
  0.113244  0.067947  0.067947     24.000000
  0.135893  0.067947  0.067947     12.000000
  0.090595  0.090595  0.067947     24.000000
  0.113244  0.090595  0.067947     48.000000
  0.135893  0.090595  0.067947     24.000000
  0.113244  0.113244  0.067947     24.000000
  0.135893  0.113244  0.067947     24.000000
  0.135893  0.135893  0.067947      6.000000
  0.090595  0.090595  0.090595      8.000000
  0.113244  0.090595  0.090595     24.000000
  0.135893  0.090595  0.090595     12.000000
  0.113244  0.113244  0.090595     24.000000
  0.135893  0.113244  0.090595     24.000000
  0.135893  0.135893  0.090595      6.000000
  0.113244  0.113244  0.113244      8.000000
  0.135893  0.113244  0.113244     12.000000
  0.135893  0.135893  0.113244      6.000000
  0.135893  0.135893  0.135893      1.000000
 
 TETIRR: Found    854 inequivalent tetrahedra from    10368


--------------------------------------------------------------------------------------------------------




 Dimension of arrays:
   k-points           NKPTS =     84   k-points in BZ     NKDIM =     84   number of bands    NBANDS=     24
   number of dos      NEDOS =    301   number of ions     NIONS =      8
   non local maximal  LDIM  =      4   non local SUM 2l+1 LMDIM =      8
   total plane-waves  NPLWV =  13824
   max r-space proj   IRMAX =      1   max aug-charges    IRDMAX=   3430
   dimension x,y,z NGX =    24 NGY =   24 NGZ =   24
   dimension x,y,z NGXF=    48 NGYF=   48 NGZF=   48
   support grid    NGXF=    48 NGYF=   48 NGZF=   48
   ions per type =               8
   NGX,Y,Z   is equivalent  to a cutoff of  10.79, 10.79, 10.79 a.u.
   NGXF,Y,Z  is equivalent  to a cutoff of  21.59, 21.59, 21.59 a.u.

 SYSTEM =  unknown system                          
 POSCAR =  C8                                      

 Startparameter for this run:
   NWRITE =      2    write-flag & timer
   PREC   = accura    normal or accurate (medium, high low for compatibility)
   ISTART =      0    job   : 0-new  1-cont  2-samecut
   ICHARG =      2    charge: 1-file 2-atom 10-const
   ISPIN  =      1    spin polarized calculation?
   LNONCOLLINEAR =      F non collinear calculations
   LSORBIT =      F    spin-orbit coupling
   INIWAV =      1    electr: 0-lowe 1-rand  2-diag
   LASPH  =      F    aspherical Exc in radial PAW
   METAGGA=      F    non-selfconsistent MetaGGA calc.

 Electronic Relaxation 1
   ENCUT  =  400.0 eV  29.40 Ry    5.42 a.u.   6.03  6.03  6.03*2*pi/ulx,y,z
   ENINI  =  400.0     initial cutoff
   ENAUG  =  644.9 eV  augmentation charge cutoff
   NELM   =     60;   NELMIN=  2; NELMDL= -5     # of ELM steps 
   EDIFF  = 0.1E-05   stopping-criterion for ELM
   LREAL  =      F    real-space projection
   NLSPLINE    = F    spline interpolate recip. space projectors
   LCOMPAT=      F    compatible to vasp.4.4
   GGA_COMPAT  = T    GGA compatible to vasp.4.4-vasp.4.6
   LMAXPAW     = -100 max onsite density
   LMAXMIX     =    2 max onsite mixed and CHGCAR
   VOSKOWN=      0    Vosko Wilk Nusair interpolation
   ROPT   =    0.00000
 Ionic relaxation
   EDIFFG = 0.1E-04   stopping-criterion for IOM
   NSW    =      0    number of steps for IOM
   NBLOCK =      1;   KBLOCK =      1    inner block; outer block 
   IBRION =     -1    ionic relax: 0-MD 1-quasi-New 2-CG
   NFREE  =      0    steps in history (QN), initial steepest desc. (CG)
   ISIF   =      2    stress and relaxation
   IWAVPR =     10    prediction:  0-non 1-charg 2-wave 3-comb
   ISYM   =      2    0-nonsym 1-usesym 2-fastsym
   LCORR  =      T    Harris-Foulkes like correction to forces

   POTIM  = 0.0200    time-step for ionic-motion
   TEIN   =    0.0    initial temperature
   TEBEG  =    0.0;   TEEND  =   0.0 temperature during run
   SMASS  =  -3.00    Nose mass-parameter (am)
   estimated Nose-frequenzy (Omega)   =  0.10E-29 period in steps =****** mass=  -0.312E-27a.u.
   SCALEE = 1.0000    scale energy and forces
   NPACO  =    256;   APACO  = 16.0  distance and # of slots for P.C.
   PSTRESS=    0.0 pullay stress

  Mass of Ions in am
   POMASS =  12.01
  Ionic Valenz
   ZVAL   =   4.00
  Atomic Wigner-Seitz radii
   RWIGS  =  -1.00
  virtual crystal weights 
   VCA    =   1.00
   NELECT =      32.0000    total number of electrons
   NUPDOWN=      -1.0000    fix difference up-down

 DOS related values:
   EMIN   =  10.00;   EMAX   =-10.00  energy-range for DOS
   EFERMI =   0.00
   ISMEAR =    -5;   SIGMA  =   0.06  broadening in eV -4-tet -1-fermi 0-gaus

 Electronic relaxation 2 (details)
   IALGO  =     38    algorithm
   LDIAG  =      T    sub-space diagonalisation (order eigenvalues)
   LSUBROT=      F    optimize rotation matrix (better conditioning)
   TURBO    =      0    0=normal 1=particle mesh
   IRESTART =      0    0=no restart 2=restart with 2 vectors
   NREBOOT  =      0    no. of reboots
   NMIN     =      0    reboot dimension
   EREF     =   0.00    reference energy to select bands
   IMIX   =      4    mixing-type and parameters
     AMIX     =   0.40;   BMIX     =  1.00
     AMIX_MAG =   1.60;   BMIX_MAG =  1.00
     AMIN     =   0.10
     WC   =   100.;   INIMIX=   1;  MIXPRE=   1;  MAXMIX= -45

 Intra band minimization:
   WEIMIN = 0.0000     energy-eigenvalue tresh-hold
   EBREAK =  0.10E-07  absolut break condition
   DEPER  =   0.30     relativ break condition  

   TIME   =   0.40     timestep for ELM

  volume/ion in A,a.u.               =       6.31        42.59
  Fermi-wavevector in a.u.,A,eV,Ry     =   1.406190  2.657315 26.903774  1.977372
  Thomas-Fermi vector in A             =   2.528576
 
 Write flags
   LWAVE        =      F    write WAVECAR
   LDOWNSAMPLE  =      F    k-point downsampling of WAVECAR
   LCHARG       =      F    write CHGCAR
   LVTOT        =      F    write LOCPOT, total local potential
   LVHAR        =      F    write LOCPOT, Hartree potential only
   LELF         =      F    write electronic localiz. function (ELF)
   LORBIT       =      0    0 simple, 1 ext, 2 COOP (PROOUT), +10 PAW based schemes


 Dipole corrections
   LMONO  =      F    monopole corrections only (constant potential shift)
   LDIPOL =      F    correct potential (dipole corrections)
   IDIPOL =      0    1-x, 2-y, 3-z, 4-all directions 
   EPSILON=  1.0000000 bulk dielectric constant

 Exchange correlation treatment:
   GGA     =    --    GGA type
   LEXCH   =     8    internal setting for exchange type
   VOSKOWN=      0    Vosko Wilk Nusair interpolation
   LHFCALC =     F    Hartree Fock is set to
   LHFONE  =     F    Hartree Fock one center treatment
   AEXX    =    0.0000 exact exchange contribution

 Linear response parameters
   LEPSILON=     F    determine dielectric tensor
   LRPA    =     F    only Hartree local field effects (RPA)
   LNABLA  =     F    use nabla operator in PAW spheres
   LVEL    =     F    velocity operator in full k-point grid
   LINTERFAST=   F  fast interpolation
   KINTER  =     0    interpolate to denser k-point grid
   CSHIFT  =0.1000    complex shift for real part using Kramers Kronig
   OMEGAMAX=  -1.0    maximum frequency
   DEG_THRESHOLD= 0.2000000E-02 threshold for treating states as degnerate
   RTIME   =   -0.100 relaxation time in fs
  (WPLASMAI=    0.000 imaginary part of plasma frequency in eV, 0.658/RTIME)
   DFIELD  = 0.0000000 0.0000000 0.0000000 field for delta impulse in time
 
 Orbital magnetization related:
   ORBITALMAG=     F  switch on orbital magnetization
   LCHIMAG   =     F  perturbation theory with respect to B field
   DQ        =  0.001000  dq finite difference perturbation B field
   LLRAUG    =     F  two centre corrections for induced B field



--------------------------------------------------------------------------------------------------------


 Static calculation
 charge density and potential will be updated during run
 non-spin polarized calculation
 Variant of blocked Davidson
 Davidson routine will perform the subspace rotation
 perform sub-space diagonalisation
    after iterative eigenvector-optimisation
 modified Broyden-mixing scheme, WC =      100.0
 initial mixing is a Kerker type mixing with AMIX =  0.4000 and BMIX =      1.0000
 Hartree-type preconditioning will be used
 using additional bands            8
 reciprocal scheme for non local part
 calculate Harris-corrections to forces 
   (improved forces if not selfconsistent)
 use gradient corrections 
 use of overlap-Matrix (Vanderbilt PP)
 Fermi weights with tetrahedron method with Bloechl corrections


--------------------------------------------------------------------------------------------------------


  energy-cutoff  :      400.00
  volume of cell :       50.49
      direct lattice vectors                 reciprocal lattice vectors
     3.696130923  0.000000000  0.000000000     0.270553187  0.000000000  0.000000000
     0.000000000  3.696130923  0.000000000     0.000000000  0.270553187  0.000000000
     0.000000000  0.000000000  3.696130923     0.000000000  0.000000000  0.270553187

  length of vectors
     3.696130923  3.696130923  3.696130923     0.270553187  0.270553187  0.270553187


 
 k-points in units of 2pi/SCALE and weight: kpt_density=1000                        
   0.00000000  0.00000000  0.00000000       0.001
   0.02264887  0.00000000  0.00000000       0.003
   0.04529773  0.00000000  0.00000000       0.003
   0.06794660  0.00000000  0.00000000       0.003
   0.09059547  0.00000000  0.00000000       0.003
   0.11324433  0.00000000  0.00000000       0.003
   0.13589320  0.00000000  0.00000000       0.002
   0.02264887  0.02264887  0.00000000       0.007
   0.04529773  0.02264887  0.00000000       0.014
   0.06794660  0.02264887  0.00000000       0.014
   0.09059547  0.02264887  0.00000000       0.014
   0.11324433  0.02264887  0.00000000       0.014
   0.13589320  0.02264887  0.00000000       0.007
   0.04529773  0.04529773  0.00000000       0.007
   0.06794660  0.04529773  0.00000000       0.014
   0.09059547  0.04529773  0.00000000       0.014
   0.11324433  0.04529773  0.00000000       0.014
   0.13589320  0.04529773  0.00000000       0.007
   0.06794660  0.06794660  0.00000000       0.007
   0.09059547  0.06794660  0.00000000       0.014
   0.11324433  0.06794660  0.00000000       0.014
   0.13589320  0.06794660  0.00000000       0.007
   0.09059547  0.09059547  0.00000000       0.007
   0.11324433  0.09059547  0.00000000       0.014
   0.13589320  0.09059547  0.00000000       0.007
   0.11324433  0.11324433  0.00000000       0.007
   0.13589320  0.11324433  0.00000000       0.007
   0.13589320  0.13589320  0.00000000       0.002
   0.02264887  0.02264887  0.02264887       0.005
   0.04529773  0.02264887  0.02264887       0.014
   0.06794660  0.02264887  0.02264887       0.014
   0.09059547  0.02264887  0.02264887       0.014
   0.11324433  0.02264887  0.02264887       0.014
   0.13589320  0.02264887  0.02264887       0.007
   0.04529773  0.04529773  0.02264887       0.014
   0.06794660  0.04529773  0.02264887       0.028
   0.09059547  0.04529773  0.02264887       0.028
   0.11324433  0.04529773  0.02264887       0.028
   0.13589320  0.04529773  0.02264887       0.014
   0.06794660  0.06794660  0.02264887       0.014
   0.09059547  0.06794660  0.02264887       0.028
   0.11324433  0.06794660  0.02264887       0.028
   0.13589320  0.06794660  0.02264887       0.014
   0.09059547  0.09059547  0.02264887       0.014
   0.11324433  0.09059547  0.02264887       0.028
   0.13589320  0.09059547  0.02264887       0.014
   0.11324433  0.11324433  0.02264887       0.014
   0.13589320  0.11324433  0.02264887       0.014
   0.13589320  0.13589320  0.02264887       0.003
   0.04529773  0.04529773  0.04529773       0.005
   0.06794660  0.04529773  0.04529773       0.014
   0.09059547  0.04529773  0.04529773       0.014
   0.11324433  0.04529773  0.04529773       0.014
   0.13589320  0.04529773  0.04529773       0.007
   0.06794660  0.06794660  0.04529773       0.014
   0.09059547  0.06794660  0.04529773       0.028
   0.11324433  0.06794660  0.04529773       0.028
   0.13589320  0.06794660  0.04529773       0.014
   0.09059547  0.09059547  0.04529773       0.014
   0.11324433  0.09059547  0.04529773       0.028
   0.13589320  0.09059547  0.04529773       0.014
   0.11324433  0.11324433  0.04529773       0.014
   0.13589320  0.11324433  0.04529773       0.014
   0.13589320  0.13589320  0.04529773       0.003
   0.06794660  0.06794660  0.06794660       0.005
   0.09059547  0.06794660  0.06794660       0.014
   0.11324433  0.06794660  0.06794660       0.014
   0.13589320  0.06794660  0.06794660       0.007
   0.09059547  0.09059547  0.06794660       0.014
   0.11324433  0.09059547  0.06794660       0.028
   0.13589320  0.09059547  0.06794660       0.014
   0.11324433  0.11324433  0.06794660       0.014
   0.13589320  0.11324433  0.06794660       0.014
   0.13589320  0.13589320  0.06794660       0.003
   0.09059547  0.09059547  0.09059547       0.005
   0.11324433  0.09059547  0.09059547       0.014
   0.13589320  0.09059547  0.09059547       0.007
   0.11324433  0.11324433  0.09059547       0.014
   0.13589320  0.11324433  0.09059547       0.014
   0.13589320  0.13589320  0.09059547       0.003
   0.11324433  0.11324433  0.11324433       0.005
   0.13589320  0.11324433  0.11324433       0.007
   0.13589320  0.13589320  0.11324433       0.003
   0.13589320  0.13589320  0.13589320       0.001
 
 k-points in reciprocal lattice and weights: kpt_density=1000                        
   0.00000000  0.00000000  0.00000000       0.001
   0.08333333  0.00000000  0.00000000       0.003
   0.16666667  0.00000000  0.00000000       0.003
   0.25000000  0.00000000  0.00000000       0.003
   0.33333333  0.00000000  0.00000000       0.003
   0.41666667  0.00000000  0.00000000       0.003
   0.50000000  0.00000000  0.00000000       0.002
   0.08333333  0.08333333  0.00000000       0.007
   0.16666667  0.08333333  0.00000000       0.014
   0.25000000  0.08333333  0.00000000       0.014
   0.33333333  0.08333333  0.00000000       0.014
   0.41666667  0.08333333  0.00000000       0.014
   0.50000000  0.08333333  0.00000000       0.007
   0.16666667  0.16666667  0.00000000       0.007
   0.25000000  0.16666667  0.00000000       0.014
   0.33333333  0.16666667  0.00000000       0.014
   0.41666667  0.16666667  0.00000000       0.014
   0.50000000  0.16666667  0.00000000       0.007
   0.25000000  0.25000000  0.00000000       0.007
   0.33333333  0.25000000  0.00000000       0.014
   0.41666667  0.25000000  0.00000000       0.014
   0.50000000  0.25000000  0.00000000       0.007
   0.33333333  0.33333333  0.00000000       0.007
   0.41666667  0.33333333  0.00000000       0.014
   0.50000000  0.33333333  0.00000000       0.007
   0.41666667  0.41666667  0.00000000       0.007
   0.50000000  0.41666667  0.00000000       0.007
   0.50000000  0.50000000  0.00000000       0.002
   0.08333333  0.08333333  0.08333333       0.005
   0.16666667  0.08333333  0.08333333       0.014
   0.25000000  0.08333333  0.08333333       0.014
   0.33333333  0.08333333  0.08333333       0.014
   0.41666667  0.08333333  0.08333333       0.014
   0.50000000  0.08333333  0.08333333       0.007
   0.16666667  0.16666667  0.08333333       0.014
   0.25000000  0.16666667  0.08333333       0.028
   0.33333333  0.16666667  0.08333333       0.028
   0.41666667  0.16666667  0.08333333       0.028
   0.50000000  0.16666667  0.08333333       0.014
   0.25000000  0.25000000  0.08333333       0.014
   0.33333333  0.25000000  0.08333333       0.028
   0.41666667  0.25000000  0.08333333       0.028
   0.50000000  0.25000000  0.08333333       0.014
   0.33333333  0.33333333  0.08333333       0.014
   0.41666667  0.33333333  0.08333333       0.028
   0.50000000  0.33333333  0.08333333       0.014
   0.41666667  0.41666667  0.08333333       0.014
   0.50000000  0.41666667  0.08333333       0.014
   0.50000000  0.50000000  0.08333333       0.003
   0.16666667  0.16666667  0.16666667       0.005
   0.25000000  0.16666667  0.16666667       0.014
   0.33333333  0.16666667  0.16666667       0.014
   0.41666667  0.16666667  0.16666667       0.014
   0.50000000  0.16666667  0.16666667       0.007
   0.25000000  0.25000000  0.16666667       0.014
   0.33333333  0.25000000  0.16666667       0.028
   0.41666667  0.25000000  0.16666667       0.028
   0.50000000  0.25000000  0.16666667       0.014
   0.33333333  0.33333333  0.16666667       0.014
   0.41666667  0.33333333  0.16666667       0.028
   0.50000000  0.33333333  0.16666667       0.014
   0.41666667  0.41666667  0.16666667       0.014
   0.50000000  0.41666667  0.16666667       0.014
   0.50000000  0.50000000  0.16666667       0.003
   0.25000000  0.25000000  0.25000000       0.005
   0.33333333  0.25000000  0.25000000       0.014
   0.41666667  0.25000000  0.25000000       0.014
   0.50000000  0.25000000  0.25000000       0.007
   0.33333333  0.33333333  0.25000000       0.014
   0.41666667  0.33333333  0.25000000       0.028
   0.50000000  0.33333333  0.25000000       0.014
   0.41666667  0.41666667  0.25000000       0.014
   0.50000000  0.41666667  0.25000000       0.014
   0.50000000  0.50000000  0.25000000       0.003
   0.33333333  0.33333333  0.33333333       0.005
   0.41666667  0.33333333  0.33333333       0.014
   0.50000000  0.33333333  0.33333333       0.007
   0.41666667  0.41666667  0.33333333       0.014
   0.50000000  0.41666667  0.33333333       0.014
   0.50000000  0.50000000  0.33333333       0.003
   0.41666667  0.41666667  0.41666667       0.005
   0.50000000  0.41666667  0.41666667       0.007
   0.50000000  0.50000000  0.41666667       0.003
   0.50000000  0.50000000  0.50000000       0.001
 
 position of ions in fractional coordinates (direct lattice) 
   0.25000000  0.75000000  0.25000000
   0.00000000  0.00000000  0.50000000
   0.25000000  0.25000000  0.75000000
   0.00000000  0.50000000  0.00000000
   0.75000000  0.75000000  0.75000000
   0.50000000  0.00000000  0.00000000
   0.75000000  0.25000000  0.25000000
   0.50000000  0.50000000  0.50000000
 
 position of ions in cartesian coordinates  (Angst):
   0.92403273  2.77209819  0.92403273
   0.00000000  0.00000000  1.84806546
   0.92403273  0.92403273  2.77209819
   0.00000000  1.84806546  0.00000000
   2.77209819  2.77209819  2.77209819
   1.84806546  0.00000000  0.00000000
   2.77209819  0.92403273  0.92403273
   1.84806546  1.84806546  1.84806546
 


--------------------------------------------------------------------------------------------------------


 k-point  1 :   0.0000 0.0000 0.0000  plane waves:     925
 k-point  2 :   0.0833 0.0000 0.0000  plane waves:     916
 k-point  3 :   0.1667 0.0000 0.0000  plane waves:     912
 k-point  4 :   0.2500 0.0000 0.0000  plane waves:     908
 k-point  5 :   0.3333 0.0000 0.0000  plane waves:     912
 k-point  6 :   0.4167 0.0000 0.0000  plane waves:     900
 k-point  7 :   0.5000 0.0000 0.0000  plane waves:     916
 k-point  8 :   0.0833 0.0833 0.0000  plane waves:     917
 k-point  9 :   0.1667 0.0833 0.0000  plane waves:     922
 k-point 10 :   0.2500 0.0833 0.0000  plane waves:     914
 k-point 11 :   0.3333 0.0833 0.0000  plane waves:     910
 k-point 12 :   0.4167 0.0833 0.0000  plane waves:     903
 k-point 13 :   0.5000 0.0833 0.0000  plane waves:     908
 k-point 14 :   0.1667 0.1667 0.0000  plane waves:     911
 k-point 15 :   0.2500 0.1667 0.0000  plane waves:     911
 k-point 16 :   0.3333 0.1667 0.0000  plane waves:     913
 k-point 17 :   0.4167 0.1667 0.0000  plane waves:     907
 k-point 18 :   0.5000 0.1667 0.0000  plane waves:     920
 k-point 19 :   0.2500 0.2500 0.0000  plane waves:     909
 k-point 20 :   0.3333 0.2500 0.0000  plane waves:     908
 k-point 21 :   0.4167 0.2500 0.0000  plane waves:     912
 k-point 22 :   0.5000 0.2500 0.0000  plane waves:     928
 k-point 23 :   0.3333 0.3333 0.0000  plane waves:     916
 k-point 24 :   0.4167 0.3333 0.0000  plane waves:     919
 k-point 25 :   0.5000 0.3333 0.0000  plane waves:     904
 k-point 26 :   0.4167 0.4167 0.0000  plane waves:     912
 k-point 27 :   0.5000 0.4167 0.0000  plane waves:     912
 k-point 28 :   0.5000 0.5000 0.0000  plane waves:     888
 k-point 29 :   0.0833 0.0833 0.0833  plane waves:     916
 k-point 30 :   0.1667 0.0833 0.0833  plane waves:     918
 k-point 31 :   0.2500 0.0833 0.0833  plane waves:     915
 k-point 32 :   0.3333 0.0833 0.0833  plane waves:     911
 k-point 33 :   0.4167 0.0833 0.0833  plane waves:     906
 k-point 34 :   0.5000 0.0833 0.0833  plane waves:     904
 k-point 35 :   0.1667 0.1667 0.0833  plane waves:     919
 k-point 36 :   0.2500 0.1667 0.0833  plane waves:     911
 k-point 37 :   0.3333 0.1667 0.0833  plane waves:     911
 k-point 38 :   0.4167 0.1667 0.0833  plane waves:     912
 k-point 39 :   0.5000 0.1667 0.0833  plane waves:     914
 k-point 40 :   0.2500 0.2500 0.0833  plane waves:     911
 k-point 41 :   0.3333 0.2500 0.0833  plane waves:     908
 k-point 42 :   0.4167 0.2500 0.0833  plane waves:     914
 k-point 43 :   0.5000 0.2500 0.0833  plane waves:     918
 k-point 44 :   0.3333 0.3333 0.0833  plane waves:     914
 k-point 45 :   0.4167 0.3333 0.0833  plane waves:     920
 k-point 46 :   0.5000 0.3333 0.0833  plane waves:     916
 k-point 47 :   0.4167 0.4167 0.0833  plane waves:     917
 k-point 48 :   0.5000 0.4167 0.0833  plane waves:     916
 k-point 49 :   0.5000 0.5000 0.0833  plane waves:     916
 k-point 50 :   0.1667 0.1667 0.1667  plane waves:     922
 k-point 51 :   0.2500 0.1667 0.1667  plane waves:     918
 k-point 52 :   0.3333 0.1667 0.1667  plane waves:     907
 k-point 53 :   0.4167 0.1667 0.1667  plane waves:     912
 k-point 54 :   0.5000 0.1667 0.1667  plane waves:     926
 k-point 55 :   0.2500 0.2500 0.1667  plane waves:     918
 k-point 56 :   0.3333 0.2500 0.1667  plane waves:     915
 k-point 57 :   0.4167 0.2500 0.1667  plane waves:     919
 k-point 58 :   0.5000 0.2500 0.1667  plane waves:     920
 k-point 59 :   0.3333 0.3333 0.1667  plane waves:     924
 k-point 60 :   0.4167 0.3333 0.1667  plane waves:     926
 k-point 61 :   0.5000 0.3333 0.1667  plane waves:     922
 k-point 62 :   0.4167 0.4167 0.1667  plane waves:     925
 k-point 63 :   0.5000 0.4167 0.1667  plane waves:     924
 k-point 64 :   0.5000 0.5000 0.1667  plane waves:     920
 k-point 65 :   0.2500 0.2500 0.2500  plane waves:     925
 k-point 66 :   0.3333 0.2500 0.2500  plane waves:     919
 k-point 67 :   0.4167 0.2500 0.2500  plane waves:     926
 k-point 68 :   0.5000 0.2500 0.2500  plane waves:     920
 k-point 69 :   0.3333 0.3333 0.2500  plane waves:     927
 k-point 70 :   0.4167 0.3333 0.2500  plane waves:     929
 k-point 71 :   0.5000 0.3333 0.2500  plane waves:     938
 k-point 72 :   0.4167 0.4167 0.2500  plane waves:     928
 k-point 73 :   0.5000 0.4167 0.2500  plane waves:     930
 k-point 74 :   0.5000 0.5000 0.2500  plane waves:     920
 k-point 75 :   0.3333 0.3333 0.3333  plane waves:     931
 k-point 76 :   0.4167 0.3333 0.3333  plane waves:     929
 k-point 77 :   0.5000 0.3333 0.3333  plane waves:     930
 k-point 78 :   0.4167 0.4167 0.3333  plane waves:     922
 k-point 79 :   0.5000 0.4167 0.3333  plane waves:     926
 k-point 80 :   0.5000 0.5000 0.3333  plane waves:     928
 k-point 81 :   0.4167 0.4167 0.4167  plane waves:     928
 k-point 82 :   0.5000 0.4167 0.4167  plane waves:     934
 k-point 83 :   0.5000 0.5000 0.4167  plane waves:     924
 k-point 84 :   0.5000 0.5000 0.5000  plane waves:     912

 maximum and minimum number of plane-waves per node :       244      210

 maximum number of plane-waves:       938
 maximum index in each direction: 
   IXMAX=    6   IYMAX=    6   IZMAX=    6
   IXMIN=   -6   IYMIN=   -6   IZMIN=   -6


 parallel 3D FFT for wavefunctions:
    minimum data exchange during FFTs selected (reduces bandwidth)
 parallel 3D FFT for charge:
    minimum data exchange during FFTs selected (reduces bandwidth)


 total amount of memory used by VASP MPI-rank0    34217. kBytes
=======================================================================

   base      :      30000. kBytes
   nonl-proj :       1320. kBytes
   fftplans  :        346. kBytes
   grid      :        481. kBytes
   one-center:          6. kBytes
   wavefun   :       2064. kBytes
 
     INWAV:  cpu time    0.0004: real time    0.0007
 Broyden mixing: mesh for mixing (old mesh)
   NGX = 13   NGY = 13   NGZ = 13
  (NGX  = 48   NGY  = 48   NGZ  = 48)
  gives a total of   2197 points

 initial charge density was supplied:
 charge density of overlapping atoms calculated
 number of electron      32.0000000 magnetization 
 keeping initial charge density in first step


--------------------------------------------------------------------------------------------------------


 Maximum index for augmentation-charges          261 (set IRDMAX)


--------------------------------------------------------------------------------------------------------


 First call to EWALD:  gamma=   0.480
 Maximum number of real-space cells 3x 3x 3
 Maximum number of reciprocal cells 3x 3x 3

    FEWALD:  cpu time    0.0054: real time    0.0054


--------------------------------------- Iteration      1(   1)  ---------------------------------------


    POTLOK:  cpu time    0.0250: real time    0.0290
    SETDIJ:  cpu time    0.0063: real time    0.0063
     EDDAV:  cpu time    3.8558: real time    3.8657
 BZINTS: Fermi energy: 17.099043; 32.000000 electrons
         Band energy:  96.412723;  BLOECHL correction: -0.260465
       DOS:  cpu time    0.1675: real time    0.1675
    --------------------------------------------
      LOOP:  cpu time    4.0547: real time    4.0686

 eigenvalue-minimisations  :  4032
 total energy-change (2. order) : 0.5596345E+02  (-0.1413676E+04)
 number of electron      32.0000000 magnetization 
 augmentation part       32.0000000 magnetization 

 Free energy of the ion-electron system (eV)
  ---------------------------------------------------
  alpha Z        PSCENC =       103.27372208
  Ewald energy   TEWEN  =     -1343.13422412
  -Hartree energ DENC   =       -80.16436368
  -exchange      EXHF   =         0.00000000
  -V(xc)+E(xc)   XCENC  =       111.76163430
  PAW double counting   =       302.65154477     -311.85538214
  entropy T*S    EENTRO =         0.00000000
  eigenvalues    EBANDS =        96.41272321
  atomic energy  EATOM  =      1177.01779097
  Solvation  Ediel_sol  =         0.00000000
  ---------------------------------------------------
  free energy    TOTEN  =        55.96344539 eV

  energy without entropy =       55.96344539  energy(sigma->0) =       55.96344539


--------------------------------------------------------------------------------------------------------




--------------------------------------- Iteration      1(   2)  ---------------------------------------


     EDDAV:  cpu time    5.0001: real time    5.0009
 BZINTS: Fermi energy:  7.912208; 32.000000 electrons
         Band energy: -29.175660;  BLOECHL correction:  0.000000
       DOS:  cpu time    0.0451: real time    0.0451
    --------------------------------------------
      LOOP:  cpu time    5.0452: real time    5.0460

 eigenvalue-minimisations  :  5616
 total energy-change (2. order) :-0.1255884E+03  (-0.1188955E+03)
 number of electron      32.0000000 magnetization 
 augmentation part       32.0000000 magnetization 

 Free energy of the ion-electron system (eV)
  ---------------------------------------------------
  alpha Z        PSCENC =       103.27372208
  Ewald energy   TEWEN  =     -1343.13422412
  -Hartree energ DENC   =       -80.16436368
  -exchange      EXHF   =         0.00000000
  -V(xc)+E(xc)   XCENC  =       111.76163430
  PAW double counting   =       302.65154477     -311.85538214
  entropy T*S    EENTRO =         0.00000000
  eigenvalues    EBANDS =       -29.17565970
  atomic energy  EATOM  =      1177.01779097
  Solvation  Ediel_sol  =         0.00000000
  ---------------------------------------------------
  free energy    TOTEN  =       -69.62493752 eV

  energy without entropy =      -69.62493752  energy(sigma->0) =      -69.62493752


--------------------------------------------------------------------------------------------------------




--------------------------------------- Iteration      1(   3)  ---------------------------------------


     EDDAV:  cpu time    4.9143: real time    4.9167
 BZINTS: Fermi energy:  7.136809; 32.000000 electrons
         Band energy: -33.430979;  BLOECHL correction:  0.000000
       DOS:  cpu time    0.0409: real time    0.0409
    --------------------------------------------
      LOOP:  cpu time    4.9553: real time    4.9576

 eigenvalue-minimisations  :  5216
 total energy-change (2. order) :-0.4255320E+01  (-0.4233234E+01)
 number of electron      32.0000000 magnetization 
 augmentation part       32.0000000 magnetization 

 Free energy of the ion-electron system (eV)
  ---------------------------------------------------
  alpha Z        PSCENC =       103.27372208
  Ewald energy   TEWEN  =     -1343.13422412
  -Hartree energ DENC   =       -80.16436368
  -exchange      EXHF   =         0.00000000
  -V(xc)+E(xc)   XCENC  =       111.76163430
  PAW double counting   =       302.65154477     -311.85538214
  entropy T*S    EENTRO =         0.00000000
  eigenvalues    EBANDS =       -33.43097935
  atomic energy  EATOM  =      1177.01779097
  Solvation  Ediel_sol  =         0.00000000
  ---------------------------------------------------
  free energy    TOTEN  =       -73.88025717 eV

  energy without entropy =      -73.88025717  energy(sigma->0) =      -73.88025717


--------------------------------------------------------------------------------------------------------




--------------------------------------- Iteration      1(   4)  ---------------------------------------


     EDDAV:  cpu time    4.8661: real time    4.8667
 BZINTS: Fermi energy:  7.075432; 32.000000 electrons
         Band energy: -33.480835;  BLOECHL correction:  0.000000
       DOS:  cpu time    0.0366: real time    0.0366
    --------------------------------------------
      LOOP:  cpu time    4.9027: real time    4.9033

 eigenvalue-minimisations  :  5256
 total energy-change (2. order) :-0.4985522E-01  (-0.4980104E-01)
 number of electron      32.0000000 magnetization 
 augmentation part       32.0000000 magnetization 

 Free energy of the ion-electron system (eV)
  ---------------------------------------------------
  alpha Z        PSCENC =       103.27372208
  Ewald energy   TEWEN  =     -1343.13422412
  -Hartree energ DENC   =       -80.16436368
  -exchange      EXHF   =         0.00000000
  -V(xc)+E(xc)   XCENC  =       111.76163430
  PAW double counting   =       302.65154477     -311.85538214
  entropy T*S    EENTRO =         0.00000000
  eigenvalues    EBANDS =       -33.48083457
  atomic energy  EATOM  =      1177.01779097
  Solvation  Ediel_sol  =         0.00000000
  ---------------------------------------------------
  free energy    TOTEN  =       -73.93011239 eV

  energy without entropy =      -73.93011239  energy(sigma->0) =      -73.93011239


--------------------------------------------------------------------------------------------------------




--------------------------------------- Iteration      1(   5)  ---------------------------------------


     EDDAV:  cpu time    4.7285: real time    4.7291
 BZINTS: Fermi energy:  7.044598; 32.000000 electrons
         Band energy: -33.481895;  BLOECHL correction:  0.000000
       DOS:  cpu time    0.0363: real time    0.0363
    CHARGE:  cpu time    0.1280: real time    0.1280
    MIXING:  cpu time    0.0016: real time    0.0016
    --------------------------------------------
      LOOP:  cpu time    4.8945: real time    4.8951

 eigenvalue-minimisations  :  5176
 total energy-change (2. order) :-0.1060224E-02  (-0.1059836E-02)
 number of electron      32.0000006 magnetization 
 augmentation part        0.7041992 magnetization 

 Broyden mixing:
  rms(total) = 0.83409E+00    rms(broyden)= 0.83400E+00
  rms(prec ) = 0.19190E+01
  weight for this iteration     100.00

 Free energy of the ion-electron system (eV)
  ---------------------------------------------------
  alpha Z        PSCENC =       103.27372208
  Ewald energy   TEWEN  =     -1343.13422412
  -Hartree energ DENC   =       -80.16436368
  -exchange      EXHF   =         0.00000000
  -V(xc)+E(xc)   XCENC  =       111.76163430
  PAW double counting   =       302.65154477     -311.85538214
  entropy T*S    EENTRO =         0.00000000
  eigenvalues    EBANDS =       -33.48189480
  atomic energy  EATOM  =      1177.01779097
  Solvation  Ediel_sol  =         0.00000000
  ---------------------------------------------------
  free energy    TOTEN  =       -73.93117262 eV

  energy without entropy =      -73.93117262  energy(sigma->0) =      -73.93117262


--------------------------------------------------------------------------------------------------------




--------------------------------------- Iteration      1(   6)  ---------------------------------------


    POTLOK:  cpu time    0.0204: real time    0.0208
    SETDIJ:  cpu time    0.0057: real time    0.0057
     EDDAV:  cpu time    4.5013: real time    4.5016
 BZINTS: Fermi energy:  7.596157; 32.000000 electrons
         Band energy: -19.358563;  BLOECHL correction:  0.000000
       DOS:  cpu time    0.0367: real time    0.0367
    CHARGE:  cpu time    0.1338: real time    0.1338
    MIXING:  cpu time    0.0018: real time    0.0018
    --------------------------------------------
      LOOP:  cpu time    4.6998: real time    4.7004

 eigenvalue-minimisations  :  4792
 total energy-change (2. order) : 0.1335450E+01  (-0.9064554E-01)
 number of electron      32.0000006 magnetization 
 augmentation part        0.6898074 magnetization 

 Broyden mixing:
  rms(total) = 0.46613E+00    rms(broyden)= 0.46613E+00
  rms(prec ) = 0.10533E+01
  weight for this iteration     100.00

 eigenvalues of (default mixing * dielectric matrix)
  average eigenvalue GAMMA=   2.2108
  2.2108

 Free energy of the ion-electron system (eV)
  ---------------------------------------------------
  alpha Z        PSCENC =       103.27372208
  Ewald energy   TEWEN  =     -1343.13422412
  -Hartree energ DENC   =       -93.80510414
  -exchange      EXHF   =         0.00000000
  -V(xc)+E(xc)   XCENC  =       113.02380567
  PAW double counting   =       375.21373565     -384.82688571
  entropy T*S    EENTRO =         0.00000000
  eigenvalues    EBANDS =       -19.35856269
  atomic energy  EATOM  =      1177.01779097
  Solvation  Ediel_sol  =         0.00000000
  ---------------------------------------------------
  free energy    TOTEN  =       -72.59572228 eV

  energy without entropy =      -72.59572228  energy(sigma->0) =      -72.59572228


--------------------------------------------------------------------------------------------------------




--------------------------------------- Iteration      1(   7)  ---------------------------------------


    POTLOK:  cpu time    0.0207: real time    0.0210
    SETDIJ:  cpu time    0.0057: real time    0.0057
     EDDAV:  cpu time    4.6216: real time    4.6218
 BZINTS: Fermi energy:  8.348840; 32.000000 electrons
         Band energy:  -2.632628;  BLOECHL correction:  0.000000
       DOS:  cpu time    0.0368: real time    0.0368
    CHARGE:  cpu time    0.1294: real time    0.1294
    MIXING:  cpu time    0.0020: real time    0.0020
    --------------------------------------------
      LOOP:  cpu time    4.8163: real time    4.8169

 eigenvalue-minimisations  :  4840
 total energy-change (2. order) : 0.4525280E+00  (-0.1057868E+00)
 number of electron      32.0000006 magnetization 
 augmentation part        0.6744231 magnetization 

 Broyden mixing:
  rms(total) = 0.65999E-01    rms(broyden)= 0.65947E-01
  rms(prec ) = 0.11503E+00
  weight for this iteration     100.00

 eigenvalues of (default mixing * dielectric matrix)
  average eigenvalue GAMMA=   2.2638
  1.9975  2.5301

 Free energy of the ion-electron system (eV)
  ---------------------------------------------------
  alpha Z        PSCENC =       103.27372208
  Ewald energy   TEWEN  =     -1343.13422412
  -Hartree energ DENC   =      -111.34460637
  -exchange      EXHF   =         0.00000000
  -V(xc)+E(xc)   XCENC  =       114.67413699
  PAW double counting   =       472.37947045     -482.37685676
  entropy T*S    EENTRO =         0.00000000
  eigenvalues    EBANDS =        -2.63262754
  atomic energy  EATOM  =      1177.01779097
  Solvation  Ediel_sol  =         0.00000000
  ---------------------------------------------------
  free energy    TOTEN  =       -72.14319430 eV

  energy without entropy =      -72.14319430  energy(sigma->0) =      -72.14319430


--------------------------------------------------------------------------------------------------------




--------------------------------------- Iteration      1(   8)  ---------------------------------------


    POTLOK:  cpu time    0.0206: real time    0.6975
    SETDIJ:  cpu time    0.0057: real time    0.0057
     EDDAV:  cpu time    4.8182: real time    4.8184
 BZINTS: Fermi energy:  8.349667; 32.000000 electrons
         Band energy:  -2.416964;  BLOECHL correction:  0.000000
       DOS:  cpu time    0.0367: real time    0.0367
    CHARGE:  cpu time    0.1367: real time    0.1368
    MIXING:  cpu time    0.0020: real time    0.0020
    --------------------------------------------
      LOOP:  cpu time    5.0199: real time    5.6971

 eigenvalue-minimisations  :  5184
 total energy-change (2. order) :-0.6194093E-02  (-0.2195271E-02)
 number of electron      32.0000006 magnetization 
 augmentation part        0.6752532 magnetization 

 Broyden mixing:
  rms(total) = 0.73789E-02    rms(broyden)= 0.73660E-02
  rms(prec ) = 0.12875E-01
  weight for this iteration     100.00

 eigenvalues of (default mixing * dielectric matrix)
  average eigenvalue GAMMA=   2.1023
  1.4506  2.6720  2.1845

 Free energy of the ion-electron system (eV)
  ---------------------------------------------------
  alpha Z        PSCENC =       103.27372208
  Ewald energy   TEWEN  =     -1343.13422412
  -Hartree energ DENC   =      -111.72257821
  -exchange      EXHF   =         0.00000000
  -V(xc)+E(xc)   XCENC  =       114.71145169
  PAW double counting   =       477.26367979     -487.14226695
  entropy T*S    EENTRO =         0.00000000
  eigenvalues    EBANDS =        -2.41696364
  atomic energy  EATOM  =      1177.01779097
  Solvation  Ediel_sol  =         0.00000000
  ---------------------------------------------------
  free energy    TOTEN  =       -72.14938840 eV

  energy without entropy =      -72.14938840  energy(sigma->0) =      -72.14938840


--------------------------------------------------------------------------------------------------------




--------------------------------------- Iteration      1(   9)  ---------------------------------------


    POTLOK:  cpu time    0.0213: real time    0.0216
    SETDIJ:  cpu time    0.0058: real time    0.0058
     EDDAV:  cpu time    4.6847: real time    4.6849
 BZINTS: Fermi energy:  8.342896; 32.000000 electrons
         Band energy:  -2.516452;  BLOECHL correction:  0.000000
       DOS:  cpu time    0.0365: real time    0.0365
    CHARGE:  cpu time    0.1329: real time    0.1329
    MIXING:  cpu time    0.0019: real time    0.0019
    --------------------------------------------
      LOOP:  cpu time    4.8831: real time    4.8836

 eigenvalue-minimisations  :  4992
 total energy-change (2. order) :-0.2265375E-03  (-0.4278602E-04)
 number of electron      32.0000006 magnetization 
 augmentation part        0.6751984 magnetization 

 Broyden mixing:
  rms(total) = 0.26803E-02    rms(broyden)= 0.26795E-02
  rms(prec ) = 0.48601E-02
  weight for this iteration     100.00

 eigenvalues of (default mixing * dielectric matrix)
  average eigenvalue GAMMA=   2.0638
  0.9775  2.7980  2.4914  1.9884

 Free energy of the ion-electron system (eV)
  ---------------------------------------------------
  alpha Z        PSCENC =       103.27372208
  Ewald energy   TEWEN  =     -1343.13422412
  -Hartree energ DENC   =      -111.62665993
  -exchange      EXHF   =         0.00000000
  -V(xc)+E(xc)   XCENC  =       114.70216066
  PAW double counting   =       476.43523246     -486.30118455
  entropy T*S    EENTRO =         0.00000000
  eigenvalues    EBANDS =        -2.51645250
  atomic energy  EATOM  =      1177.01779097
  Solvation  Ediel_sol  =         0.00000000
  ---------------------------------------------------
  free energy    TOTEN  =       -72.14961493 eV

  energy without entropy =      -72.14961493  energy(sigma->0) =      -72.14961493


--------------------------------------------------------------------------------------------------------




--------------------------------------- Iteration      1(  10)  ---------------------------------------


    POTLOK:  cpu time    0.0207: real time    0.0210
    SETDIJ:  cpu time    0.0057: real time    0.0057
     EDDAV:  cpu time    4.8099: real time    4.8102
 BZINTS: Fermi energy:  8.343735; 32.000000 electrons
         Band energy:  -2.475052;  BLOECHL correction:  0.000000
       DOS:  cpu time    0.0364: real time    0.0364
    CHARGE:  cpu time    0.1224: real time    0.1224
    MIXING:  cpu time    0.0022: real time    0.0022
    --------------------------------------------
      LOOP:  cpu time    4.9973: real time    4.9979

 eigenvalue-minimisations  :  5080
 total energy-change (2. order) :-0.5748891E-04  (-0.5647198E-05)
 number of electron      32.0000006 magnetization 
 augmentation part        0.6751713 magnetization 

 Broyden mixing:
  rms(total) = 0.25241E-03    rms(broyden)= 0.25181E-03
  rms(prec ) = 0.59205E-03
  weight for this iteration     100.00

 eigenvalues of (default mixing * dielectric matrix)
  average eigenvalue GAMMA=   1.9758
  2.9589  2.5589  2.0699  0.9847  1.3066

 Free energy of the ion-electron system (eV)
  ---------------------------------------------------
  alpha Z        PSCENC =       103.27372208
  Ewald energy   TEWEN  =     -1343.13422412
  -Hartree energ DENC   =      -111.67021930
  -exchange      EXHF   =         0.00000000
  -V(xc)+E(xc)   XCENC  =       114.70596936
  PAW double counting   =       476.01600957     -485.88366908
  entropy T*S    EENTRO =         0.00000000
  eigenvalues    EBANDS =        -2.47505190
  atomic energy  EATOM  =      1177.01779097
  Solvation  Ediel_sol  =         0.00000000
  ---------------------------------------------------
  free energy    TOTEN  =       -72.14967242 eV

  energy without entropy =      -72.14967242  energy(sigma->0) =      -72.14967242


--------------------------------------------------------------------------------------------------------




--------------------------------------- Iteration      1(  11)  ---------------------------------------


    POTLOK:  cpu time    0.0206: real time    0.0210
    SETDIJ:  cpu time    0.0060: real time    0.0060
     EDDAV:  cpu time    4.1324: real time    4.1327
 BZINTS: Fermi energy:  8.343858; 32.000000 electrons
         Band energy:  -2.462691;  BLOECHL correction:  0.000000
       DOS:  cpu time    0.0365: real time    0.0365
    --------------------------------------------
      LOOP:  cpu time    4.1955: real time    4.1961

 eigenvalue-minimisations  :  3808
 total energy-change (2. order) :-0.3364787E-06  (-0.1125935E-06)
 number of electron      32.0000006 magnetization 
 augmentation part        0.6751713 magnetization 

 Free energy of the ion-electron system (eV)
  ---------------------------------------------------
  alpha Z        PSCENC =       103.27372208
  Ewald energy   TEWEN  =     -1343.13422412
  -Hartree energ DENC   =      -111.68317182
  -exchange      EXHF   =         0.00000000
  -V(xc)+E(xc)   XCENC  =       114.70718406
  PAW double counting   =       476.05642329     -485.92470581
  entropy T*S    EENTRO =         0.00000000
  eigenvalues    EBANDS =        -2.46269141
  atomic energy  EATOM  =      1177.01779097
  Solvation  Ediel_sol  =         0.00000000
  ---------------------------------------------------
  free energy    TOTEN  =       -72.14967276 eV

  energy without entropy =      -72.14967276  energy(sigma->0) =      -72.14967276


--------------------------------------------------------------------------------------------------------




 average (electrostatic) potential at core
  the test charge radii are     0.6991
  (the norm of the test charge is              1.0000)
       1 -46.8989       2 -46.8989       3 -46.8989       4 -46.8989       5 -46.8989
       6 -46.8989       7 -46.8989       8 -46.8989
 
 
 
 E-fermi :   8.3439     XC(G=0): -12.6949     alpha+bet :-15.9052


 k-point     1 :       0.0000    0.0000    0.0000
  band No.  band energies     occupation 
      1     -11.8278      2.00000
      2      -3.7805      2.00000
      3      -3.7805      2.00000
      4      -3.7805      2.00000
      5      -3.7805      2.00000
      6      -3.7805      2.00000
      7      -3.7805      2.00000
      8       2.5947      2.00000
      9       2.5947      2.00000
     10       2.5947      2.00000
     11       2.5947      2.00000
     12       2.5947      2.00000
     13       2.5947      2.00000
     14       8.2638      2.00000
     15       8.2638      2.00000
     16       8.2638      2.00000
     17      12.8016      0.00000
     18      12.8016      0.00000
     19      12.8016      0.00000
     20      12.8016      0.00000
     21      12.8016      0.00000
     22      12.8016      0.00000
     23      13.5708      0.00000
     24      13.5708      0.00000

 k-point     2 :       0.0833    0.0000    0.0000
  band No.  band energies     occupation 
      1     -11.7683      2.00000
      2      -4.9778      2.00000
      3      -3.7463      2.00000
      4      -3.7463      2.00000
      5      -3.7463      2.00000
      6      -3.7463      2.00000
      7      -2.5281      2.00000
      8       2.4679      2.00000
      9       2.4679      2.00000
     10       2.4679      2.00000
     11       2.4679      2.00000
     12       2.6519      2.00000
     13       2.6519      2.00000
     14       8.0434      2.00000
     15       8.0434      2.00000
     16       8.1149      2.00000
     17      12.4701      0.00000
     18      13.0433      0.00000
     19      13.0433      0.00000
     20      13.0433      0.00000
     21      13.0433      0.00000
     22      13.2725      0.00000
     23      13.5208      0.00000
     24      13.8513      0.00000

 k-point     3 :       0.1667    0.0000    0.0000
  band No.  band energies     occupation 
      1     -11.5899      2.00000
      2      -6.1054      2.00000
      3      -3.6483      2.00000
      4      -3.6483      2.00000
      5      -3.6483      2.00000
      6      -3.6483      2.00000
      7      -1.2391      2.00000
      8       2.1339      2.00000
      9       2.1339      2.00000
     10       2.1339      2.00000
     11       2.1339      2.00000
     12       2.8229      2.00000
     13       2.8229      2.00000
     14       7.4694      2.00000
     15       7.4694      2.00000
     16       7.6562      2.00000
     17      12.2634      0.00000
     18      13.3876      0.00000
     19      13.7243      0.00000
     20      13.7243      0.00000
     21      13.7243      0.00000
     22      13.7243      0.00000
     23      13.8919      0.00000
     24      14.5729      0.00000

 k-point     4 :       0.2500    0.0000    0.0000
  band No.  band energies     occupation 
      1     -11.2934      2.00000
      2      -7.1509      2.00000
      3      -3.5023      2.00000
      4      -3.5023      2.00000
      5      -3.5023      2.00000
      6      -3.5023      2.00000
      7       0.0672      2.00000
      8       1.6928      2.00000
      9       1.6928      2.00000
     10       1.6928      2.00000
     11       1.6928      2.00000
     12       3.1057      2.00000
     13       3.1057      2.00000
     14       6.7431      2.00000
     15       6.7431      2.00000
     16       6.9449      2.00000
     17      12.1745      0.00000
     18      13.1801      0.00000
     19      14.6651      0.00000
     20      14.7426      0.00000
     21      14.7426      0.00000
     22      14.7426      0.00000
     23      14.7426      0.00000
     24      15.5460      0.00000

 k-point     5 :       0.3333    0.0000    0.0000
  band No.  band energies     occupation 
      1     -10.8800      2.00000
      2      -8.1049      2.00000
      3      -3.3381      2.00000
      4      -3.3381      2.00000
      5      -3.3381      2.00000
      6      -3.3381      2.00000
      7       1.2611      2.00000
      8       1.2611      2.00000
      9       1.2611      2.00000
     10       1.2611      2.00000
     11       1.3704      2.00000
     12       3.4986      2.00000
     13       3.4986      2.00000
     14       5.9794      2.00000
     15       5.9794      2.00000
     16       6.0443      2.00000
     17      12.1891      0.00000
     18      12.9272      0.00000
     19      15.5920      0.00000
     20      15.9876      0.00000
     21      15.9876      0.00000
     22      15.9876      0.00000
     23      15.9876      0.00000
     24      16.6364      0.00000

 k-point     6 :       0.4167    0.0000    0.0000
  band No.  band energies     occupation 
      1     -10.3515      2.00000
      2      -8.9600      2.00000
      3      -3.2025      2.00000
      4      -3.2025      2.00000
      5      -3.2025      2.00000
      6      -3.2025      2.00000
      7       0.9463      2.00000
      8       0.9463      2.00000
      9       0.9463      2.00000
     10       0.9463      2.00000
     11       2.6423      2.00000
     12       3.9929      2.00000
     13       3.9929      2.00000
     14       5.0048      2.00000
     15       5.2453      2.00000
     16       5.2453      2.00000
     17      12.2903      0.00000
     18      12.6785      0.00000
     19      16.6315      0.00000
     20      17.3502      0.00000
     21      17.3502      0.00000
     22      17.3502      0.00000
     23      17.3517      0.00000
     24      17.7807      0.00000

 k-point     7 :       0.5000    0.0000    0.0000
  band No.  band energies     occupation 
      1      -9.7103      2.00000
      2      -9.7103      2.00000
      3      -3.1489      2.00000
      4      -3.1489      2.00000
      5      -3.1489      2.00000
      6      -3.1489      2.00000
      7       0.8290      2.00000
      8       0.8290      2.00000
      9       0.8290      2.00000
     10       0.8290      2.00000
     11       3.8615      2.00000
     12       3.8615      2.00000
     13       4.5742      2.00000
     14       4.5742      2.00000
     15       4.5742      2.00000
     16       4.5742      2.00000
     17      12.4567      0.00000
     18      12.4567      0.00000
     19      17.7160      0.00000
     20      17.7160      0.00000
     21      18.4221      0.00000
     22      18.4222      0.00000
     23      18.4223      0.00000
     24      18.4295      0.00000

 k-point     8 :       0.0833    0.0833    0.0000
  band No.  band energies     occupation 
      1     -11.7088      2.00000
      2      -4.9352      2.00000
      3      -4.9352      2.00000
      4      -3.7567      2.00000
      5      -3.6717      2.00000
      6      -2.5072      2.00000
      7      -2.5072      2.00000
      8       2.0339      2.00000
      9       2.5116      2.00000
     10       2.5116      2.00000
     11       2.5436      2.00000
     12       2.5436      2.00000
     13       2.6905      2.00000
     14       7.6189      2.00000
     15       7.8198      2.00000
     16       8.1996      2.00000
     17      12.7183      0.00000
     18      12.7183      0.00000
     19      12.8992      0.00000
     20      13.5059      0.00000
     21      13.5059      0.00000
     22      13.6313      0.00000
     23      13.6900      0.00000
     24      13.9130      0.00000

 k-point     9 :       0.1667    0.0833    0.0000
  band No.  band energies     occupation 
      1     -11.5306      2.00000
      2      -6.0573      2.00000
      3      -4.8101      2.00000
      4      -3.7175      2.00000
      5      -3.5290      2.00000
      6      -2.4524      2.00000
      7      -1.2400      2.00000
      8       1.4891      2.00000
      9       2.1389      2.00000
     10       2.2624      2.00000
     11       2.6616      2.00000
     12       2.6729      2.00000
     13       2.7416      2.00000
     14       6.9335      2.00000
     15       7.2578      2.00000
     16       7.9456      2.00000
     17      12.5165      0.00000
     18      13.2347      0.00000
     19      13.4144      0.00000
     20      13.6195      0.00000
     21      14.1152      0.00000
     22      14.1662      0.00000
     23      14.5599      0.00000
     24      14.5680      0.00000

 k-point    10 :       0.2500    0.0833    0.0000
  band No.  band energies     occupation 
      1     -11.2344      2.00000
      2      -7.0991      2.00000
      3      -4.6123      2.00000
      4      -3.6584      2.00000
      5      -3.3240      2.00000
      6      -2.3887      2.00000
      7       0.0293      2.00000
      8       0.9568      2.00000
      9       1.6377      2.00000
     10       1.9114      2.00000
     11       2.4245      2.00000
     12       2.9470      2.00000
     13       3.0655      2.00000
     14       6.1384      2.00000
     15       6.5450      2.00000
     16       7.3840      2.00000
     17      12.4316      0.00000
     18      13.4238      0.00000
     19      13.9984      0.00000
     20      14.4506      0.00000
     21      14.8764      0.00000
     22      15.1572      0.00000
     23      15.5238      0.00000
     24      15.5333      0.00000

 k-point    11 :       0.3333    0.0833    0.0000
  band No.  band energies     occupation 
      1     -10.8214      2.00000
      2      -8.0507      2.00000
      3      -4.3602      2.00000
      4      -3.6270      2.00000
      5      -3.0729      2.00000
      6      -2.3586      2.00000
      7       0.5444      2.00000
      8       1.1201      2.00000
      9       1.2666      2.00000
     10       1.6132      2.00000
     11       2.0851      2.00000
     12       3.3300      2.00000
     13       3.5233      2.00000
     14       5.2937      2.00000
     15       5.7898      2.00000
     16       6.6133      2.00000
     17      12.4466      0.00000
     18      13.1785      0.00000
     19      15.0833      0.00000
     20      15.7184      0.00000
     21      15.7849      0.00000
     22      16.3679      0.00000
     23      16.5341      0.00000
     24      16.6165      0.00000

 k-point    12 :       0.4167    0.0833    0.0000
  band No.  band energies     occupation 
      1     -10.2935      2.00000
      2      -8.9040      2.00000
      3      -4.0866      2.00000
      4      -3.6787      2.00000
      5      -2.8060      2.00000
      6      -2.4111      2.00000
      7       0.3408      2.00000
      8       0.6768      2.00000
      9       1.4665      2.00000
     10       1.7511      2.00000
     11       2.4294      2.00000
     12       3.8186      2.00000
     13       4.1285      2.00000
     14       4.4175      2.00000
     15       5.0643      2.00000
     16       5.7454      2.00000
     17      12.5486      0.00000
     18      12.9333      0.00000
     19      16.3655      0.00000
     20      16.8101      0.00000
     21      17.1130      0.00000
     22      17.6004      0.00000
     23      17.6425      0.00000
     24      17.7685      0.00000

 k-point    13 :       0.5000    0.0833    0.0000
  band No.  band energies     occupation 
      1      -9.6532      2.00000
      2      -9.6532      2.00000
      3      -3.8409      2.00000
      4      -3.8409      2.00000
      5      -2.5686      2.00000
      6      -2.5686      2.00000
      7       0.3938      2.00000
      8       0.3938      2.00000
      9       1.5196      2.00000
     10       1.5196      2.00000
     11       3.4778      2.00000
     12       3.4778      2.00000
     13       4.3993      2.00000
     14       4.3993      2.00000
     15       4.8836      2.00000
     16       4.8836      2.00000
     17      12.7148      0.00000
     18      12.7148      0.00000
     19      17.6801      0.00000
     20      17.6801      0.00000
     21      17.8551      0.00000
     22      17.8551      0.00000
     23      18.5173      0.00000
     24      18.5473      0.00000

 k-point    14 :       0.1667    0.1667    0.0000
  band No.  band energies     occupation 
      1     -11.3529      2.00000
      2      -5.9147      2.00000
      3      -5.9147      2.00000
      4      -3.7653      2.00000
      5      -3.3456      2.00000
      6      -1.2547      2.00000
      7      -1.2547      2.00000
      8       0.8539      2.00000
      9       2.2721      2.00000
     10       2.2721      2.00000
     11       2.5416      2.00000
     12       2.5416      2.00000
     13       2.9773      2.00000
     14       6.1778      2.00000
     15       6.7278      2.00000
     16       7.9758      2.00000
     17      13.1875      0.00000
     18      13.2257      0.00000
     19      13.2257      0.00000
     20      14.0489      0.00000
     21      14.7106      0.00000
     22      14.7492      0.00000
     23      14.7492      0.00000
     24      14.9984      0.00000

 k-point    15 :       0.2500    0.1667    0.0000
  band No.  band energies     occupation 
      1     -11.0575      2.00000
      2      -6.9452      2.00000
      3      -5.6839      2.00000
      4      -3.8396      2.00000
      5      -3.0953      2.00000
      6      -1.3180      2.00000
      7      -0.0974      2.00000
      8       0.3380      2.00000
      9       1.7294      2.00000
     10       2.3228      2.00000
     11       2.5240      2.00000
     12       2.9848      2.00000
     13       3.0411      2.00000
     14       5.3538      2.00000
     15       6.0324      2.00000
     16       7.6512      2.00000
     17      13.1441      0.00000
     18      13.6104      0.00000
     19      14.0398      0.00000
     20      14.2720      0.00000
     21      15.4774      0.00000
     22      15.4957      0.00000
     23      15.5552      0.00000
     24      15.7029      0.00000

 k-point    16 :       0.3333    0.1667    0.0000
  band No.  band energies     occupation 
      1     -10.6458      2.00000
      2      -7.8889      2.00000
      3      -5.3763      2.00000
      4      -3.9975      2.00000
      5      -2.7852      2.00000
      6      -1.4705      2.00000
      7       0.0365      2.00000
      8       0.9759      2.00000
      9       1.1538      2.00000
     10       2.1971      2.00000
     11       2.8906      2.00000
     12       2.8971      2.00000
     13       3.6117      2.00000
     14       4.5119      2.00000
     15       5.2946      2.00000
     16       7.0257      2.00000
     17      13.1608      0.00000
     18      13.8424      0.00000
     19      14.4420      0.00000
     20      15.5448      0.00000
     21      16.3115      0.00000
     22      16.3458      0.00000
     23      16.5701      0.00000
     24      16.8581      0.00000

 k-point    17 :       0.4167    0.1667    0.0000
  band No.  band energies     occupation 
      1     -10.1198      2.00000
      2      -8.7369      2.00000
      3      -5.0123      2.00000
      4      -4.2686      2.00000
      5      -2.4319      2.00000
      6      -1.7282      2.00000
      7       0.0032      2.00000
      8       0.6274      2.00000
      9       1.9434      2.00000
     10       2.2264      2.00000
     11       2.6481      2.00000
     12       3.3645      2.00000
     13       3.6715      2.00000
     14       4.4071      2.00000
     15       4.5835      2.00000
     16       6.2122      2.00000
     17      13.2572      0.00000
     18      13.6199      0.00000
     19      15.5670      0.00000
     20      16.9413      0.00000
     21      17.1925      0.00000
     22      17.3208      0.00000
     23      17.7354      0.00000
     24      17.8161      0.00000

 k-point    18 :       0.5000    0.1667    0.0000
  band No.  band energies     occupation 
      1      -9.4822      2.00000
      2      -9.4822      2.00000
      3      -4.6261      2.00000
      4      -4.6261      2.00000
      5      -2.0652      2.00000
      6      -2.0652      2.00000
      7       0.2199      2.00000
      8       0.2199      2.00000
      9       2.3943      2.00000
     10       2.3943      2.00000
     11       2.8259      2.00000
[...]

 k-point    72 :       0.4167    0.4167    0.2500
  band No.  band energies     occupation 
      1      -8.4359      2.00000
      2      -7.1832      2.00000
      3      -7.1832      2.00000
      4      -6.2272      2.00000
      5      -3.2572      2.00000
      6      -2.3274      2.00000
      7      -2.3274      2.00000
      8      -1.1062      2.00000
      9       3.2259      2.00000
     10       3.9452      2.00000
     11       3.9452      2.00000
     12       4.9849      2.00000
     13       5.0392      2.00000
     14       5.1913      2.00000
     15       5.1913      2.00000
     16       6.1652      2.00000
     17      15.3097      0.00000
     18      15.8602      0.00000
     19      15.8602      0.00000
     20      16.0047      0.00000
     21      16.1863      0.00000
     22      16.5269      0.00000
     23      16.5269      0.00000
     24      16.6377      0.00000

 k-point    73 :       0.5000    0.4167    0.2500
  band No.  band energies     occupation 
      1      -7.8479      2.00000
      2      -7.8479      2.00000
      3      -6.6956      2.00000
      4      -6.6956      2.00000
      5      -2.8976      2.00000
      6      -2.8976      2.00000
      7      -1.7768      2.00000
      8      -1.7768      2.00000
      9       3.6030      2.00000
     10       3.6030      2.00000
     11       4.4973      2.00000
     12       4.4973      2.00000
     13       5.2309      2.00000
     14       5.2309      2.00000
     15       5.7898      2.00000
     16       5.7898      2.00000
     17      15.7770      0.00000
     18      15.7770      0.00000
     19      16.0998      0.00000
     20      16.0998      0.00000
     21      16.1722      0.00000
     22      16.1722      0.00000
     23      16.8754      0.00000
     24      16.8755      0.00000

 k-point    74 :       0.5000    0.5000    0.2500
  band No.  band energies     occupation 
      1      -7.2949      2.00000
      2      -7.2949      2.00000
      3      -7.2949      2.00000
      4      -7.2949      2.00000
      5      -2.4118      2.00000
      6      -2.4118      2.00000
      7      -2.4118      2.00000
      8      -2.4118      2.00000
      9       4.0686      2.00000
     10       4.0686      2.00000
     11       4.0686      2.00000
     12       4.0686      2.00000
     13       5.6479      2.00000
     14       5.6479      2.00000
     15       5.6479      2.00000
     16       5.6479      2.00000
     17      15.8421      0.00000
     18      15.8421      0.00000
     19      15.8421      0.00000
     20      15.8421      0.00000
     21      16.8834      0.00000
     22      16.8834      0.00000
     23      16.8834      0.00000
     24      16.8835      0.00000

 k-point    75 :       0.3333    0.3333    0.3333
  band No.  band energies     occupation 
      1      -9.0446      2.00000
      2      -6.5804      2.00000
      3      -6.5804      2.00000
      4      -6.5804      2.00000
      5      -2.8250      2.00000
      6      -2.8250      2.00000
      7      -2.8250      2.00000
      8      -0.4169      2.00000
      9       3.6608      2.00000
     10       3.6608      2.00000
     11       3.6608      2.00000
     12       4.7007      2.00000
     13       4.7007      2.00000
     14       4.7007      2.00000
     15       6.1805      2.00000
     16       6.1805      2.00000
     17      14.9286      0.00000
     18      14.9286      0.00000
     19      14.9286      0.00000
     20      15.6175      0.00000
     21      16.0605      0.00000
     22      16.0605      0.00000
     23      18.1751      0.00000
     24      18.1805      0.00000

 k-point    76 :       0.4167    0.3333    0.3333
  band No.  band energies     occupation 
      1      -8.5486      2.00000
      2      -7.2910      2.00000
      3      -6.3279      2.00000
      4      -6.3279      2.00000
      5      -3.3637      2.00000
      6      -3.3637      2.00000
      7      -2.4248      2.00000
      8      -1.1952      2.00000
      9       3.8608      2.00000
     10       3.8608      2.00000
     11       4.6874      2.00000
     12       4.8993      2.00000
     13       4.8993      2.00000
     14       5.0338      2.00000
     15       5.7983      2.00000
     16       6.0473      2.00000
     17      15.2265      0.00000
     18      15.4208      0.00000
     19      15.4208      0.00000
     20      15.6974      0.00000
     21      16.0192      0.00000
     22      16.4741      0.00000
     23      17.1926      0.00000
     24      17.2034      0.00000

 k-point    77 :       0.5000    0.3333    0.3333
  band No.  band energies     occupation 
      1      -7.9585      2.00000
      2      -7.9585      2.00000
      3      -6.2155      2.00000
      4      -6.2155      2.00000
      5      -3.5725      2.00000
      6      -3.5725      2.00000
      7      -1.8713      2.00000
      8      -1.8713      2.00000
      9       3.9272      2.00000
     10       3.9272      2.00000
     11       4.9662      2.00000
     12       4.9662      2.00000
     13       5.4070      2.00000
     14       5.4070      2.00000
     15       5.5214      2.00000
     16       5.5214      2.00000
     17      15.5130      0.00000
     18      15.5130      0.00000
     19      16.0945      0.00000
     20      16.0945      0.00000
     21      16.3313      0.00000
     22      16.3313      0.00000
     23      16.4930      0.00000
     24      16.4930      0.00000

 k-point    78 :       0.4167    0.4167    0.3333
  band No.  band energies     occupation 
      1      -8.0710      2.00000
      2      -6.9086      2.00000
      3      -6.9086      2.00000
      4      -6.3215      2.00000
      5      -3.6717      2.00000
      6      -3.0967      2.00000
      7      -3.0967      2.00000
      8      -1.9599      2.00000
      9       4.2614      2.00000
     10       4.6942      2.00000
     11       4.6942      2.00000
     12       5.2225      2.00000
     13       5.2838      2.00000
     14       5.2838      2.00000
     15       5.5973      2.00000
     16       6.0274      2.00000
     17      15.5373      0.00000
     18      15.6878      0.00000
     19      15.6878      0.00000
     20      15.8037      0.00000
     21      16.1629      0.00000
     22      16.3680      0.00000
     23      16.5992      0.00000
     24      16.5992      0.00000

 k-point    79 :       0.5000    0.4167    0.3333
  band No.  band energies     occupation 
      1      -7.5133      2.00000
      2      -7.5133      2.00000
      3      -6.5436      2.00000
      4      -6.5436      2.00000
      5      -3.5552      2.00000
      6      -3.5552      2.00000
      7      -2.6059      2.00000
      8      -2.6059      2.00000
      9       4.5294      2.00000
     10       4.5294      2.00000
     11       5.2278      2.00000
     12       5.2278      2.00000
     13       5.3713      2.00000
     14       5.3713      2.00000
     15       5.7446      2.00000
     16       5.7446      2.00000
     17      15.8921      0.00000
     18      15.8921      0.00000
     19      15.9519      0.00000
     20      15.9519      0.00000
     21      16.1970      0.00000
     22      16.1970      0.00000
     23      16.4098      0.00000
     24      16.4115      0.00000

 k-point    80 :       0.5000    0.5000    0.3333
  band No.  band energies     occupation 
      1      -7.0184      2.00000
      2      -7.0184      2.00000
      3      -7.0184      2.00000
      4      -7.0184      2.00000
      5      -3.1915      2.00000
      6      -3.1915      2.00000
      7      -3.1915      2.00000
      8      -3.1915      2.00000
      9       4.9282      2.00000
     10       4.9282      2.00000
     11       4.9282      2.00000
     12       4.9282      2.00000
     13       5.6917      2.00000
     14       5.6917      2.00000
     15       5.6917      2.00000
     16       5.6917      2.00000
     17      15.9250      0.00000
     18      15.9250      0.00000
     19      15.9250      0.00000
     20      15.9250      0.00000
     21      16.5777      0.00000
     22      16.5799      0.00000
     23      16.5855      0.00000
     24      16.6060      0.00000

 k-point    81 :       0.4167    0.4167    0.4167
  band No.  band energies     occupation 
      1      -7.6240      2.00000
      2      -6.6499      2.00000
      3      -6.6499      2.00000
      4      -6.6499      2.00000
      5      -3.6579      2.00000
      6      -3.6579      2.00000
      7      -3.6579      2.00000
      8      -2.7021      2.00000
      9       5.1158      2.00000
     10       5.1158      2.00000
     11       5.1158      2.00000
     12       5.4295      2.00000
     13       5.4295      2.00000
     14       5.4295      2.00000
     15       5.8500      2.00000
     16       5.8500      2.00000
     17      15.6908      0.00000
     18      15.7510      0.00000
     19      15.7510      0.00000
     20      15.7510      0.00000
     21      16.2568      0.00000
     22      16.2575      0.00000
     23      16.5618      0.00000
     24      16.5642      0.00000

 k-point    82 :       0.5000    0.4167    0.4167
  band No.  band energies     occupation 
      1      -7.1268      2.00000
      2      -7.1268      2.00000
      3      -6.5341      2.00000
      4      -6.5341      2.00000
      5      -3.8750      2.00000
      6      -3.8750      2.00000
      7      -3.2926      2.00000
      8      -3.2926      2.00000
      9       5.2014      2.00000
     10       5.2014      2.00000
     11       5.5418      2.00000
     12       5.5418      2.00000
     13       5.6452      2.00000
     14       5.6452      2.00000
     15       5.6775      2.00000
     16       5.6775      2.00000
     17      15.8010      0.00000
     18      15.8010      0.00000
     19      15.9853      0.00000
     20      15.9854      0.00000
     21      16.1943      0.00000
     22      16.1977      0.00000
     23      16.2013      0.00000
     24      16.2032      0.00000

 k-point    83 :       0.5000    0.5000    0.4167
  band No.  band energies     occupation 
      1      -6.7576      2.00000
      2      -6.7576      2.00000
      3      -6.7576      2.00000
      4      -6.7576      2.00000
      5      -3.7592      2.00000
      6      -3.7592      2.00000
      7      -3.7592      2.00000
      8      -3.7592      2.00000
      9       5.5227      2.00000
     10       5.5227      2.00000
     11       5.5227      2.00000
     12       5.5227      2.00000
     13       5.7254      2.00000
     14       5.7254      2.00000
     15       5.7254      2.00000
     16       5.7254      2.00000
     17      15.8284      0.00000
     18      15.8284      0.00000
     19      15.8285      0.00000
     20      15.8285      0.00000
     21      16.3136      0.00000
     22      16.3147      0.00000
     23      16.3224      0.00000
     24      16.3373      0.00000

 k-point    84 :       0.5000    0.5000    0.5000
  band No.  band energies     occupation 
      1      -6.6408      2.00000
      2      -6.6408      2.00000
      3      -6.6408      2.00000
      4      -6.6408      2.00000
      5      -3.9788      2.00000
      6      -3.9788      2.00000
      7      -3.9788      2.00000
      8      -3.9788      2.00000
      9       5.7380      2.00000
     10       5.7380      2.00000
     11       5.7380      2.00000
     12       5.7380      2.00000
     13       5.7380      2.00000
     14       5.7380      2.00000
     15       5.7380      2.00000
     16       5.7380      2.00000
     17      15.7108      0.00000
     18      15.7108      0.00000
     19      15.7108      0.00000
     20      15.7108      0.00000
     21      16.2939      0.00000
     22      16.2939      0.00000
     23      16.2939      0.00000
     24      16.2939      0.00000


--------------------------------------------------------------------------------------------------------


 soft charge-density along one line, spin component           1
         0         1         2         3         4         5         6         7         8         9
 total charge-density along one line
 
 pseudopotential strength for first ion, spin component:           1
  9.522  -0.002   0.000   0.000   0.000  -0.000  -0.000  -0.000
 -0.002  -0.002  -0.000  -0.000  -0.000  -0.000  -0.000  -0.000
  0.000  -0.000  -3.745  -0.000  -0.000  -0.005  -0.000  -0.000
  0.000  -0.000  -0.000  -3.745   0.000  -0.000  -0.005   0.000
  0.000  -0.000  -0.000   0.000  -3.745  -0.000   0.000  -0.005
 -0.000  -0.000  -0.005  -0.000  -0.000  -0.759  -0.000  -0.000
 -0.000  -0.000  -0.000  -0.005   0.000  -0.000  -0.759   0.000
 -0.000  -0.000  -0.000   0.000  -0.005  -0.000   0.000  -0.759
 total augmentation occupancy for first ion, spin component:           1
  1.416  -0.890   0.000  -0.000  -0.000   0.000  -0.000  -0.000
 -0.890   0.823  -0.000   0.000   0.000   0.000  -0.000  -0.000
  0.000   0.000   1.041  -0.000   0.000   0.166  -0.000   0.000
  0.000   0.000  -0.000   1.041   0.000   0.000   0.166   0.000
  0.000  -0.000  -0.000   0.000   1.041  -0.000  -0.000   0.166
 -0.000  -0.000   0.166  -0.000  -0.000   0.031   0.000   0.000
  0.000   0.000  -0.000   0.166  -0.000  -0.000   0.031  -0.000
 -0.000  -0.000   0.000  -0.000   0.166  -0.000  -0.000   0.031


------------------------ aborting loop because EDIFF is reached ----------------------------------------


    CHARGE:  cpu time    0.1382: real time    0.1382
    FORLOC:  cpu time    0.0018: real time    0.0018
    FORNL :  cpu time    0.2052: real time    0.2052
    STRESS:  cpu time    0.4874: real time    0.4877
    FORHAR:  cpu time    0.0053: real time    0.0053
    MIXING:  cpu time    0.0021: real time    0.0021
    OFIELD:  cpu time    0.0001: real time    0.0001

  FORCE on cell =-STRESS in cart. coord.  units (eV):
  Direction    XX          YY          ZZ          XY          YZ          ZX
  --------------------------------------------------------------------------------------
  Alpha Z   103.27372   103.27372   103.27372
  Ewald    -447.71217  -447.71217  -447.71217     0.00000     0.00000     0.00000
  Hartree    37.22688    37.22688    37.22688    -0.00000    -0.00000    -0.00000
  E(xc)    -116.86685  -116.86685  -116.86685     0.00000     0.00000     0.00000
  Local     -54.05980   -54.05980   -54.05980    -0.00000     0.00000     0.00000
  n-local   -23.62296   -24.46202   -23.47366     0.70655     0.89316     0.42950
  augment    -2.45288    -2.45288    -2.45288    -0.00000     0.00000     0.00000
  Kinetic   481.65987   496.90682   496.56990    -4.63704    -6.48773    -3.23569
  Fock        0.00000     0.00000     0.00000     0.00000     0.00000     0.00000
  -------------------------------------------------------------------------------------
  Total     -12.73178   -12.73178   -12.73178     0.00000     0.00000     0.00000
  in kB    -403.97793  -403.97793  -403.97793     0.00000     0.00000     0.00000
  external pressure =     -403.98 kB  Pullay stress =        0.00 kB


 VOLUME and BASIS-vectors are now :
 -----------------------------------------------------------------------------
  energy-cutoff  :      400.00
  volume of cell :       50.49
      direct lattice vectors                 reciprocal lattice vectors
     3.696130923  0.000000000  0.000000000     0.270553187  0.000000000  0.000000000
     0.000000000  3.696130923  0.000000000     0.000000000  0.270553187  0.000000000
     0.000000000  0.000000000  3.696130923     0.000000000  0.000000000  0.270553187

  length of vectors
     3.696130923  3.696130923  3.696130923     0.270553187  0.270553187  0.270553187


 FORCES acting on ions
    electron-ion (+dipol)            ewald-force                    non-local-force                 convergence-correction
 -----------------------------------------------------------------------------------------------
   -.769E-14 -.143E-12 -.427E-14   0.711E-14 0.711E-14 0.711E-14   -.176E-16 -.420E-16 -.137E-16   -.848E-14 -.779E-14 -.115E-15
   0.231E-13 -.150E-14 0.640E-14   -.913E-14 -.154E-13 -.710E-14   -.917E-17 0.280E-16 0.398E-16   0.865E-15 -.261E-14 0.659E-14
   -.769E-14 -.165E-12 0.167E-13   0.711E-14 0.711E-14 0.711E-14   -.106E-16 -.379E-16 -.165E-16   -.812E-14 -.774E-14 0.155E-14
   0.154E-13 0.197E-13 -.166E-13   -.818E-14 -.142E-13 -.789E-14   0.317E-16 0.261E-16 0.234E-16   0.134E-14 -.271E-14 0.833E-14
   0.000E+00 0.204E-12 0.381E-12   -.711E-14 0.142E-13 0.711E-14   -.512E-17 -.297E-16 -.441E-16   -.583E-14 -.699E-14 0.974E-15
   0.384E-13 0.163E-14 -.434E-12   0.720E-14 -.764E-14 -.789E-14   0.114E-16 0.433E-16 0.929E-17   0.940E-15 -.203E-14 0.713E-14
   0.154E-13 -.199E-12 -.189E-13   -.711E-14 0.142E-13 0.711E-14   -.384E-16 -.107E-16 -.246E-16   -.534E-14 -.702E-14 0.309E-16
   0.461E-13 0.371E-12 0.134E-14   0.720E-14 -.704E-14 -.708E-14   0.959E-17 0.482E-16 0.155E-16   0.110E-14 -.237E-14 0.622E-14
 -----------------------------------------------------------------------------------------------
   0.123E-12 0.879E-13 -.675E-13   -.291E-14 -.166E-14 -.154E-14   -.283E-16 0.253E-16 -.109E-16   -.235E-13 -.393E-13 0.307E-13
 
 
 POSITION                                       TOTAL-FORCE (eV/Angst)
 -----------------------------------------------------------------------------------
      0.92403      2.77210      0.92403        -0.000000      0.000000     -0.000000
      0.00000      0.00000      1.84807         0.000000      0.000000      0.000000
      0.92403      0.92403      2.77210        -0.000000     -0.000000     -0.000000
      0.00000      1.84807      0.00000         0.000000     -0.000000      0.000000
      2.77210      2.77210      2.77210        -0.000000     -0.000000     -0.000000
      1.84807      0.00000      0.00000         0.000000     -0.000000      0.000000
      2.77210      0.92403      0.92403         0.000000      0.000000     -0.000000
      1.84807      1.84807      1.84807        -0.000000      0.000000      0.000000
 -----------------------------------------------------------------------------------
    total drift:                                0.000000      0.000000     -0.000000


--------------------------------------------------------------------------------------------------------



  FREE ENERGIE OF THE ION-ELECTRON SYSTEM (eV)
  ---------------------------------------------------
  free  energy   TOTEN  =       -72.14967276 eV

  energy  without entropy=      -72.14967276  energy(sigma->0) =      -72.14967276
 


--------------------------------------------------------------------------------------------------------


    POTLOK:  cpu time    0.0265: real time    0.0265


--------------------------------------------------------------------------------------------------------


     LOOP+:  cpu time   53.3866: real time   54.0910
    4ORBIT:  cpu time    0.0000: real time    0.0000
 BZINTS: Fermi energy:  8.343858; 32.000000 electrons
         Band energy:  -2.462691;  BLOECHL correction:  0.000000

 total amount of memory used by VASP MPI-rank0    34217. kBytes
=======================================================================

   base      :      30000. kBytes
   nonl-proj :       1320. kBytes
   fftplans  :        346. kBytes
   grid      :        481. kBytes
   one-center:          6. kBytes
   wavefun   :       2064. kBytes
 
  
  
 General timing and accounting informations for this job:
 ========================================================
  
                  Total CPU time used (sec):       55.800
                            User time (sec):       53.724
                          System time (sec):        2.076
                         Elapsed time (sec):       59.442
  
                   Maximum memory used (kb):      189604.
                   Average memory used (kb):           0.
  
                          Minor page faults:        36878
                          Major page faults:           36
                 Voluntary context switches:          785
