   8   8   0   0
  0.6047472E+01  0.3679360E-09  0.3679360E-09  0.3573710E-09  0.2000000E-16
  1.000000000000000E-004
  CAR 
 unknown system                          
     21.81202970    -13.38558976  301      9.26187851      1.00000000
    -13.386  0.0000E+00  0.0000E+00
    -13.268  0.0000E+00  0.0000E+00
    -13.151  0.0000E+00  0.0000E+00
    -13.034  0.0000E+00  0.0000E+00
    -12.916  0.0000E+00  0.0000E+00
    -12.799  0.0000E+00  0.0000E+00
    -12.682  0.0000E+00  0.0000E+00
    -12.564  0.0000E+00  0.0000E+00
    -12.447  0.0000E+00  0.0000E+00
    -12.330  0.0000E+00  0.0000E+00
    -12.212  0.0000E+00  0.0000E+00
    -12.095  0.0000E+00  0.0000E+00
    -11.978  0.0000E+00  0.0000E+00
    -11.860  0.0000E+00  0.0000E+00
    -11.743  0.3651E-01  0.5192E-03
    -11.626  0.1606E+00  0.1502E-01
    -11.508  0.2514E+00  0.3922E-01
    -11.391  0.2848E+00  0.7034E-01
    -11.274  0.3345E+00  0.1067E+00
    -11.156  0.3761E+00  0.1488E+00
    -11.039  0.4067E+00  0.1947E+00
    -10.922  0.4395E+00  0.2442E+00
    -10.804  0.4792E+00  0.2981E+00
    -10.687  0.5036E+00  0.3559E+00
    -10.570  0.5279E+00  0.4164E+00
    -10.452  0.5554E+00  0.4799E+00
    -10.335  0.5852E+00  0.5468E+00
    -10.218  0.6116E+00  0.6171E+00
    -10.100  0.6333E+00  0.6902E+00
     -9.983  0.6548E+00  0.7657E+00
     -9.866  0.6777E+00  0.8439E+00
     -9.749  0.7019E+00  0.9248E+00
     -9.631  0.7278E+00  0.1009E+01
     -9.514  0.7493E+00  0.1095E+01
     -9.397  0.7682E+00  0.1184E+01
     -9.279  0.7877E+00  0.1276E+01
     -9.162  0.8090E+00  0.1369E+01
     -9.045  0.8311E+00  0.1465E+01
     -8.927  0.8541E+00  0.1564E+01
     -8.810  0.8757E+00  0.1666E+01
     -8.693  0.8958E+00  0.1770E+01
     -8.575  0.9149E+00  0.1876E+01
     -8.458  0.9353E+00  0.1985E+01
     -8.341  0.9566E+00  0.2095E+01
     -8.223  0.9785E+00  0.2209E+01
     -8.106  0.1021E+01  0.2326E+01
     -7.989  0.1075E+01  0.2450E+01
     -7.871  0.1119E+01  0.2579E+01
     -7.754  0.1154E+01  0.2712E+01
     -7.637  0.1146E+01  0.2848E+01
     -7.519  0.1117E+01  0.2980E+01
     -7.402  0.1108E+01  0.3111E+01
     -7.285  0.1131E+01  0.3242E+01
     -7.167  0.1137E+01  0.3375E+01
     -7.050  0.1145E+01  0.3509E+01
     -6.933  0.1193E+01  0.3646E+01
     -6.815  0.1261E+01  0.3790E+01
     -6.698  0.1332E+01  0.3942E+01
     -6.581  0.1435E+01  0.4104E+01
     -6.463  0.1554E+01  0.4277E+01
     -6.346  0.1690E+01  0.4471E+01
     -6.229  0.1609E+01  0.4669E+01
     -6.111  0.1643E+01  0.4859E+01
     -5.994  0.1582E+01  0.5051E+01
     -5.877  0.1500E+01  0.5230E+01
     -5.759  0.1476E+01  0.5403E+01
     -5.642  0.1478E+01  0.5576E+01
     -5.525  0.1410E+01  0.5747E+01
     -5.407  0.1377E+01  0.5912E+01
     -5.290  0.1295E+01  0.6068E+01
     -5.173  0.1277E+01  0.6219E+01
     -5.055  0.1250E+01  0.6366E+01
     -4.938  0.1240E+01  0.6513E+01
     -4.821  0.1174E+01  0.6653E+01
     -4.704  0.1125E+01  0.6788E+01
     -4.586  0.1087E+01  0.6919E+01
     -4.469  0.1055E+01  0.7045E+01
     -4.352  0.1022E+01  0.7166E+01
     -4.234  0.1011E+01  0.7286E+01
     -4.117  0.9698E+00  0.7403E+01
     -4.000  0.9058E+00  0.7514E+01
     -3.882  0.8168E+00  0.7615E+01
     -3.765  0.7542E+00  0.7706E+01
     -3.648  0.9053E+00  0.7802E+01
     -3.530  0.8460E+00  0.7907E+01
     -3.413  0.8909E+00  0.8010E+01
     -3.296  0.8463E+00  0.8111E+01
     -3.178  0.8508E+00  0.8211E+01
     -3.061  0.9442E+00  0.8317E+01
     -2.944  0.1010E+01  0.8432E+01
     -2.826  0.1126E+01  0.8556E+01
     -2.709  0.1304E+01  0.8697E+01
     -2.592  0.1579E+01  0.8868E+01
     -2.474  0.1846E+01  0.9068E+01
     -2.357  0.2229E+01  0.9306E+01
     -2.240  0.3043E+01  0.9613E+01
     -2.122  0.3156E+01  0.9974E+01
     -2.005  0.2575E+01  0.1031E+02
     -1.888  0.2115E+01  0.1058E+02
     -1.770  0.1867E+01  0.1081E+02
     -1.653  0.1732E+01  0.1103E+02
     -1.536  0.1621E+01  0.1122E+02
     -1.418  0.1540E+01  0.1141E+02
     -1.301  0.1497E+01  0.1158E+02
     -1.184  0.1474E+01  0.1176E+02
     -1.066  0.1436E+01  0.1193E+02
     -0.949  0.1292E+01  0.1209E+02
     -0.832  0.1216E+01  0.1224E+02
     -0.714  0.1175E+01  0.1238E+02
     -0.597  0.1143E+01  0.1252E+02
     -0.480  0.1115E+01  0.1265E+02
     -0.362  0.1098E+01  0.1278E+02
     -0.245  0.1067E+01  0.1291E+02
     -0.128  0.9863E+00  0.1303E+02
     -0.010  0.1040E+01  0.1314E+02
      0.107  0.1238E+01  0.1328E+02
      0.224  0.1410E+01  0.1343E+02
      0.341  0.1575E+01  0.1361E+02
      0.459  0.1744E+01  0.1380E+02
      0.576  0.2118E+01  0.1402E+02
      0.693  0.2457E+01  0.1430E+02
      0.811  0.2400E+01  0.1458E+02
      0.928  0.2414E+01  0.1486E+02
      1.045  0.2295E+01  0.1514E+02
      1.163  0.2059E+01  0.1540E+02
      1.280  0.1624E+01  0.1562E+02
      1.397  0.1515E+01  0.1580E+02
      1.515  0.1833E+01  0.1600E+02
      1.632  0.2094E+01  0.1623E+02
      1.749  0.2290E+01  0.1649E+02
      1.867  0.2495E+01  0.1677E+02
      1.984  0.2513E+01  0.1706E+02
      2.101  0.2411E+01  0.1735E+02
      2.219  0.2371E+01  0.1763E+02
      2.336  0.2473E+01  0.1791E+02
      2.453  0.2820E+01  0.1822E+02
      2.571  0.3361E+01  0.1859E+02
      2.688  0.3100E+01  0.1897E+02
      2.805  0.2738E+01  0.1931E+02
      2.923  0.2620E+01  0.1962E+02
      3.040  0.2519E+01  0.1992E+02
      3.157  0.3057E+01  0.2024E+02
      3.275  0.3510E+01  0.2063E+02
      3.392  0.3879E+01  0.2107E+02
      3.509  0.3703E+01  0.2152E+02
      3.627  0.3347E+01  0.2193E+02
      3.744  0.3088E+01  0.2231E+02
      3.861  0.2770E+01  0.2264E+02
      3.979  0.2889E+01  0.2297E+02
      4.096  0.3075E+01  0.2332E+02
      4.213  0.2944E+01  0.2368E+02
      4.331  0.3188E+01  0.2404E+02
      4.448  0.3140E+01  0.2441E+02
      4.565  0.3088E+01  0.2477E+02
      4.683  0.3169E+01  0.2514E+02
      4.800  0.3193E+01  0.2552E+02
      4.917  0.2940E+01  0.2588E+02
      5.034  0.2653E+01  0.2620E+02
      5.152  0.2581E+01  0.2651E+02
      5.269  0.2588E+01  0.2682E+02
      5.386  0.2703E+01  0.2712E+02
      5.504  0.2772E+01  0.2744E+02
      5.621  0.2937E+01  0.2778E+02
      5.738  0.2781E+01  0.2812E+02
      5.856  0.2837E+01  0.2845E+02
      5.973  0.2653E+01  0.2877E+02
      6.090  0.2550E+01  0.2908E+02
      6.208  0.2341E+01  0.2937E+02
      6.325  0.2298E+01  0.2963E+02
      6.442  0.1971E+01  0.2991E+02
      6.560  0.1734E+01  0.3013E+02
      6.677  0.1590E+01  0.3032E+02
      6.794  0.1454E+01  0.3050E+02
      6.912  0.1338E+01  0.3066E+02
      7.029  0.1259E+01  0.3082E+02
      7.146  0.1161E+01  0.3096E+02
      7.264  0.1065E+01  0.3109E+02
      7.381  0.9875E+00  0.3121E+02
      7.498  0.8948E+00  0.3132E+02
      7.616  0.8255E+00  0.3142E+02
      7.733  0.7790E+00  0.3151E+02
      7.850  0.6882E+00  0.3160E+02
      7.968  0.6340E+00  0.3168E+02
      8.085  0.5528E+00  0.3175E+02
      8.202  0.4936E+00  0.3181E+02
      8.320  0.4091E+00  0.3186E+02
      8.437  0.3393E+00  0.3191E+02
      8.554  0.2768E+00  0.3194E+02
      8.672  0.1677E+00  0.3197E+02
      8.789  0.9833E-01  0.3199E+02
      8.906  0.6493E-01  0.3200E+02
      9.024  0.1287E-01  0.3200E+02
      9.141  0.9476E-04  0.3200E+02
      9.258  0.0000E+00  0.3200E+02
      9.376  0.0000E+00  0.3200E+02
      9.493  0.0000E+00  0.3200E+02
      9.610  0.0000E+00  0.3200E+02
      9.728  0.0000E+00  0.3200E+02
      9.845  0.0000E+00  0.3200E+02
      9.962  0.0000E+00  0.3200E+02
     10.079  0.0000E+00  0.3200E+02
     10.197  0.0000E+00  0.3200E+02
     10.314  0.0000E+00  0.3200E+02
     10.431  0.0000E+00  0.3200E+02
     10.549  0.0000E+00  0.3200E+02
     10.666  0.0000E+00  0.3200E+02
     10.783  0.0000E+00  0.3200E+02
     10.901  0.0000E+00  0.3200E+02
     11.018  0.0000E+00  0.3200E+02
     11.135  0.0000E+00  0.3200E+02
     11.253  0.0000E+00  0.3200E+02
     11.370  0.0000E+00  0.3200E+02
     11.487  0.0000E+00  0.3200E+02
     11.605  0.0000E+00  0.3200E+02
     11.722  0.0000E+00  0.3200E+02
     11.839  0.0000E+00  0.3200E+02
     11.957  0.0000E+00  0.3200E+02
     12.074  0.0000E+00  0.3200E+02
     12.191  0.0000E+00  0.3200E+02
     12.309  0.0000E+00  0.3200E+02
     12.426  0.1126E-02  0.3200E+02
     12.543  0.3937E-01  0.3200E+02
     12.661  0.1044E+00  0.3201E+02
     12.778  0.1629E+00  0.3203E+02
     12.895  0.1830E+00  0.3205E+02
     13.013  0.2201E+00  0.3207E+02
     13.130  0.3159E+00  0.3210E+02
     13.247  0.4618E+00  0.3215E+02
     13.365  0.6466E+00  0.3221E+02
     13.482  0.7666E+00  0.3230E+02
     13.599  0.8380E+00  0.3239E+02
     13.717  0.9185E+00  0.3250E+02
     13.834  0.1059E+01  0.3261E+02
     13.951  0.1265E+01  0.3275E+02
     14.069  0.1538E+01  0.3291E+02
     14.186  0.1731E+01  0.3311E+02
     14.303  0.1610E+01  0.3331E+02
     14.421  0.1690E+01  0.3351E+02
     14.538  0.1824E+01  0.3371E+02
     14.655  0.1853E+01  0.3393E+02
     14.773  0.1977E+01  0.3415E+02
     14.890  0.2179E+01  0.3440E+02
     15.007  0.2252E+01  0.3466E+02
     15.124  0.2274E+01  0.3492E+02
     15.242  0.2435E+01  0.3520E+02
     15.359  0.2385E+01  0.3548E+02
     15.476  0.2438E+01  0.3576E+02
     15.594  0.2550E+01  0.3606E+02
     15.711  0.2699E+01  0.3637E+02
     15.828  0.2817E+01  0.3669E+02
     15.946  0.3023E+01  0.3703E+02
     16.063  0.3180E+01  0.3739E+02
     16.180  0.3342E+01  0.3778E+02
     16.298  0.3578E+01  0.3819E+02
     16.415  0.4083E+01  0.3863E+02
     16.532  0.4914E+01  0.3918E+02
     16.650  0.5410E+01  0.3978E+02
     16.767  0.4106E+01  0.4031E+02
     16.884  0.4011E+01  0.4080E+02
     17.002  0.3728E+01  0.4124E+02
     17.119  0.3801E+01  0.4167E+02
     17.236  0.3869E+01  0.4213E+02
     17.354  0.3949E+01  0.4259E+02
     17.471  0.3893E+01  0.4305E+02
     17.588  0.3585E+01  0.4349E+02
     17.706  0.3417E+01  0.4390E+02
     17.823  0.3121E+01  0.4428E+02
     17.940  0.2952E+01  0.4464E+02
     18.058  0.2730E+01  0.4497E+02
     18.175  0.2714E+01  0.4529E+02
     18.292  0.2798E+01  0.4561E+02
     18.410  0.2824E+01  0.4594E+02
     18.527  0.2717E+01  0.4627E+02
     18.644  0.2647E+01  0.4659E+02
     18.762  0.2589E+01  0.4689E+02
     18.879  0.2547E+01  0.4720E+02
     18.996  0.1878E+01  0.4746E+02
     19.114  0.1297E+01  0.4764E+02
     19.231  0.8834E+00  0.4777E+02
     19.348  0.5970E+00  0.4785E+02
     19.466  0.3873E+00  0.4791E+02
     19.583  0.2514E+00  0.4795E+02
     19.700  0.1552E+00  0.4797E+02
     19.817  0.8730E-01  0.4799E+02
     19.935  0.5153E-01  0.4799E+02
     20.052  0.1966E-01  0.4800E+02
     20.169  0.1398E-02  0.4800E+02
     20.287  0.0000E+00  0.4800E+02
     20.404  0.0000E+00  0.4800E+02
     20.521  0.0000E+00  0.4800E+02
     20.639  0.0000E+00  0.4800E+02
     20.756  0.0000E+00  0.4800E+02
     20.873  0.0000E+00  0.4800E+02
     20.991  0.0000E+00  0.4800E+02
     21.108  0.0000E+00  0.4800E+02
     21.225  0.0000E+00  0.4800E+02
     21.343  0.0000E+00  0.4800E+02
     21.460  0.0000E+00  0.4800E+02
     21.577  0.0000E+00  0.4800E+02
     21.695  0.0000E+00  0.4800E+02
     21.812  0.0000E+00  0.4800E+02
