       N       E                     dE             d eps       ncg     rms          rms(c)
DAV:   1     0.579001650499E+02    0.57900E+02   -0.14275E+04  9408   0.105E+03
DAV:   2    -0.700992142903E+02   -0.12800E+03   -0.12111E+03 12944   0.218E+02
DAV:   3    -0.744780399894E+02   -0.43788E+01   -0.43551E+01 12176   0.379E+01
DAV:   4    -0.745275884223E+02   -0.49548E-01   -0.49498E-01 12096   0.431E+00
DAV:   5    -0.745286088376E+02   -0.10204E-02   -0.10199E-02 12136   0.571E-01    0.878E+00
DAV:   6    -0.729847732238E+02    0.15438E+01   -0.10365E+00 11040   0.567E+00    0.487E+00
DAV:   7    -0.724621218746E+02    0.52265E+00   -0.11921E+00 11216   0.626E+00    0.675E-01
DAV:   8    -0.724687969858E+02   -0.66751E-02   -0.24343E-02 12096   0.894E-01    0.761E-02
DAV:   9    -0.724690160522E+02   -0.21907E-03   -0.42824E-04 11584   0.137E-01    0.275E-02
DAV:  10    -0.724690723276E+02   -0.56275E-04   -0.52462E-05 11928   0.537E-02    0.259E-03
DAV:  11    -0.724690727718E+02   -0.44423E-06   -0.11015E-06  8816   0.707E-03
   1 F= -.72469073E+02 E0= -.72469073E+02  d E =0.000000E+00
