   8   8   0   0
  0.5877168E+01  0.3609270E-09  0.3609270E-09  0.3609270E-09  0.2000000E-16
  1.000000000000000E-004
  CAR 
 unknown system                          
     22.34640087    -13.38261967  301      9.37230028      1.00000000
    -13.383  0.0000E+00  0.0000E+00
    -13.264  0.0000E+00  0.0000E+00
    -13.144  0.0000E+00  0.0000E+00
    -13.025  0.0000E+00  0.0000E+00
    -12.906  0.0000E+00  0.0000E+00
    -12.787  0.0000E+00  0.0000E+00
    -12.668  0.0000E+00  0.0000E+00
    -12.549  0.0000E+00  0.0000E+00
    -12.430  0.0000E+00  0.0000E+00
    -12.311  0.0000E+00  0.0000E+00
    -12.192  0.0000E+00  0.0000E+00
    -12.073  0.0000E+00  0.0000E+00
    -11.953  0.0000E+00  0.0000E+00
    -11.834  0.0000E+00  0.0000E+00
    -11.715  0.3544E-01  0.5116E-03
    -11.596  0.1570E+00  0.1489E-01
    -11.477  0.2461E+00  0.3888E-01
    -11.358  0.2783E+00  0.6979E-01
    -11.239  0.3266E+00  0.1058E+00
    -11.120  0.3678E+00  0.1477E+00
    -11.001  0.3975E+00  0.1932E+00
    -10.882  0.4291E+00  0.2423E+00
    -10.762  0.4683E+00  0.2957E+00
    -10.643  0.4919E+00  0.3531E+00
    -10.524  0.5159E+00  0.4131E+00
    -10.405  0.5423E+00  0.4760E+00
    -10.286  0.5712E+00  0.5423E+00
    -10.167  0.5992E+00  0.6121E+00
    -10.048  0.6186E+00  0.6846E+00
     -9.929  0.6391E+00  0.7595E+00
     -9.810  0.6615E+00  0.8369E+00
     -9.691  0.6848E+00  0.9170E+00
     -9.572  0.7097E+00  0.1000E+01
     -9.452  0.7316E+00  0.1086E+01
     -9.333  0.7499E+00  0.1174E+01
     -9.214  0.7680E+00  0.1265E+01
     -9.095  0.7887E+00  0.1357E+01
     -8.976  0.8098E+00  0.1452E+01
     -8.857  0.8320E+00  0.1550E+01
     -8.738  0.8549E+00  0.1651E+01
     -8.619  0.8727E+00  0.1754E+01
     -8.500  0.8909E+00  0.1859E+01
     -8.381  0.9103E+00  0.1966E+01
     -8.261  0.9303E+00  0.2075E+01
     -8.142  0.9507E+00  0.2187E+01
     -8.023  0.9864E+00  0.2302E+01
     -7.904  0.1040E+01  0.2424E+01
     -7.785  0.1076E+01  0.2549E+01
     -7.666  0.1114E+01  0.2681E+01
     -7.547  0.1111E+01  0.2813E+01
     -7.428  0.1082E+01  0.2944E+01
     -7.309  0.1064E+01  0.3071E+01
     -7.190  0.1093E+01  0.3200E+01
     -7.070  0.1107E+01  0.3331E+01
     -6.951  0.1116E+01  0.3464E+01
     -6.832  0.1152E+01  0.3598E+01
     -6.713  0.1221E+01  0.3739E+01
     -6.594  0.1272E+01  0.3887E+01
     -6.475  0.1382E+01  0.4046E+01
     -6.356  0.1429E+01  0.4214E+01
     -6.237  0.1573E+01  0.4391E+01
     -6.118  0.1693E+01  0.4586E+01
     -5.999  0.1617E+01  0.4780E+01
     -5.880  0.1572E+01  0.4970E+01
     -5.760  0.1450E+01  0.5151E+01
     -5.641  0.1469E+01  0.5323E+01
     -5.522  0.1442E+01  0.5497E+01
     -5.403  0.1465E+01  0.5669E+01
     -5.284  0.1399E+01  0.5837E+01
     -5.165  0.1287E+01  0.5996E+01
     -5.046  0.1246E+01  0.6146E+01
     -4.927  0.1219E+01  0.6293E+01
     -4.808  0.1226E+01  0.6437E+01
     -4.689  0.1153E+01  0.6582E+01
     -4.569  0.1076E+01  0.6714E+01
     -4.450  0.1084E+01  0.6845E+01
     -4.331  0.1081E+01  0.6978E+01
     -4.212  0.1013E+01  0.7101E+01
     -4.093  0.9888E+00  0.7219E+01
     -3.974  0.9945E+00  0.7338E+01
     -3.855  0.9337E+00  0.7456E+01
     -3.736  0.8438E+00  0.7562E+01
     -3.617  0.8231E+00  0.7659E+01
     -3.498  0.9045E+00  0.7767E+01
     -3.378  0.9440E+00  0.7873E+01
     -3.259  0.9138E+00  0.7985E+01
     -3.140  0.8934E+00  0.8103E+01
     -3.021  0.9040E+00  0.8208E+01
     -2.902  0.9523E+00  0.8321E+01
     -2.783  0.9704E+00  0.8436E+01
     -2.664  0.1054E+01  0.8556E+01
     -2.545  0.1199E+01  0.8689E+01
     -2.426  0.1447E+01  0.8848E+01
     -2.307  0.1673E+01  0.9033E+01
     -2.188  0.1946E+01  0.9248E+01
     -2.068  0.2509E+01  0.9508E+01
     -1.949  0.3200E+01  0.9848E+01
     -1.830  0.2801E+01  0.1024E+02
     -1.711  0.2104E+01  0.1054E+02
     -1.592  0.1856E+01  0.1077E+02
     -1.473  0.1705E+01  0.1098E+02
     -1.354  0.1597E+01  0.1118E+02
     -1.235  0.1507E+01  0.1136E+02
     -1.116  0.1441E+01  0.1154E+02
     -0.997  0.1408E+01  0.1171E+02
     -0.877  0.1370E+01  0.1187E+02
     -0.758  0.1334E+01  0.1203E+02
     -0.639  0.1315E+01  0.1219E+02
     -0.520  0.1156E+01  0.1234E+02
     -0.401  0.1123E+01  0.1248E+02
     -0.282  0.1102E+01  0.1261E+02
     -0.163  0.1086E+01  0.1274E+02
     -0.044  0.1073E+01  0.1287E+02
      0.075  0.1035E+01  0.1300E+02
      0.194  0.1008E+01  0.1312E+02
      0.314  0.1204E+01  0.1325E+02
      0.433  0.1458E+01  0.1341E+02
      0.552  0.1719E+01  0.1360E+02
      0.671  0.1903E+01  0.1381E+02
      0.790  0.2415E+01  0.1407E+02
      0.909  0.2246E+01  0.1434E+02
      1.028  0.2216E+01  0.1461E+02
      1.147  0.2329E+01  0.1488E+02
      1.266  0.2353E+01  0.1516E+02
      1.385  0.1839E+01  0.1541E+02
      1.504  0.1487E+01  0.1561E+02
      1.624  0.1540E+01  0.1579E+02
      1.743  0.1851E+01  0.1599E+02
      1.862  0.2113E+01  0.1623E+02
      1.981  0.2281E+01  0.1649E+02
      2.100  0.2407E+01  0.1677E+02
      2.219  0.2448E+01  0.1706E+02
      2.338  0.2376E+01  0.1735E+02
      2.457  0.2365E+01  0.1763E+02
      2.576  0.2573E+01  0.1792E+02
      2.695  0.2833E+01  0.1824E+02
      2.815  0.3420E+01  0.1860E+02
      2.934  0.2844E+01  0.1898E+02
      3.053  0.2622E+01  0.1930E+02
      3.172  0.2526E+01  0.1959E+02
      3.291  0.2994E+01  0.1992E+02
      3.410  0.2796E+01  0.2026E+02
      3.529  0.3298E+01  0.2061E+02
      3.648  0.4140E+01  0.2106E+02
      3.767  0.3899E+01  0.2155E+02
      3.886  0.3207E+01  0.2198E+02
      4.006  0.2682E+01  0.2233E+02
      4.125  0.2598E+01  0.2264E+02
      4.244  0.2924E+01  0.2296E+02
      4.363  0.2967E+01  0.2333E+02
      4.482  0.2829E+01  0.2366E+02
      4.601  0.3118E+01  0.2402E+02
      4.720  0.2990E+01  0.2439E+02
      4.839  0.3040E+01  0.2475E+02
      4.958  0.3124E+01  0.2511E+02
      5.077  0.3183E+01  0.2549E+02
      5.196  0.2853E+01  0.2585E+02
      5.316  0.2499E+01  0.2617E+02
      5.435  0.2430E+01  0.2646E+02
      5.554  0.2435E+01  0.2675E+02
      5.673  0.2702E+01  0.2705E+02
      5.792  0.3038E+01  0.2739E+02
      5.911  0.2865E+01  0.2773E+02
      6.030  0.2807E+01  0.2807E+02
      6.149  0.2762E+01  0.2840E+02
      6.268  0.2487E+01  0.2871E+02
      6.387  0.2376E+01  0.2900E+02
      6.507  0.3579E+01  0.2932E+02
      6.626  0.2054E+01  0.2967E+02
      6.745  0.1817E+01  0.2989E+02
      6.864  0.1747E+01  0.3010E+02
      6.983  0.1538E+01  0.3029E+02
      7.102  0.1415E+01  0.3047E+02
      7.221  0.1335E+01  0.3063E+02
      7.340  0.1251E+01  0.3079E+02
      7.459  0.1163E+01  0.3093E+02
      7.578  0.1042E+01  0.3106E+02
      7.698  0.9377E+00  0.3118E+02
      7.817  0.8938E+00  0.3129E+02
      7.936  0.8425E+00  0.3139E+02
      8.055  0.7772E+00  0.3149E+02
      8.174  0.7034E+00  0.3158E+02
      8.293  0.6273E+00  0.3166E+02
      8.412  0.5575E+00  0.3173E+02
      8.531  0.5314E+00  0.3179E+02
      8.650  0.4084E+00  0.3185E+02
      8.769  0.3565E+00  0.3189E+02
      8.888  0.3873E+00  0.3194E+02
      9.008  0.1943E+00  0.3197E+02
      9.127  0.1453E+00  0.3199E+02
      9.246  0.5885E-02  0.3200E+02
      9.365  0.0000E+00  0.3200E+02
      9.484  0.0000E+00  0.3200E+02
      9.603  0.0000E+00  0.3200E+02
      9.722  0.0000E+00  0.3200E+02
      9.841  0.0000E+00  0.3200E+02
      9.960  0.0000E+00  0.3200E+02
     10.079  0.0000E+00  0.3200E+02
     10.199  0.0000E+00  0.3200E+02
     10.318  0.0000E+00  0.3200E+02
     10.437  0.0000E+00  0.3200E+02
     10.556  0.0000E+00  0.3200E+02
     10.675  0.0000E+00  0.3200E+02
     10.794  0.0000E+00  0.3200E+02
     10.913  0.0000E+00  0.3200E+02
     11.032  0.0000E+00  0.3200E+02
     11.151  0.0000E+00  0.3200E+02
     11.270  0.0000E+00  0.3200E+02
     11.390  0.0000E+00  0.3200E+02
     11.509  0.0000E+00  0.3200E+02
     11.628  0.0000E+00  0.3200E+02
     11.747  0.0000E+00  0.3200E+02
     11.866  0.0000E+00  0.3200E+02
     11.985  0.0000E+00  0.3200E+02
     12.104  0.0000E+00  0.3200E+02
     12.223  0.0000E+00  0.3200E+02
     12.342  0.0000E+00  0.3200E+02
     12.461  0.0000E+00  0.3200E+02
     12.580  0.0000E+00  0.3200E+02
     12.700  0.0000E+00  0.3200E+02
     12.819  0.0000E+00  0.3200E+02
     12.938  0.0000E+00  0.3200E+02
     13.057  0.0000E+00  0.3200E+02
     13.176  0.0000E+00  0.3200E+02
     13.295  0.0000E+00  0.3200E+02
     13.414  0.8226E-01  0.3200E+02
     13.533  0.2602E+00  0.3202E+02
     13.652  0.4910E+00  0.3207E+02
     13.771  0.6030E+00  0.3214E+02
     13.891  0.6056E+00  0.3221E+02
     14.010  0.7453E+00  0.3229E+02
     14.129  0.9095E+00  0.3239E+02
     14.248  0.1006E+01  0.3250E+02
     14.367  0.1960E+01  0.3265E+02
     14.486  0.1489E+01  0.3283E+02
     14.605  0.1455E+01  0.3301E+02
     14.724  0.1515E+01  0.3318E+02
     14.843  0.1559E+01  0.3337E+02
     14.962  0.1671E+01  0.3356E+02
     15.082  0.1823E+01  0.3377E+02
     15.201  0.1914E+01  0.3399E+02
     15.320  0.2151E+01  0.3423E+02
     15.439  0.2407E+01  0.3451E+02
     15.558  0.2157E+01  0.3478E+02
     15.677  0.2107E+01  0.3503E+02
     15.796  0.2123E+01  0.3529E+02
     15.915  0.2211E+01  0.3554E+02
     16.034  0.2347E+01  0.3581E+02
     16.153  0.2524E+01  0.3610E+02
     16.272  0.2677E+01  0.3641E+02
     16.392  0.2868E+01  0.3675E+02
     16.511  0.2878E+01  0.3709E+02
     16.630  0.2982E+01  0.3744E+02
     16.749  0.3157E+01  0.3780E+02
     16.868  0.3569E+01  0.3820E+02
     16.987  0.3706E+01  0.3862E+02
     17.106  0.4083E+01  0.3909E+02
     17.225  0.4575E+01  0.3961E+02
     17.344  0.4892E+01  0.4017E+02
     17.463  0.4179E+01  0.4073E+02
     17.583  0.3291E+01  0.4117E+02
     17.702  0.4268E+01  0.4165E+02
     17.821  0.3902E+01  0.4216E+02
     17.940  0.3571E+01  0.4259E+02
     18.059  0.3688E+01  0.4302E+02
     18.178  0.3942E+01  0.4348E+02
     18.297  0.3468E+01  0.4394E+02
     18.416  0.2902E+01  0.4431E+02
     18.535  0.2676E+01  0.4464E+02
     18.654  0.2541E+01  0.4495E+02
     18.773  0.2588E+01  0.4525E+02
     18.893  0.2840E+01  0.4557E+02
     19.012  0.2849E+01  0.4592E+02
     19.131  0.2836E+01  0.4625E+02
     19.250  0.2803E+01  0.4659E+02
     19.369  0.2640E+01  0.4692E+02
     19.488  0.2326E+01  0.4722E+02
     19.607  0.1803E+01  0.4746E+02
     19.726  0.1484E+01  0.4766E+02
     19.845  0.8495E+00  0.4780E+02
     19.964  0.4955E+00  0.4787E+02
     20.084  0.3187E+00  0.4792E+02
     20.203  0.2117E+00  0.4795E+02
     20.322  0.1525E+00  0.4797E+02
     20.441  0.9988E-01  0.4799E+02
     20.560  0.4901E-01  0.4800E+02
     20.679  0.8417E-02  0.4800E+02
     20.798  0.0000E+00  0.4800E+02
     20.917  0.0000E+00  0.4800E+02
     21.036  0.0000E+00  0.4800E+02
     21.155  0.0000E+00  0.4800E+02
     21.275  0.0000E+00  0.4800E+02
     21.394  0.0000E+00  0.4800E+02
     21.513  0.0000E+00  0.4800E+02
     21.632  0.0000E+00  0.4800E+02
     21.751  0.0000E+00  0.4800E+02
     21.870  0.0000E+00  0.4800E+02
     21.989  0.0000E+00  0.4800E+02
     22.108  0.0000E+00  0.4800E+02
     22.227  0.0000E+00  0.4800E+02
     22.346  0.0000E+00  0.4800E+02
