       N       E                     dE             d eps       ncg     rms          rms(c)
DAV:   1     0.579366961948E+02    0.57937E+02   -0.14310E+04  4040   0.105E+03
DAV:   2    -0.707782852383E+02   -0.12871E+03   -0.12211E+03  5568   0.221E+02
DAV:   3    -0.749148453504E+02   -0.41366E+01   -0.41194E+01  5208   0.370E+01
DAV:   4    -0.749577644263E+02   -0.42919E-01   -0.42882E-01  5120   0.409E+00
DAV:   5    -0.749586011303E+02   -0.83670E-03   -0.83607E-03  5176   0.531E-01    0.910E+00
DAV:   6    -0.732597571479E+02    0.16988E+01   -0.11326E+00  4600   0.599E+00    0.502E+00
DAV:   7    -0.726852748079E+02    0.57448E+00   -0.12917E+00  4736   0.658E+00    0.686E-01
DAV:   8    -0.726923069974E+02   -0.70322E-02   -0.25795E-02  5176   0.927E-01    0.779E-02
DAV:   9    -0.726925264637E+02   -0.21947E-03   -0.42637E-04  4832   0.138E-01    0.279E-02
DAV:  10    -0.726925829478E+02   -0.56484E-04   -0.50644E-05  5096   0.534E-02    0.259E-03
DAV:  11    -0.726925834819E+02   -0.53408E-06   -0.10876E-06  3768   0.720E-03
   1 F= -.72692583E+02 E0= -.72692583E+02  d E =0.000000E+00
