 vasp.5.4.4.18Apr17-6-g9f103f2a35 (build Mar 12 2022 03:36:41) complex          
  
 executed on IFC19.0.3.199_CrayMP date 2022.11.30  13:07:10
 running on   16 total cores
 distrk:  each k-point on   16 cores,    1 groups
 distr:  one band on NCORES_PER_BAND=   4 cores,    4 groups


--------------------------------------------------------------------------------------------------------


 INCAR:
 POTCAR:   PAW_PBE C 08Apr2002                    
 POTCAR:   PAW_PBE C 08Apr2002                    
   VRHFIN =C: s2p2                                                              
   LEXCH  = PE                                                                  
   EATOM  =   147.1560 eV,   10.8157 Ry                                         
                                                                                
   TITEL  = PAW_PBE C 08Apr2002                                                 
   LULTRA =        F    use ultrasoft PP ?                                      
   IUNSCR =        0    unscreen: 0-lin 1-nonlin 2-no                           
   RPACOR =     .000    partial core radius                                     
   POMASS =   12.011; ZVAL   =    4.000    mass and valenz                      
   RCORE  =    1.500    outmost cutoff radius                                   
   RWIGS  =    1.630; RWIGS  =     .863    wigner-seitz radius (au A)           
   ENMAX  =  400.000; ENMIN  =  300.000 eV                                      
   ICORE  =        2    local potential                                         
   LCOR   =        T    correct aug charges                                     
   LPAW   =        T    paw PP                                                  
   EAUG   =  644.873                                                            
   DEXC   =     .000                                                            
   RMAX   =    2.266    core radius for proj-oper                               
   RAUG   =    1.300    factor for augmentation sphere                          
   RDEP   =    1.501    radius for radial grids                                 
   RDEPT  =    1.300    core radius for aug-charge                              
   QCUT   =   -5.516; QGAM   =   11.032    optimization parameters              
                                                                                
   Description                                                                  
     l     E      TYP  RCUT    TYP  RCUT                                        
     0   .000     23  1.200                                                     
     0   .000     23  1.200                                                     
     1   .000     23  1.500                                                     
     1  2.500     23  1.500                                                     
     2   .000      7  1.500                                                     
  local pseudopotential read in
  atomic valenz-charges read in
  non local Contribution for L=           0  read in
    real space projection operators read in
  non local Contribution for L=           0  read in
    real space projection operators read in
  non local Contribution for L=           1  read in
    real space projection operators read in
  non local Contribution for L=           1  read in
    real space projection operators read in
    PAW grid and wavefunctions read in
 
   number of l-projection  operators is LMAX  =           4
   number of lm-projection operators is LMMAX =           8
 
 PAW_PBE C 08Apr2002                    :
 energy of atom  1       EATOM= -147.1560
 kinetic energy error for atom=    0.0288 (will be added to EATOM!!)
 
 
 POSCAR: C8                                      
  positions in direct lattice
  No initial velocities read in
 exchange correlation table for  LEXCH =        8
   RHO(1)=    0.500       N(1)  =     2000
   RHO(2)=  100.500       N(2)  =     4000
 


--------------------------------------------------------------------------------------------------------


 ion  position               nearest neighbor table
   1  0.250  0.750  0.250-   2 1.56   4 1.56   6 1.56   8 1.56
   2  0.000  0.000  0.500-   1 1.56   3 1.56   5 1.56   7 1.56
   3  0.250  0.250  0.750-   2 1.56   4 1.56   6 1.56   8 1.56
   4  0.000  0.500  0.000-   1 1.56   3 1.56   5 1.56   7 1.56
   5  0.750  0.750  0.750-   2 1.56   4 1.56   6 1.56   8 1.56
   6  0.500  0.000  0.000-   1 1.56   3 1.56   5 1.56   7 1.56
   7  0.750  0.250  0.250-   2 1.56   4 1.56   6 1.56   8 1.56
   8  0.500  0.500  0.500-   1 1.56   3 1.56   5 1.56   7 1.56
 
  LATTYP: Found a simple cubic cell.
 ALAT       =     3.6092700000
  
  Lattice vectors:
  
 A1 = (   3.6092700000,   0.0000000000,   0.0000000000)
 A2 = (   0.0000000000,   3.6092700000,   0.0000000000)
 A3 = (   0.0000000000,   0.0000000000,   3.6092700000)


Analysis of symmetry for initial positions (statically):
=====================================================================
 Subroutine PRICEL returns following result:
 
  LATTYP: Found a face centered cubic cell.
 ALAT       =     3.6092700000
  
  Lattice vectors:
  
 A1 = (   1.8046350000,   1.8046350000,   0.0000000000)
 A2 = (   1.8046350000,   0.0000000000,  -1.8046350000)
 A3 = (   0.0000000000,   1.8046350000,  -1.8046350000)
 
   4 primitive cells build up your supercell.
 

 Routine SETGRP: Setting up the symmetry group for a 
 simple cubic supercell.


 Subroutine GETGRP returns: Found 48 space group operations
 (whereof 24 operations were pure point group operations)
 out of a pool of 48 trial point group operations.


The static configuration has the point symmetry T_d .
 The point group associated with its full space group is O_h .


Analysis of symmetry for dynamics (positions and initial velocities):
=====================================================================
 Subroutine PRICEL returns following result:
 
  LATTYP: Found a face centered cubic cell.
 ALAT       =     3.6092700000
  
  Lattice vectors:
  
 A1 = (   1.8046350000,   1.8046350000,   0.0000000000)
 A2 = (   1.8046350000,   0.0000000000,  -1.8046350000)
 A3 = (   0.0000000000,   1.8046350000,  -1.8046350000)
 
   4 primitive cells build up your supercell.
 

 Routine SETGRP: Setting up the symmetry group for a 
 simple cubic supercell.


 Subroutine GETGRP returns: Found 48 space group operations
 (whereof 24 operations were pure point group operations)
 out of a pool of 48 trial point group operations.


The dynamic configuration has the point symmetry T_d .
 The point group associated with its full space group is O_h .


 Subroutine INISYM returns: Found 48 space group operations
 (whereof 24 operations are pure point group operations),
 and found     4 'primitive' translations

 
 
 KPOINTS: kpt_density=1000                        

Automatic generation of k-mesh.
Space group operators:
 irot       det(A)        alpha          n_x          n_y          n_z        tau_x        tau_y        tau_z
    1     1.000000     0.000000     1.000000     0.000000     0.000000     0.000000     0.000000     0.000000
    2     1.000000   120.000000    -0.577350    -0.577350    -0.577350     0.000000     0.000000     0.000000
    3     1.000000   120.000000     0.577350     0.577350     0.577350     0.000000     0.000000     0.000000
    4    -1.000000    90.000000     0.000000     0.000000    -1.000000     0.000000     0.000000     0.000000
    5    -1.000000   180.000000     0.000000     0.707107     0.707107     0.000000     0.000000     0.000000
    6    -1.000000    90.000000     0.000000     1.000000     0.000000     0.000000     0.000000     0.000000
    7     1.000000   180.000000     0.000000     0.000000     1.000000     0.000000     0.000000     0.000000
    8     1.000000   120.000000    -0.577350     0.577350     0.577350     0.000000     0.000000     0.000000
    9     1.000000   120.000000    -0.577350     0.577350    -0.577350     0.000000     0.000000     0.000000
   10    -1.000000    90.000000     0.000000     0.000000     1.000000     0.000000     0.000000     0.000000
   11    -1.000000    90.000000    -1.000000     0.000000     0.000000     0.000000     0.000000     0.000000
   12    -1.000000   180.000000     0.707107     0.000000     0.707107     0.000000     0.000000     0.000000
   13     1.000000   120.000000     0.577350    -0.577350     0.577350     0.000000     0.000000     0.000000
   14     1.000000   120.000000    -0.577350    -0.577350     0.577350     0.000000     0.000000     0.000000
   15     1.000000   180.000000     1.000000     0.000000     0.000000     0.000000     0.000000     0.000000
   16    -1.000000    90.000000     0.000000    -1.000000     0.000000     0.000000     0.000000     0.000000
   17    -1.000000   180.000000     0.707107     0.707107     0.000000     0.000000     0.000000     0.000000
   18    -1.000000    90.000000     1.000000     0.000000     0.000000     0.000000     0.000000     0.000000
   19     1.000000   120.000000     0.577350    -0.577350    -0.577350     0.000000     0.000000     0.000000
   20     1.000000   180.000000     0.000000     1.000000     0.000000     0.000000     0.000000     0.000000
   21     1.000000   120.000000     0.577350     0.577350    -0.577350     0.000000     0.000000     0.000000
   22    -1.000000   180.000000     0.000000    -0.707107     0.707107     0.000000     0.000000     0.000000
   23    -1.000000   180.000000     0.707107    -0.707107     0.000000     0.000000     0.000000     0.000000
   24    -1.000000   180.000000     0.707107     0.000000    -0.707107     0.000000     0.000000     0.000000
   25    -1.000000     0.000000     1.000000     0.000000     0.000000     0.750000     0.750000    -0.750000
   26    -1.000000   120.000000    -0.577350    -0.577350    -0.577350     0.750000     0.750000    -0.750000
   27    -1.000000   120.000000     0.577350     0.577350     0.577350     0.750000     0.750000    -0.750000
   28     1.000000    90.000000     0.000000     0.000000    -1.000000     0.750000     0.750000    -0.750000
   29     1.000000   180.000000     0.000000     0.707107     0.707107     0.750000     0.750000    -0.750000
   30     1.000000    90.000000     0.000000     1.000000     0.000000     0.750000     0.750000    -0.750000
   31    -1.000000   180.000000     0.000000     0.000000     1.000000     0.750000     0.750000    -0.750000
   32    -1.000000   120.000000    -0.577350     0.577350     0.577350     0.750000     0.750000    -0.750000
   33    -1.000000   120.000000    -0.577350     0.577350    -0.577350     0.750000     0.750000    -0.750000
   34     1.000000    90.000000     0.000000     0.000000     1.000000     0.750000     0.750000    -0.750000
   35     1.000000    90.000000    -1.000000     0.000000     0.000000     0.750000     0.750000    -0.750000
   36     1.000000   180.000000     0.707107     0.000000     0.707107     0.750000     0.750000    -0.750000
   37    -1.000000   120.000000     0.577350    -0.577350     0.577350     0.750000     0.750000    -0.750000
   38    -1.000000   120.000000    -0.577350    -0.577350     0.577350     0.750000     0.750000    -0.750000
   39    -1.000000   180.000000     1.000000     0.000000     0.000000     0.750000     0.750000    -0.750000
   40     1.000000    90.000000     0.000000    -1.000000     0.000000     0.750000     0.750000    -0.750000
   41     1.000000   180.000000     0.707107     0.707107     0.000000     0.750000     0.750000    -0.750000
   42     1.000000    90.000000     1.000000     0.000000     0.000000     0.750000     0.750000    -0.750000
   43    -1.000000   120.000000     0.577350    -0.577350    -0.577350     0.750000     0.750000    -0.750000
   44    -1.000000   180.000000     0.000000     1.000000     0.000000     0.750000     0.750000    -0.750000
   45    -1.000000   120.000000     0.577350     0.577350    -0.577350     0.750000     0.750000    -0.750000
   46     1.000000   180.000000     0.000000    -0.707107     0.707107     0.750000     0.750000    -0.750000
   47     1.000000   180.000000     0.707107    -0.707107     0.000000     0.750000     0.750000    -0.750000
   48     1.000000   180.000000     0.707107     0.000000    -0.707107     0.750000     0.750000    -0.750000
 
 Subroutine IBZKPT returns following result:
 ===========================================
 
 Found     84 irreducible k-points:
 
 Following reciprocal coordinates:
            Coordinates               Weight
  0.000000  0.000000  0.000000      1.000000
  0.083333  0.000000  0.000000      6.000000
  0.166667  0.000000  0.000000      6.000000
  0.250000  0.000000  0.000000      6.000000
  0.333333  0.000000  0.000000      6.000000
  0.416667  0.000000  0.000000      6.000000
  0.500000  0.000000  0.000000      3.000000
  0.083333  0.083333  0.000000     12.000000
  0.166667  0.083333  0.000000     24.000000
  0.250000  0.083333  0.000000     24.000000
  0.333333  0.083333  0.000000     24.000000
  0.416667  0.083333  0.000000     24.000000
  0.500000  0.083333  0.000000     12.000000
  0.166667  0.166667  0.000000     12.000000
  0.250000  0.166667  0.000000     24.000000
  0.333333  0.166667  0.000000     24.000000
  0.416667  0.166667  0.000000     24.000000
  0.500000  0.166667  0.000000     12.000000
  0.250000  0.250000  0.000000     12.000000
  0.333333  0.250000  0.000000     24.000000
  0.416667  0.250000  0.000000     24.000000
  0.500000  0.250000  0.000000     12.000000
  0.333333  0.333333  0.000000     12.000000
  0.416667  0.333333  0.000000     24.000000
  0.500000  0.333333  0.000000     12.000000
  0.416667  0.416667  0.000000     12.000000
  0.500000  0.416667  0.000000     12.000000
  0.500000  0.500000  0.000000      3.000000
  0.083333  0.083333  0.083333      8.000000
  0.166667  0.083333  0.083333     24.000000
  0.250000  0.083333  0.083333     24.000000
  0.333333  0.083333  0.083333     24.000000
  0.416667  0.083333  0.083333     24.000000
  0.500000  0.083333  0.083333     12.000000
  0.166667  0.166667  0.083333     24.000000
  0.250000  0.166667  0.083333     48.000000
  0.333333  0.166667  0.083333     48.000000
  0.416667  0.166667  0.083333     48.000000
  0.500000  0.166667  0.083333     24.000000
  0.250000  0.250000  0.083333     24.000000
  0.333333  0.250000  0.083333     48.000000
  0.416667  0.250000  0.083333     48.000000
  0.500000  0.250000  0.083333     24.000000
  0.333333  0.333333  0.083333     24.000000
  0.416667  0.333333  0.083333     48.000000
  0.500000  0.333333  0.083333     24.000000
  0.416667  0.416667  0.083333     24.000000
  0.500000  0.416667  0.083333     24.000000
  0.500000  0.500000  0.083333      6.000000
  0.166667  0.166667  0.166667      8.000000
  0.250000  0.166667  0.166667     24.000000
  0.333333  0.166667  0.166667     24.000000
  0.416667  0.166667  0.166667     24.000000
  0.500000  0.166667  0.166667     12.000000
  0.250000  0.250000  0.166667     24.000000
  0.333333  0.250000  0.166667     48.000000
  0.416667  0.250000  0.166667     48.000000
  0.500000  0.250000  0.166667     24.000000
  0.333333  0.333333  0.166667     24.000000
  0.416667  0.333333  0.166667     48.000000
  0.500000  0.333333  0.166667     24.000000
  0.416667  0.416667  0.166667     24.000000
  0.500000  0.416667  0.166667     24.000000
  0.500000  0.500000  0.166667      6.000000
  0.250000  0.250000  0.250000      8.000000
  0.333333  0.250000  0.250000     24.000000
  0.416667  0.250000  0.250000     24.000000
  0.500000  0.250000  0.250000     12.000000
  0.333333  0.333333  0.250000     24.000000
  0.416667  0.333333  0.250000     48.000000
  0.500000  0.333333  0.250000     24.000000
  0.416667  0.416667  0.250000     24.000000
  0.500000  0.416667  0.250000     24.000000
  0.500000  0.500000  0.250000      6.000000
  0.333333  0.333333  0.333333      8.000000
  0.416667  0.333333  0.333333     24.000000
  0.500000  0.333333  0.333333     12.000000
  0.416667  0.416667  0.333333     24.000000
  0.500000  0.416667  0.333333     24.000000
  0.500000  0.500000  0.333333      6.000000
  0.416667  0.416667  0.416667      8.000000
  0.500000  0.416667  0.416667     12.000000
  0.500000  0.500000  0.416667      6.000000
  0.500000  0.500000  0.500000      1.000000
 
 Following cartesian coordinates:
            Coordinates               Weight
  0.000000  0.000000  0.000000      1.000000
  0.023089  0.000000  0.000000      6.000000
  0.046177  0.000000  0.000000      6.000000
  0.069266  0.000000  0.000000      6.000000
  0.092355  0.000000  0.000000      6.000000
  0.115443  0.000000  0.000000      6.000000
  0.138532  0.000000  0.000000      3.000000
  0.023089  0.023089  0.000000     12.000000
  0.046177  0.023089  0.000000     24.000000
  0.069266  0.023089  0.000000     24.000000
  0.092355  0.023089  0.000000     24.000000
  0.115443  0.023089  0.000000     24.000000
  0.138532  0.023089  0.000000     12.000000
  0.046177  0.046177  0.000000     12.000000
  0.069266  0.046177  0.000000     24.000000
  0.092355  0.046177  0.000000     24.000000
  0.115443  0.046177  0.000000     24.000000
  0.138532  0.046177  0.000000     12.000000
  0.069266  0.069266  0.000000     12.000000
  0.092355  0.069266  0.000000     24.000000
  0.115443  0.069266  0.000000     24.000000
  0.138532  0.069266  0.000000     12.000000
  0.092355  0.092355  0.000000     12.000000
  0.115443  0.092355  0.000000     24.000000
  0.138532  0.092355  0.000000     12.000000
  0.115443  0.115443  0.000000     12.000000
  0.138532  0.115443  0.000000     12.000000
  0.138532  0.138532  0.000000      3.000000
  0.023089  0.023089  0.023089      8.000000
  0.046177  0.023089  0.023089     24.000000
  0.069266  0.023089  0.023089     24.000000
  0.092355  0.023089  0.023089     24.000000
  0.115443  0.023089  0.023089     24.000000
  0.138532  0.023089  0.023089     12.000000
  0.046177  0.046177  0.023089     24.000000
  0.069266  0.046177  0.023089     48.000000
  0.092355  0.046177  0.023089     48.000000
  0.115443  0.046177  0.023089     48.000000
  0.138532  0.046177  0.023089     24.000000
  0.069266  0.069266  0.023089     24.000000
  0.092355  0.069266  0.023089     48.000000
  0.115443  0.069266  0.023089     48.000000
  0.138532  0.069266  0.023089     24.000000
  0.092355  0.092355  0.023089     24.000000
  0.115443  0.092355  0.023089     48.000000
  0.138532  0.092355  0.023089     24.000000
  0.115443  0.115443  0.023089     24.000000
  0.138532  0.115443  0.023089     24.000000
  0.138532  0.138532  0.023089      6.000000
  0.046177  0.046177  0.046177      8.000000
  0.069266  0.046177  0.046177     24.000000
  0.092355  0.046177  0.046177     24.000000
  0.115443  0.046177  0.046177     24.000000
  0.138532  0.046177  0.046177     12.000000
  0.069266  0.069266  0.046177     24.000000
  0.092355  0.069266  0.046177     48.000000
  0.115443  0.069266  0.046177     48.000000
  0.138532  0.069266  0.046177     24.000000
  0.092355  0.092355  0.046177     24.000000
  0.115443  0.092355  0.046177     48.000000
  0.138532  0.092355  0.046177     24.000000
  0.115443  0.115443  0.046177     24.000000
  0.138532  0.115443  0.046177     24.000000
  0.138532  0.138532  0.046177      6.000000
  0.069266  0.069266  0.069266      8.000000
  0.092355  0.069266  0.069266     24.000000
  0.115443  0.069266  0.069266     24.000000
  0.138532  0.069266  0.069266     12.000000
  0.092355  0.092355  0.069266     24.000000
  0.115443  0.092355  0.069266     48.000000
  0.138532  0.092355  0.069266     24.000000
  0.115443  0.115443  0.069266     24.000000
  0.138532  0.115443  0.069266     24.000000
  0.138532  0.138532  0.069266      6.000000
  0.092355  0.092355  0.092355      8.000000
  0.115443  0.092355  0.092355     24.000000
  0.138532  0.092355  0.092355     12.000000
  0.115443  0.115443  0.092355     24.000000
  0.138532  0.115443  0.092355     24.000000
  0.138532  0.138532  0.092355      6.000000
  0.115443  0.115443  0.115443      8.000000
  0.138532  0.115443  0.115443     12.000000
  0.138532  0.138532  0.115443      6.000000
  0.138532  0.138532  0.138532      1.000000
 
 TETIRR: Found    854 inequivalent tetrahedra from    10368


--------------------------------------------------------------------------------------------------------




 Dimension of arrays:
   k-points           NKPTS =     84   k-points in BZ     NKDIM =     84   number of bands    NBANDS=     24
   number of dos      NEDOS =    301   number of ions     NIONS =      8
   non local maximal  LDIM  =      4   non local SUM 2l+1 LMDIM =      8
   total plane-waves  NPLWV =  13824
   max r-space proj   IRMAX =      1   max aug-charges    IRDMAX=   3669
   dimension x,y,z NGX =    24 NGY =   24 NGZ =   24
   dimension x,y,z NGXF=    48 NGYF=   48 NGZF=   48
   support grid    NGXF=    48 NGYF=   48 NGZF=   48
   ions per type =               8
   NGX,Y,Z   is equivalent  to a cutoff of  11.05, 11.05, 11.05 a.u.
   NGXF,Y,Z  is equivalent  to a cutoff of  22.11, 22.11, 22.11 a.u.

 SYSTEM =  unknown system                          
 POSCAR =  C8                                      

 Startparameter for this run:
   NWRITE =      2    write-flag & timer
   PREC   = accura    normal or accurate (medium, high low for compatibility)
   ISTART =      0    job   : 0-new  1-cont  2-samecut
   ICHARG =      2    charge: 1-file 2-atom 10-const
   ISPIN  =      1    spin polarized calculation?
   LNONCOLLINEAR =      F non collinear calculations
   LSORBIT =      F    spin-orbit coupling
   INIWAV =      1    electr: 0-lowe 1-rand  2-diag
   LASPH  =      F    aspherical Exc in radial PAW
   METAGGA=      F    non-selfconsistent MetaGGA calc.

 Electronic Relaxation 1
   ENCUT  =  400.0 eV  29.40 Ry    5.42 a.u.   5.89  5.89  5.89*2*pi/ulx,y,z
   ENINI  =  400.0     initial cutoff
   ENAUG  =  644.9 eV  augmentation charge cutoff
   NELM   =     60;   NELMIN=  2; NELMDL= -5     # of ELM steps 
   EDIFF  = 0.1E-05   stopping-criterion for ELM
   LREAL  =      F    real-space projection
   NLSPLINE    = F    spline interpolate recip. space projectors
   LCOMPAT=      F    compatible to vasp.4.4
   GGA_COMPAT  = T    GGA compatible to vasp.4.4-vasp.4.6
   LMAXPAW     = -100 max onsite density
   LMAXMIX     =    2 max onsite mixed and CHGCAR
   VOSKOWN=      0    Vosko Wilk Nusair interpolation
   ROPT   =    0.00000
 Ionic relaxation
   EDIFFG = 0.1E-04   stopping-criterion for IOM
   NSW    =      0    number of steps for IOM
   NBLOCK =      1;   KBLOCK =      1    inner block; outer block 
   IBRION =     -1    ionic relax: 0-MD 1-quasi-New 2-CG
   NFREE  =      0    steps in history (QN), initial steepest desc. (CG)
   ISIF   =      2    stress and relaxation
   IWAVPR =     10    prediction:  0-non 1-charg 2-wave 3-comb
   ISYM   =      2    0-nonsym 1-usesym 2-fastsym
   LCORR  =      T    Harris-Foulkes like correction to forces

   POTIM  = 0.0200    time-step for ionic-motion
   TEIN   =    0.0    initial temperature
   TEBEG  =    0.0;   TEEND  =   0.0 temperature during run
   SMASS  =  -3.00    Nose mass-parameter (am)
   estimated Nose-frequenzy (Omega)   =  0.10E-29 period in steps =****** mass=  -0.298E-27a.u.
   SCALEE = 1.0000    scale energy and forces
   NPACO  =    256;   APACO  = 16.0  distance and # of slots for P.C.
   PSTRESS=    0.0 pullay stress

  Mass of Ions in am
   POMASS =  12.01
  Ionic Valenz
   ZVAL   =   4.00
  Atomic Wigner-Seitz radii
   RWIGS  =  -1.00
  virtual crystal weights 
   VCA    =   1.00
   NELECT =      32.0000    total number of electrons
   NUPDOWN=      -1.0000    fix difference up-down

 DOS related values:
   EMIN   =  10.00;   EMAX   =-10.00  energy-range for DOS
   EFERMI =   0.00
   ISMEAR =    -5;   SIGMA  =   0.06  broadening in eV -4-tet -1-fermi 0-gaus

 Electronic relaxation 2 (details)
   IALGO  =     38    algorithm
   LDIAG  =      T    sub-space diagonalisation (order eigenvalues)
   LSUBROT=      F    optimize rotation matrix (better conditioning)
   TURBO    =      0    0=normal 1=particle mesh
   IRESTART =      0    0=no restart 2=restart with 2 vectors
   NREBOOT  =      0    no. of reboots
   NMIN     =      0    reboot dimension
   EREF     =   0.00    reference energy to select bands
   IMIX   =      4    mixing-type and parameters
     AMIX     =   0.40;   BMIX     =  1.00
     AMIX_MAG =   1.60;   BMIX_MAG =  1.00
     AMIN     =   0.10
     WC   =   100.;   INIMIX=   1;  MIXPRE=   1;  MAXMIX= -45

 Intra band minimization:
   WEIMIN = 0.0000     energy-eigenvalue tresh-hold
   EBREAK =  0.10E-07  absolut break condition
   DEPER  =   0.30     relativ break condition  

   TIME   =   0.40     timestep for ELM

  volume/ion in A,a.u.               =       5.88        39.66
  Fermi-wavevector in a.u.,A,eV,Ry     =   1.440032  2.721266 28.214292  2.073692
  Thomas-Fermi vector in A             =   2.558821
 
 Write flags
   LWAVE        =      F    write WAVECAR
   LDOWNSAMPLE  =      F    k-point downsampling of WAVECAR
   LCHARG       =      F    write CHGCAR
   LVTOT        =      F    write LOCPOT, total local potential
   LVHAR        =      F    write LOCPOT, Hartree potential only
   LELF         =      F    write electronic localiz. function (ELF)
   LORBIT       =      0    0 simple, 1 ext, 2 COOP (PROOUT), +10 PAW based schemes


 Dipole corrections
   LMONO  =      F    monopole corrections only (constant potential shift)
   LDIPOL =      F    correct potential (dipole corrections)
   IDIPOL =      0    1-x, 2-y, 3-z, 4-all directions 
   EPSILON=  1.0000000 bulk dielectric constant

 Exchange correlation treatment:
   GGA     =    --    GGA type
   LEXCH   =     8    internal setting for exchange type
   VOSKOWN=      0    Vosko Wilk Nusair interpolation
   LHFCALC =     F    Hartree Fock is set to
   LHFONE  =     F    Hartree Fock one center treatment
   AEXX    =    0.0000 exact exchange contribution

 Linear response parameters
   LEPSILON=     F    determine dielectric tensor
   LRPA    =     F    only Hartree local field effects (RPA)
   LNABLA  =     F    use nabla operator in PAW spheres
   LVEL    =     F    velocity operator in full k-point grid
   LINTERFAST=   F  fast interpolation
   KINTER  =     0    interpolate to denser k-point grid
   CSHIFT  =0.1000    complex shift for real part using Kramers Kronig
   OMEGAMAX=  -1.0    maximum frequency
   DEG_THRESHOLD= 0.2000000E-02 threshold for treating states as degnerate
   RTIME   =   -0.100 relaxation time in fs
  (WPLASMAI=    0.000 imaginary part of plasma frequency in eV, 0.658/RTIME)
   DFIELD  = 0.0000000 0.0000000 0.0000000 field for delta impulse in time
 
 Orbital magnetization related:
   ORBITALMAG=     F  switch on orbital magnetization
   LCHIMAG   =     F  perturbation theory with respect to B field
   DQ        =  0.001000  dq finite difference perturbation B field
   LLRAUG    =     F  two centre corrections for induced B field



--------------------------------------------------------------------------------------------------------


 Static calculation
 charge density and potential will be updated during run
 non-spin polarized calculation
 Variant of blocked Davidson
 Davidson routine will perform the subspace rotation
 perform sub-space diagonalisation
    after iterative eigenvector-optimisation
 modified Broyden-mixing scheme, WC =      100.0
 initial mixing is a Kerker type mixing with AMIX =  0.4000 and BMIX =      1.0000
 Hartree-type preconditioning will be used
 using additional bands            8
 reciprocal scheme for non local part
 calculate Harris-corrections to forces 
   (improved forces if not selfconsistent)
 use gradient corrections 
 use of overlap-Matrix (Vanderbilt PP)
 Fermi weights with tetrahedron method with Bloechl corrections


--------------------------------------------------------------------------------------------------------


  energy-cutoff  :      400.00
  volume of cell :       47.02
      direct lattice vectors                 reciprocal lattice vectors
     3.609270000  0.000000000  0.000000000     0.277064337  0.000000000  0.000000000
     0.000000000  3.609270000  0.000000000     0.000000000  0.277064337  0.000000000
     0.000000000  0.000000000  3.609270000     0.000000000  0.000000000  0.277064337

  length of vectors
     3.609270000  3.609270000  3.609270000     0.277064337  0.277064337  0.277064337


 
 k-points in units of 2pi/SCALE and weight: kpt_density=1000                        
   0.00000000  0.00000000  0.00000000       0.001
   0.02308869  0.00000000  0.00000000       0.003
   0.04617739  0.00000000  0.00000000       0.003
   0.06926608  0.00000000  0.00000000       0.003
   0.09235478  0.00000000  0.00000000       0.003
   0.11544347  0.00000000  0.00000000       0.003
   0.13853217  0.00000000  0.00000000       0.002
   0.02308869  0.02308869  0.00000000       0.007
   0.04617739  0.02308869  0.00000000       0.014
   0.06926608  0.02308869  0.00000000       0.014
   0.09235478  0.02308869  0.00000000       0.014
   0.11544347  0.02308869  0.00000000       0.014
   0.13853217  0.02308869  0.00000000       0.007
   0.04617739  0.04617739  0.00000000       0.007
   0.06926608  0.04617739  0.00000000       0.014
   0.09235478  0.04617739  0.00000000       0.014
   0.11544347  0.04617739  0.00000000       0.014
   0.13853217  0.04617739  0.00000000       0.007
   0.06926608  0.06926608  0.00000000       0.007
   0.09235478  0.06926608  0.00000000       0.014
   0.11544347  0.06926608  0.00000000       0.014
   0.13853217  0.06926608  0.00000000       0.007
   0.09235478  0.09235478  0.00000000       0.007
   0.11544347  0.09235478  0.00000000       0.014
   0.13853217  0.09235478  0.00000000       0.007
   0.11544347  0.11544347  0.00000000       0.007
   0.13853217  0.11544347  0.00000000       0.007
   0.13853217  0.13853217  0.00000000       0.002
   0.02308869  0.02308869  0.02308869       0.005
   0.04617739  0.02308869  0.02308869       0.014
   0.06926608  0.02308869  0.02308869       0.014
   0.09235478  0.02308869  0.02308869       0.014
   0.11544347  0.02308869  0.02308869       0.014
   0.13853217  0.02308869  0.02308869       0.007
   0.04617739  0.04617739  0.02308869       0.014
   0.06926608  0.04617739  0.02308869       0.028
   0.09235478  0.04617739  0.02308869       0.028
   0.11544347  0.04617739  0.02308869       0.028
   0.13853217  0.04617739  0.02308869       0.014
   0.06926608  0.06926608  0.02308869       0.014
   0.09235478  0.06926608  0.02308869       0.028
   0.11544347  0.06926608  0.02308869       0.028
   0.13853217  0.06926608  0.02308869       0.014
   0.09235478  0.09235478  0.02308869       0.014
   0.11544347  0.09235478  0.02308869       0.028
   0.13853217  0.09235478  0.02308869       0.014
   0.11544347  0.11544347  0.02308869       0.014
   0.13853217  0.11544347  0.02308869       0.014
   0.13853217  0.13853217  0.02308869       0.003
   0.04617739  0.04617739  0.04617739       0.005
   0.06926608  0.04617739  0.04617739       0.014
   0.09235478  0.04617739  0.04617739       0.014
   0.11544347  0.04617739  0.04617739       0.014
   0.13853217  0.04617739  0.04617739       0.007
   0.06926608  0.06926608  0.04617739       0.014
   0.09235478  0.06926608  0.04617739       0.028
   0.11544347  0.06926608  0.04617739       0.028
   0.13853217  0.06926608  0.04617739       0.014
   0.09235478  0.09235478  0.04617739       0.014
   0.11544347  0.09235478  0.04617739       0.028
   0.13853217  0.09235478  0.04617739       0.014
   0.11544347  0.11544347  0.04617739       0.014
   0.13853217  0.11544347  0.04617739       0.014
   0.13853217  0.13853217  0.04617739       0.003
   0.06926608  0.06926608  0.06926608       0.005
   0.09235478  0.06926608  0.06926608       0.014
   0.11544347  0.06926608  0.06926608       0.014
   0.13853217  0.06926608  0.06926608       0.007
   0.09235478  0.09235478  0.06926608       0.014
   0.11544347  0.09235478  0.06926608       0.028
   0.13853217  0.09235478  0.06926608       0.014
   0.11544347  0.11544347  0.06926608       0.014
   0.13853217  0.11544347  0.06926608       0.014
   0.13853217  0.13853217  0.06926608       0.003
   0.09235478  0.09235478  0.09235478       0.005
   0.11544347  0.09235478  0.09235478       0.014
   0.13853217  0.09235478  0.09235478       0.007
   0.11544347  0.11544347  0.09235478       0.014
   0.13853217  0.11544347  0.09235478       0.014
   0.13853217  0.13853217  0.09235478       0.003
   0.11544347  0.11544347  0.11544347       0.005
   0.13853217  0.11544347  0.11544347       0.007
   0.13853217  0.13853217  0.11544347       0.003
   0.13853217  0.13853217  0.13853217       0.001
 
 k-points in reciprocal lattice and weights: kpt_density=1000                        
   0.00000000  0.00000000  0.00000000       0.001
   0.08333333  0.00000000  0.00000000       0.003
   0.16666667  0.00000000  0.00000000       0.003
   0.25000000  0.00000000  0.00000000       0.003
   0.33333333  0.00000000  0.00000000       0.003
   0.41666667  0.00000000  0.00000000       0.003
   0.50000000  0.00000000  0.00000000       0.002
   0.08333333  0.08333333  0.00000000       0.007
   0.16666667  0.08333333  0.00000000       0.014
   0.25000000  0.08333333  0.00000000       0.014
   0.33333333  0.08333333  0.00000000       0.014
   0.41666667  0.08333333  0.00000000       0.014
   0.50000000  0.08333333  0.00000000       0.007
   0.16666667  0.16666667  0.00000000       0.007
   0.25000000  0.16666667  0.00000000       0.014
   0.33333333  0.16666667  0.00000000       0.014
   0.41666667  0.16666667  0.00000000       0.014
   0.50000000  0.16666667  0.00000000       0.007
   0.25000000  0.25000000  0.00000000       0.007
   0.33333333  0.25000000  0.00000000       0.014
   0.41666667  0.25000000  0.00000000       0.014
   0.50000000  0.25000000  0.00000000       0.007
   0.33333333  0.33333333  0.00000000       0.007
   0.41666667  0.33333333  0.00000000       0.014
   0.50000000  0.33333333  0.00000000       0.007
   0.41666667  0.41666667  0.00000000       0.007
   0.50000000  0.41666667  0.00000000       0.007
   0.50000000  0.50000000  0.00000000       0.002
   0.08333333  0.08333333  0.08333333       0.005
   0.16666667  0.08333333  0.08333333       0.014
   0.25000000  0.08333333  0.08333333       0.014
   0.33333333  0.08333333  0.08333333       0.014
   0.41666667  0.08333333  0.08333333       0.014
   0.50000000  0.08333333  0.08333333       0.007
   0.16666667  0.16666667  0.08333333       0.014
   0.25000000  0.16666667  0.08333333       0.028
   0.33333333  0.16666667  0.08333333       0.028
   0.41666667  0.16666667  0.08333333       0.028
   0.50000000  0.16666667  0.08333333       0.014
   0.25000000  0.25000000  0.08333333       0.014
   0.33333333  0.25000000  0.08333333       0.028
   0.41666667  0.25000000  0.08333333       0.028
   0.50000000  0.25000000  0.08333333       0.014
   0.33333333  0.33333333  0.08333333       0.014
   0.41666667  0.33333333  0.08333333       0.028
   0.50000000  0.33333333  0.08333333       0.014
   0.41666667  0.41666667  0.08333333       0.014
   0.50000000  0.41666667  0.08333333       0.014
   0.50000000  0.50000000  0.08333333       0.003
   0.16666667  0.16666667  0.16666667       0.005
   0.25000000  0.16666667  0.16666667       0.014
   0.33333333  0.16666667  0.16666667       0.014
   0.41666667  0.16666667  0.16666667       0.014
   0.50000000  0.16666667  0.16666667       0.007
   0.25000000  0.25000000  0.16666667       0.014
   0.33333333  0.25000000  0.16666667       0.028
   0.41666667  0.25000000  0.16666667       0.028
   0.50000000  0.25000000  0.16666667       0.014
   0.33333333  0.33333333  0.16666667       0.014
   0.41666667  0.33333333  0.16666667       0.028
   0.50000000  0.33333333  0.16666667       0.014
   0.41666667  0.41666667  0.16666667       0.014
   0.50000000  0.41666667  0.16666667       0.014
   0.50000000  0.50000000  0.16666667       0.003
   0.25000000  0.25000000  0.25000000       0.005
   0.33333333  0.25000000  0.25000000       0.014
   0.41666667  0.25000000  0.25000000       0.014
   0.50000000  0.25000000  0.25000000       0.007
   0.33333333  0.33333333  0.25000000       0.014
   0.41666667  0.33333333  0.25000000       0.028
   0.50000000  0.33333333  0.25000000       0.014
   0.41666667  0.41666667  0.25000000       0.014
   0.50000000  0.41666667  0.25000000       0.014
   0.50000000  0.50000000  0.25000000       0.003
   0.33333333  0.33333333  0.33333333       0.005
   0.41666667  0.33333333  0.33333333       0.014
   0.50000000  0.33333333  0.33333333       0.007
   0.41666667  0.41666667  0.33333333       0.014
   0.50000000  0.41666667  0.33333333       0.014
   0.50000000  0.50000000  0.33333333       0.003
   0.41666667  0.41666667  0.41666667       0.005
   0.50000000  0.41666667  0.41666667       0.007
   0.50000000  0.50000000  0.41666667       0.003
   0.50000000  0.50000000  0.50000000       0.001
 
 position of ions in fractional coordinates (direct lattice) 
   0.25000000  0.75000000  0.25000000
   0.00000000  0.00000000  0.50000000
   0.25000000  0.25000000  0.75000000
   0.00000000  0.50000000  0.00000000
   0.75000000  0.75000000  0.75000000
   0.50000000  0.00000000  0.00000000
   0.75000000  0.25000000  0.25000000
   0.50000000  0.50000000  0.50000000
 
 position of ions in cartesian coordinates  (Angst):
   0.90231750  2.70695250  0.90231750
   0.00000000  0.00000000  1.80463500
   0.90231750  0.90231750  2.70695250
   0.00000000  1.80463500  0.00000000
   2.70695250  2.70695250  2.70695250
   1.80463500  0.00000000  0.00000000
   2.70695250  0.90231750  0.90231750
   1.80463500  1.80463500  1.80463500
 


--------------------------------------------------------------------------------------------------------


 k-point  1 :   0.0000 0.0000 0.0000  plane waves:     847
 k-point  2 :   0.0833 0.0000 0.0000  plane waves:     855
 k-point  3 :   0.1667 0.0000 0.0000  plane waves:     840
 k-point  4 :   0.2500 0.0000 0.0000  plane waves:     852
 k-point  5 :   0.3333 0.0000 0.0000  plane waves:     852
 k-point  6 :   0.4167 0.0000 0.0000  plane waves:     856
 k-point  7 :   0.5000 0.0000 0.0000  plane waves:     852
 k-point  8 :   0.0833 0.0833 0.0000  plane waves:     851
 k-point  9 :   0.1667 0.0833 0.0000  plane waves:     851
 k-point 10 :   0.2500 0.0833 0.0000  plane waves:     845
 k-point 11 :   0.3333 0.0833 0.0000  plane waves:     849
 k-point 12 :   0.4167 0.0833 0.0000  plane waves:     846
 k-point 13 :   0.5000 0.0833 0.0000  plane waves:     844
 k-point 14 :   0.1667 0.1667 0.0000  plane waves:     850
 k-point 15 :   0.2500 0.1667 0.0000  plane waves:     848
 k-point 16 :   0.3333 0.1667 0.0000  plane waves:     850
 k-point 17 :   0.4167 0.1667 0.0000  plane waves:     848
 k-point 18 :   0.5000 0.1667 0.0000  plane waves:     856
 k-point 19 :   0.2500 0.2500 0.0000  plane waves:     868
 k-point 20 :   0.3333 0.2500 0.0000  plane waves:     857
 k-point 21 :   0.4167 0.2500 0.0000  plane waves:     855
 k-point 22 :   0.5000 0.2500 0.0000  plane waves:     854
 k-point 23 :   0.3333 0.3333 0.0000  plane waves:     848
 k-point 24 :   0.4167 0.3333 0.0000  plane waves:     857
 k-point 25 :   0.5000 0.3333 0.0000  plane waves:     844
 k-point 26 :   0.4167 0.4167 0.0000  plane waves:     850
 k-point 27 :   0.5000 0.4167 0.0000  plane waves:     860
 k-point 28 :   0.5000 0.5000 0.0000  plane waves:     872
 k-point 29 :   0.0833 0.0833 0.0833  plane waves:     853
 k-point 30 :   0.1667 0.0833 0.0833  plane waves:     844
 k-point 31 :   0.2500 0.0833 0.0833  plane waves:     848
 k-point 32 :   0.3333 0.0833 0.0833  plane waves:     850
 k-point 33 :   0.4167 0.0833 0.0833  plane waves:     850
 k-point 34 :   0.5000 0.0833 0.0833  plane waves:     850
 k-point 35 :   0.1667 0.1667 0.0833  plane waves:     843
 k-point 36 :   0.2500 0.1667 0.0833  plane waves:     852
 k-point 37 :   0.3333 0.1667 0.0833  plane waves:     851
 k-point 38 :   0.4167 0.1667 0.0833  plane waves:     853
 k-point 39 :   0.5000 0.1667 0.0833  plane waves:     856
 k-point 40 :   0.2500 0.2500 0.0833  plane waves:     855
 k-point 41 :   0.3333 0.2500 0.0833  plane waves:     853
 k-point 42 :   0.4167 0.2500 0.0833  plane waves:     857
 k-point 43 :   0.5000 0.2500 0.0833  plane waves:     850
 k-point 44 :   0.3333 0.3333 0.0833  plane waves:     854
 k-point 45 :   0.4167 0.3333 0.0833  plane waves:     854
 k-point 46 :   0.5000 0.3333 0.0833  plane waves:     850
 k-point 47 :   0.4167 0.4167 0.0833  plane waves:     849
 k-point 48 :   0.5000 0.4167 0.0833  plane waves:     860
 k-point 49 :   0.5000 0.5000 0.0833  plane waves:     856
 k-point 50 :   0.1667 0.1667 0.1667  plane waves:     832
 k-point 51 :   0.2500 0.1667 0.1667  plane waves:     852
 k-point 52 :   0.3333 0.1667 0.1667  plane waves:     855
 k-point 53 :   0.4167 0.1667 0.1667  plane waves:     854
 k-point 54 :   0.5000 0.1667 0.1667  plane waves:     852
 k-point 55 :   0.2500 0.2500 0.1667  plane waves:     854
 k-point 56 :   0.3333 0.2500 0.1667  plane waves:     857
 k-point 57 :   0.4167 0.2500 0.1667  plane waves:     857
 k-point 58 :   0.5000 0.2500 0.1667  plane waves:     852
 k-point 59 :   0.3333 0.3333 0.1667  plane waves:     862
 k-point 60 :   0.4167 0.3333 0.1667  plane waves:     850
 k-point 61 :   0.5000 0.3333 0.1667  plane waves:     850
 k-point 62 :   0.4167 0.4167 0.1667  plane waves:     858
 k-point 63 :   0.5000 0.4167 0.1667  plane waves:     854
 k-point 64 :   0.5000 0.5000 0.1667  plane waves:     860
 k-point 65 :   0.2500 0.2500 0.2500  plane waves:     847
 k-point 66 :   0.3333 0.2500 0.2500  plane waves:     856
 k-point 67 :   0.4167 0.2500 0.2500  plane waves:     856
 k-point 68 :   0.5000 0.2500 0.2500  plane waves:     850
 k-point 69 :   0.3333 0.3333 0.2500  plane waves:     856
 k-point 70 :   0.4167 0.3333 0.2500  plane waves:     853
 k-point 71 :   0.5000 0.3333 0.2500  plane waves:     858
 k-point 72 :   0.4167 0.4167 0.2500  plane waves:     864
 k-point 73 :   0.5000 0.4167 0.2500  plane waves:     856
 k-point 74 :   0.5000 0.5000 0.2500  plane waves:     864
 k-point 75 :   0.3333 0.3333 0.3333  plane waves:     856
 k-point 76 :   0.4167 0.3333 0.3333  plane waves:     855
 k-point 77 :   0.5000 0.3333 0.3333  plane waves:     864
 k-point 78 :   0.4167 0.4167 0.3333  plane waves:     868
 k-point 79 :   0.5000 0.4167 0.3333  plane waves:     866
 k-point 80 :   0.5000 0.5000 0.3333  plane waves:     876
 k-point 81 :   0.4167 0.4167 0.4167  plane waves:     870
 k-point 82 :   0.5000 0.4167 0.4167  plane waves:     874
 k-point 83 :   0.5000 0.5000 0.4167  plane waves:     876
 k-point 84 :   0.5000 0.5000 0.5000  plane waves:     840

 maximum and minimum number of plane-waves per node :       233      198

 maximum number of plane-waves:       876
 maximum index in each direction: 
   IXMAX=    5   IYMAX=    5   IZMAX=    5
   IXMIN=   -6   IYMIN=   -6   IZMIN=   -6


 parallel 3D FFT for wavefunctions:
    minimum data exchange during FFTs selected (reduces bandwidth)
 parallel 3D FFT for charge:
    minimum data exchange during FFTs selected (reduces bandwidth)


 total amount of memory used by VASP MPI-rank0    33945. kBytes
=======================================================================

   base      :      30000. kBytes
   nonl-proj :       1210. kBytes
   fftplans  :        345. kBytes
   grid      :        481. kBytes
   one-center:          6. kBytes
   wavefun   :       1903. kBytes
 
     INWAV:  cpu time    0.0004: real time    0.0006
 Broyden mixing: mesh for mixing (old mesh)
   NGX = 11   NGY = 11   NGZ = 11
  (NGX  = 48   NGY  = 48   NGZ  = 48)
  gives a total of   1331 points

 initial charge density was supplied:
 charge density of overlapping atoms calculated
 number of electron      32.0000000 magnetization 
 keeping initial charge density in first step


--------------------------------------------------------------------------------------------------------


 Maximum index for augmentation-charges          277 (set IRDMAX)


--------------------------------------------------------------------------------------------------------


 First call to EWALD:  gamma=   0.491
 Maximum number of real-space cells 3x 3x 3
 Maximum number of reciprocal cells 3x 3x 3

    FEWALD:  cpu time    0.0053: real time    0.0053


--------------------------------------- Iteration      1(   1)  ---------------------------------------


    POTLOK:  cpu time    0.0274: real time    0.0380
    SETDIJ:  cpu time    0.0064: real time    0.0064
     EDDAV:  cpu time    4.5370: real time    4.5469
 BZINTS: Fermi energy: 18.101610; 32.000000 electrons
         Band energy: 114.789710;  BLOECHL correction: -0.153163
       DOS:  cpu time    0.1638: real time    0.1638
    --------------------------------------------
      LOOP:  cpu time    4.7347: real time    4.7552

 eigenvalue-minimisations  :  4040
 total energy-change (2. order) : 0.5793670E+02  (-0.1430971E+04)
 number of electron      32.0000000 magnetization 
 augmentation part       32.0000000 magnetization 

 Free energy of the ion-electron system (eV)
  ---------------------------------------------------
  alpha Z        PSCENC =       110.91077841
  Ewald energy   TEWEN  =     -1375.45817845
  -Hartree energ DENC   =       -73.61055470
  -exchange      EXHF   =         0.00000000
  -V(xc)+E(xc)   XCENC  =       113.49098717
  PAW double counting   =       302.65154477     -311.85538214
  entropy T*S    EENTRO =         0.00000000
  eigenvalues    EBANDS =       114.78971016
  atomic energy  EATOM  =      1177.01779097
  Solvation  Ediel_sol  =         0.00000000
  ---------------------------------------------------
  free energy    TOTEN  =        57.93669619 eV

  energy without entropy =       57.93669619  energy(sigma->0) =       57.93669619


--------------------------------------------------------------------------------------------------------




--------------------------------------- Iteration      1(   2)  ---------------------------------------


     EDDAV:  cpu time    5.6310: real time    5.6318
 BZINTS: Fermi energy:  8.795451; 32.000000 electrons
         Band energy: -13.925271;  BLOECHL correction:  0.000000
       DOS:  cpu time    0.0501: real time    0.0501
    --------------------------------------------
      LOOP:  cpu time    5.6812: real time    5.6819

 eigenvalue-minimisations  :  5568
 total energy-change (2. order) :-0.1287150E+03  (-0.1221123E+03)
 number of electron      32.0000000 magnetization 
 augmentation part       32.0000000 magnetization 

 Free energy of the ion-electron system (eV)
  ---------------------------------------------------
  alpha Z        PSCENC =       110.91077841
  Ewald energy   TEWEN  =     -1375.45817845
  -Hartree energ DENC   =       -73.61055470
  -exchange      EXHF   =         0.00000000
  -V(xc)+E(xc)   XCENC  =       113.49098717
  PAW double counting   =       302.65154477     -311.85538214
  entropy T*S    EENTRO =         0.00000000
  eigenvalues    EBANDS =       -13.92527127
  atomic energy  EATOM  =      1177.01779097
  Solvation  Ediel_sol  =         0.00000000
  ---------------------------------------------------
  free energy    TOTEN  =       -70.77828524 eV

  energy without entropy =      -70.77828524  energy(sigma->0) =      -70.77828524


--------------------------------------------------------------------------------------------------------




--------------------------------------- Iteration      1(   3)  ---------------------------------------


     EDDAV:  cpu time    5.4186: real time    5.4216
 BZINTS: Fermi energy:  7.954007; 32.000000 electrons
         Band energy: -18.061831;  BLOECHL correction:  0.000000
       DOS:  cpu time    0.0367: real time    0.0367
    --------------------------------------------
      LOOP:  cpu time    5.4553: real time    5.4583

 eigenvalue-minimisations  :  5208
 total energy-change (2. order) :-0.4136560E+01  (-0.4119358E+01)
 number of electron      32.0000000 magnetization 
 augmentation part       32.0000000 magnetization 

 Free energy of the ion-electron system (eV)
  ---------------------------------------------------
  alpha Z        PSCENC =       110.91077841
  Ewald energy   TEWEN  =     -1375.45817845
  -Hartree energ DENC   =       -73.61055470
  -exchange      EXHF   =         0.00000000
  -V(xc)+E(xc)   XCENC  =       113.49098717
  PAW double counting   =       302.65154477     -311.85538214
  entropy T*S    EENTRO =         0.00000000
  eigenvalues    EBANDS =       -18.06183138
  atomic energy  EATOM  =      1177.01779097
  Solvation  Ediel_sol  =         0.00000000
  ---------------------------------------------------
  free energy    TOTEN  =       -74.91484535 eV

  energy without entropy =      -74.91484535  energy(sigma->0) =      -74.91484535


--------------------------------------------------------------------------------------------------------




--------------------------------------- Iteration      1(   4)  ---------------------------------------


     EDDAV:  cpu time    5.3540: real time    5.3547
 BZINTS: Fermi energy:  7.998686; 32.000000 electrons
         Band energy: -18.104750;  BLOECHL correction:  0.000000
       DOS:  cpu time    0.0416: real time    0.0416
    --------------------------------------------
      LOOP:  cpu time    5.3956: real time    5.3963

 eigenvalue-minimisations  :  5120
 total energy-change (2. order) :-0.4291908E-01  (-0.4288214E-01)
 number of electron      32.0000000 magnetization 
 augmentation part       32.0000000 magnetization 

 Free energy of the ion-electron system (eV)
  ---------------------------------------------------
  alpha Z        PSCENC =       110.91077841
  Ewald energy   TEWEN  =     -1375.45817845
  -Hartree energ DENC   =       -73.61055470
  -exchange      EXHF   =         0.00000000
  -V(xc)+E(xc)   XCENC  =       113.49098717
  PAW double counting   =       302.65154477     -311.85538214
  entropy T*S    EENTRO =         0.00000000
  eigenvalues    EBANDS =       -18.10475046
  atomic energy  EATOM  =      1177.01779097
  Solvation  Ediel_sol  =         0.00000000
  ---------------------------------------------------
  free energy    TOTEN  =       -74.95776443 eV

  energy without entropy =      -74.95776443  energy(sigma->0) =      -74.95776443


--------------------------------------------------------------------------------------------------------




--------------------------------------- Iteration      1(   5)  ---------------------------------------


     EDDAV:  cpu time    5.3450: real time    5.3457
 BZINTS: Fermi energy:  7.988349; 32.000000 electrons
         Band energy: -18.105587;  BLOECHL correction:  0.000000
       DOS:  cpu time    0.0369: real time    0.0369
    CHARGE:  cpu time    0.1441: real time    0.1441
    MIXING:  cpu time    0.0016: real time    0.0016
    --------------------------------------------
      LOOP:  cpu time    5.5277: real time    5.5283

 eigenvalue-minimisations  :  5176
 total energy-change (2. order) :-0.8367040E-03  (-0.8360749E-03)
 number of electron      32.0000031 magnetization 
 augmentation part        0.7604604 magnetization 

 Broyden mixing:
  rms(total) = 0.91010E+00    rms(broyden)= 0.90992E+00
  rms(prec ) = 0.21347E+01
  weight for this iteration     100.00

 Free energy of the ion-electron system (eV)
  ---------------------------------------------------
  alpha Z        PSCENC =       110.91077841
  Ewald energy   TEWEN  =     -1375.45817845
  -Hartree energ DENC   =       -73.61055470
  -exchange      EXHF   =         0.00000000
  -V(xc)+E(xc)   XCENC  =       113.49098717
  PAW double counting   =       302.65154477     -311.85538214
  entropy T*S    EENTRO =         0.00000000
  eigenvalues    EBANDS =       -18.10558716
  atomic energy  EATOM  =      1177.01779097
  Solvation  Ediel_sol  =         0.00000000
  ---------------------------------------------------
  free energy    TOTEN  =       -74.95860113 eV

  energy without entropy =      -74.95860113  energy(sigma->0) =      -74.95860113


--------------------------------------------------------------------------------------------------------




--------------------------------------- Iteration      1(   6)  ---------------------------------------


    POTLOK:  cpu time    0.0240: real time    0.0244
    SETDIJ:  cpu time    0.0057: real time    0.0057
     EDDAV:  cpu time    4.9347: real time    4.9350
 BZINTS: Fermi energy:  8.616693; 32.000000 electrons
         Band energy:  -2.593807;  BLOECHL correction:  0.000000
       DOS:  cpu time    0.0371: real time    0.0613
    CHARGE:  cpu time    0.1413: real time    0.1413
    MIXING:  cpu time    0.0019: real time    0.0019
    --------------------------------------------
      LOOP:  cpu time    5.1448: real time    5.1696

 eigenvalue-minimisations  :  4600
 total energy-change (2. order) : 0.1698844E+01  (-0.1132592E+00)
 number of electron      32.0000030 magnetization 
 augmentation part        0.7437858 magnetization 

 Broyden mixing:
  rms(total) = 0.50177E+00    rms(broyden)= 0.50175E+00
  rms(prec ) = 0.11592E+01
  weight for this iteration     100.00

 eigenvalues of (default mixing * dielectric matrix)
  average eigenvalue GAMMA=   2.1793
  2.1793

 Free energy of the ion-electron system (eV)
  ---------------------------------------------------
  alpha Z        PSCENC =       110.91077841
  Ewald energy   TEWEN  =     -1375.45817845
  -Hartree energ DENC   =       -88.29830441
  -exchange      EXHF   =         0.00000000
  -V(xc)+E(xc)   XCENC  =       114.86161709
  PAW double counting   =       387.55188840     -397.25154193
  entropy T*S    EENTRO =         0.00000000
  eigenvalues    EBANDS =        -2.59380723
  atomic energy  EATOM  =      1177.01779097
  Solvation  Ediel_sol  =         0.00000000
  ---------------------------------------------------
  free energy    TOTEN  =       -73.25975715 eV

  energy without entropy =      -73.25975715  energy(sigma->0) =      -73.25975715


--------------------------------------------------------------------------------------------------------




--------------------------------------- Iteration      1(   7)  ---------------------------------------


    POTLOK:  cpu time    0.0221: real time    0.0227
    SETDIJ:  cpu time    0.0061: real time    0.0061
     EDDAV:  cpu time    5.0042: real time    5.0045
 BZINTS: Fermi energy:  9.310604; 32.000000 electrons
         Band energy:  15.454271;  BLOECHL correction:  0.000000
       DOS:  cpu time    0.0370: real time    0.0370
    CHARGE:  cpu time    0.1448: real time    0.1448
    MIXING:  cpu time    0.0023: real time    0.0023
    --------------------------------------------
      LOOP:  cpu time    5.2166: real time    5.2176

 eigenvalue-minimisations  :  4736
 total energy-change (2. order) : 0.5744823E+00  (-0.1291666E+00)
 number of electron      32.0000029 magnetization 
 augmentation part        0.7258266 magnetization 

 Broyden mixing:
  rms(total) = 0.68582E-01    rms(broyden)= 0.68255E-01
  rms(prec ) = 0.11943E+00
  weight for this iteration     100.00

 eigenvalues of (default mixing * dielectric matrix)
  average eigenvalue GAMMA=   2.2676
  2.0017  2.5336

 Free energy of the ion-electron system (eV)
  ---------------------------------------------------
  alpha Z        PSCENC =       110.91077841
  Ewald energy   TEWEN  =     -1375.45817845
  -Hartree energ DENC   =      -107.07838079
  -exchange      EXHF   =         0.00000000
  -V(xc)+E(xc)   XCENC  =       116.63711307
  PAW double counting   =       502.39187636     -512.56054499
  entropy T*S    EENTRO =         0.00000000
  eigenvalues    EBANDS =        15.45427060
  atomic energy  EATOM  =      1177.01779097
  Solvation  Ediel_sol  =         0.00000000
  ---------------------------------------------------
  free energy    TOTEN  =       -72.68527481 eV

  energy without entropy =      -72.68527481  energy(sigma->0) =      -72.68527481


--------------------------------------------------------------------------------------------------------




--------------------------------------- Iteration      1(   8)  ---------------------------------------


    POTLOK:  cpu time    0.0229: real time    0.0233
    SETDIJ:  cpu time    0.0059: real time    0.0059
     EDDAV:  cpu time    5.3435: real time    5.3438
 BZINTS: Fermi energy:  9.310921; 32.000000 electrons
         Band energy:  15.742334;  BLOECHL correction:  0.000000
       DOS:  cpu time    0.0367: real time    0.0367
    CHARGE:  cpu time    0.1462: real time    0.1462
    MIXING:  cpu time    0.0021: real time    0.0021
    --------------------------------------------
      LOOP:  cpu time    5.5572: real time    5.5580

 eigenvalue-minimisations  :  5176
 total energy-change (2. order) :-0.7032189E-02  (-0.2579495E-02)
 number of electron      32.0000029 magnetization 
 augmentation part        0.7263453 magnetization 

 Broyden mixing:
  rms(total) = 0.77859E-02    rms(broyden)= 0.76875E-02
  rms(prec ) = 0.13496E-01
  weight for this iteration     100.00

 eigenvalues of (default mixing * dielectric matrix)
  average eigenvalue GAMMA=   2.1012
  1.4539  2.6758  2.1740

 Free energy of the ion-electron system (eV)
  ---------------------------------------------------
  alpha Z        PSCENC =       110.91077841
  Ewald energy   TEWEN  =     -1375.45817845
  -Hartree energ DENC   =      -107.54626173
  -exchange      EXHF   =         0.00000000
  -V(xc)+E(xc)   XCENC  =       116.68443877
  PAW double counting   =       510.31704061     -520.36024936
  entropy T*S    EENTRO =         0.00000000
  eigenvalues    EBANDS =        15.74233377
  atomic energy  EATOM  =      1177.01779097
  Solvation  Ediel_sol  =         0.00000000
  ---------------------------------------------------
  free energy    TOTEN  =       -72.69230700 eV

  energy without entropy =      -72.69230700  energy(sigma->0) =      -72.69230700


--------------------------------------------------------------------------------------------------------




--------------------------------------- Iteration      1(   9)  ---------------------------------------


    POTLOK:  cpu time    0.0207: real time    0.0213
    SETDIJ:  cpu time    0.0060: real time    0.0060
     EDDAV:  cpu time    5.1319: real time    5.1322
 BZINTS: Fermi energy:  9.290709; 32.000000 electrons
         Band energy:  15.639283;  BLOECHL correction:  0.000000
       DOS:  cpu time    0.0368: real time    0.0368
    CHARGE:  cpu time    0.1399: real time    0.1399
    MIXING:  cpu time    0.0021: real time    0.0021
    --------------------------------------------
      LOOP:  cpu time    5.3374: real time    5.3384

 eigenvalue-minimisations  :  4832
 total energy-change (2. order) :-0.2194663E-03  (-0.4263690E-04)
 number of electron      32.0000029 magnetization 
 augmentation part        0.7262922 magnetization 

 Broyden mixing:
  rms(total) = 0.27873E-02    rms(broyden)= 0.27805E-02
  rms(prec ) = 0.49715E-02
  weight for this iteration     100.00

 eigenvalues of (default mixing * dielectric matrix)
  average eigenvalue GAMMA=   2.0562
  0.9777  2.7774  2.4749  1.9946

 Free energy of the ion-electron system (eV)
  ---------------------------------------------------
  alpha Z        PSCENC =       110.91077841
  Ewald energy   TEWEN  =     -1375.45817845
  -Hartree energ DENC   =      -107.44776541
  -exchange      EXHF   =         0.00000000
  -V(xc)+E(xc)   XCENC  =       116.67490680
  PAW double counting   =       509.54361711     -519.57295936
  entropy T*S    EENTRO =         0.00000000
  eigenvalues    EBANDS =        15.63928347
  atomic energy  EATOM  =      1177.01779097
  Solvation  Ediel_sol  =         0.00000000
  ---------------------------------------------------
  free energy    TOTEN  =       -72.69252646 eV

  energy without entropy =      -72.69252646  energy(sigma->0) =      -72.69252646


--------------------------------------------------------------------------------------------------------




--------------------------------------- Iteration      1(  10)  ---------------------------------------


    POTLOK:  cpu time    0.0241: real time    0.0247
    SETDIJ:  cpu time    0.0060: real time    0.0060
     EDDAV:  cpu time    5.3400: real time    5.3404
 BZINTS: Fermi energy:  9.389254; 32.000000 electrons
         Band energy:  15.676854;  BLOECHL correction:  0.000000
       DOS:  cpu time    0.0415: real time    0.0415
    CHARGE:  cpu time    0.1476: real time    0.1476
    MIXING:  cpu time    0.0021: real time    0.0021
    --------------------------------------------
      LOOP:  cpu time    5.5613: real time    5.5623

 eigenvalue-minimisations  :  5096
 total energy-change (2. order) :-0.5648410E-04  (-0.5064439E-05)
 number of electron      32.0000029 magnetization 
 augmentation part        0.7262665 magnetization 

 Broyden mixing:
  rms(total) = 0.25925E-03    rms(broyden)= 0.25444E-03
  rms(prec ) = 0.60737E-03
  weight for this iteration     100.00

 eigenvalues of (default mixing * dielectric matrix)
  average eigenvalue GAMMA=   1.9636
  2.9332  2.5557  2.0635  0.9902  1.2756

 Free energy of the ion-electron system (eV)
  ---------------------------------------------------
  alpha Z        PSCENC =       110.91077841
  Ewald energy   TEWEN  =     -1375.45817845
  -Hartree energ DENC   =      -107.48739735
  -exchange      EXHF   =         0.00000000
  -V(xc)+E(xc)   XCENC  =       116.67828035
  PAW double counting   =       509.03561016     -519.06632153
  entropy T*S    EENTRO =         0.00000000
  eigenvalues    EBANDS =        15.67685449
  atomic energy  EATOM  =      1177.01779097
  Solvation  Ediel_sol  =         0.00000000
  ---------------------------------------------------
  free energy    TOTEN  =       -72.69258295 eV

  energy without entropy =      -72.69258295  energy(sigma->0) =      -72.69258295


--------------------------------------------------------------------------------------------------------




--------------------------------------- Iteration      1(  11)  ---------------------------------------


    POTLOK:  cpu time    0.0206: real time    0.0211
    SETDIJ:  cpu time    0.0059: real time    0.0059
     EDDAV:  cpu time    4.4948: real time    4.4951
 BZINTS: Fermi energy:  9.372300; 32.000000 electrons
         Band energy:  15.689069;  BLOECHL correction:  0.000000
       DOS:  cpu time    0.0409: real time    0.0409
    --------------------------------------------
      LOOP:  cpu time    4.5621: real time    4.5629

 eigenvalue-minimisations  :  3768
 total energy-change (2. order) :-0.5340785E-06  (-0.1087557E-06)
 number of electron      32.0000029 magnetization 
 augmentation part        0.7262665 magnetization 

 Free energy of the ion-electron system (eV)
  ---------------------------------------------------
  alpha Z        PSCENC =       110.91077841
  Ewald energy   TEWEN  =     -1375.45817845
  -Hartree energ DENC   =      -107.50017436
  -exchange      EXHF   =         0.00000000
  -V(xc)+E(xc)   XCENC  =       116.67946467
  PAW double counting   =       509.06689549     -519.09822926
  entropy T*S    EENTRO =         0.00000000
  eigenvalues    EBANDS =        15.68906904
  atomic energy  EATOM  =      1177.01779097
  Solvation  Ediel_sol  =         0.00000000
  ---------------------------------------------------
  free energy    TOTEN  =       -72.69258348 eV

  energy without entropy =      -72.69258348  energy(sigma->0) =      -72.69258348


--------------------------------------------------------------------------------------------------------




 average (electrostatic) potential at core
  the test charge radii are     0.6991
  (the norm of the test charge is              1.0000)
       1 -45.8897       2 -45.8897       3 -45.8897       4 -45.8897       5 -45.8897
       6 -45.8897       7 -45.8897       8 -45.8897
 
 
 
 E-fermi :   9.3723     XC(G=0): -13.0461     alpha+bet :-17.0813


 k-point     1 :       0.0000    0.0000    0.0000
  band No.  band energies     occupation 
      1     -11.7586      2.00000
      2      -3.2714      2.00000
      3      -3.2714      2.00000
      4      -3.2714      2.00000
      5      -3.2714      2.00000
      6      -3.2714      2.00000
      7      -3.2714      2.00000
      8       3.1623      2.00000
      9       3.1623      2.00000
     10       3.1623      2.00000
     11       3.1623      2.00000
     12       3.1623      2.00000
     13       3.1623      2.00000
     14       9.2800      2.00000
     15       9.2800      2.00000
     16       9.2800      2.00000
     17      13.9337      0.00000
     18      13.9337      0.00000
     19      13.9337      0.00000
     20      13.9337      0.00000
     21      13.9337      0.00000
     22      13.9337      0.00000
     23      14.7676      0.00000
     24      14.7676      0.00000

 k-point     2 :       0.0833    0.0000    0.0000
  band No.  band energies     occupation 
      1     -11.6960      2.00000
      2      -4.5369      2.00000
      3      -3.2328      2.00000
      4      -3.2328      2.00000
      5      -3.2328      2.00000
      6      -3.2328      2.00000
      7      -1.9471      2.00000
      8       3.0262      2.00000
      9       3.0262      2.00000
     10       3.0262      2.00000
     11       3.0262      2.00000
     12       3.2243      2.00000
     13       3.2243      2.00000
     14       9.0223      2.00000
     15       9.0223      2.00000
     16       9.1098      2.00000
     17      13.5974      0.00000
     18      14.1901      0.00000
     19      14.1901      0.00000
     20      14.1901      0.00000
     21      14.1901      0.00000
     22      14.4179      0.00000
     23      14.7021      0.00000
     24      15.0664      0.00000

 k-point     3 :       0.1667    0.0000    0.0000
  band No.  band energies     occupation 
      1     -11.5084      2.00000
      2      -5.7280      2.00000
      3      -3.1215      2.00000
      4      -3.1215      2.00000
      5      -3.1215      2.00000
      6      -3.1215      2.00000
      7      -0.5826      2.00000
      8       2.6658      2.00000
      9       2.6658      2.00000
     10       2.6658      2.00000
     11       2.6658      2.00000
     12       3.4059      2.00000
     13       3.4059      2.00000
     14       8.3964      2.00000
     15       8.3964      2.00000
     16       8.6455      2.00000
     17      13.3933      0.00000
     18      14.5562      0.00000
     19      14.9133      0.00000
     20      14.9133      0.00000
     21      14.9133      0.00000
     22      14.9133      0.00000
     23      15.0653      0.00000
     24      15.8515      0.00000

 k-point     4 :       0.2500    0.0000    0.0000
  band No.  band energies     occupation 
      1     -11.1966      2.00000
      2      -6.8318      2.00000
      3      -2.9542      2.00000
      4      -2.9542      2.00000
      5      -2.9542      2.00000
      6      -2.9542      2.00000
      7       0.7969      2.00000
      8       2.1883      2.00000
      9       2.1883      2.00000
     10       2.1883      2.00000
     11       2.1883      2.00000
     12       3.7062      2.00000
     13       3.7062      2.00000
     14       7.6013      2.00000
     15       7.6013      2.00000
     16       7.9251      2.00000
     17      13.3081      0.00000
     18      14.3417      0.00000
     19      15.8776      0.00000
     20      15.9946      0.00000
     21      15.9946      0.00000
     22      15.9946      0.00000
     23      15.9946      0.00000
     24      16.8843      0.00000

 k-point     5 :       0.3333    0.0000    0.0000
  band No.  band energies     occupation 
      1     -10.7617      2.00000
      2      -7.8384      2.00000
      3      -2.7630      2.00000
      4      -2.7630      2.00000
      5      -2.7630      2.00000
      6      -2.7630      2.00000
      7       1.7152      2.00000
      8       1.7152      2.00000
      9       1.7152      2.00000
     10       1.7152      2.00000
     11       2.1655      2.00000
     12       4.1221      2.00000
     13       4.1221      2.00000
     14       6.7815      2.00000
     15       6.7815      2.00000
     16       7.0144      2.00000
     17      13.3232      0.00000
     18      14.0987      0.00000
     19      16.8621      0.00000
     20      17.3130      0.00000
     21      17.3130      0.00000
     22      17.3130      0.00000
     23      17.3130      0.00000
     24      18.0656      0.00000

 k-point     6 :       0.4167    0.0000    0.0000
  band No.  band energies     occupation 
      1     -10.2054      2.00000
      2      -8.7398      2.00000
      3      -2.6016      2.00000
      4      -2.6016      2.00000
      5      -2.6016      2.00000
      6      -2.6016      2.00000
      7       1.3619      2.00000
      8       1.3619      2.00000
      9       1.3619      2.00000
     10       1.3619      2.00000
     11       3.4989      2.00000
     12       4.6479      2.00000
     13       4.6479      2.00000
     14       5.9507      2.00000
     15       5.9927      2.00000
     16       5.9927      2.00000
     17      13.4301      0.00000
     18      13.8424      0.00000
     19      18.0037      0.00000
     20      18.7313      0.00000
     21      18.7313      0.00000
     22      18.7313      0.00000
     23      18.7317      0.00000
     24      19.2946      0.00000

 k-point     7 :       0.5000    0.0000    0.0000
  band No.  band energies     occupation 
      1      -9.5303      2.00000
      2      -9.5303      2.00000
      3      -2.5367      2.00000
      4      -2.5367      2.00000
      5      -2.5367      2.00000
      6      -2.5367      2.00000
      7       1.2303      2.00000
      8       1.2303      2.00000
      9       1.2303      2.00000
     10       1.2303      2.00000
     11       4.7694      2.00000
     12       4.7694      2.00000
     13       5.2756      2.00000
     14       5.2756      2.00000
     15       5.2756      2.00000
     16       5.2756      2.00000
     17      13.6086      0.00000
     18      13.6086      0.00000
     19      19.2486      0.00000
     20      19.2486      0.00000
     21      19.7340      0.00000
     22      19.7340      0.00000
     23      19.7340      0.00000
     24      19.7340      0.00000

 k-point     8 :       0.0833    0.0833    0.0000
  band No.  band energies     occupation 
      1     -11.6334      2.00000
      2      -4.4901      2.00000
      3      -4.4901      2.00000
      4      -3.2340      2.00000
      5      -3.1583      2.00000
      6      -1.9219      2.00000
      7      -1.9219      2.00000
      8       2.5595      2.00000
      9       3.0743      2.00000
     10       3.0743      2.00000
     11       3.1060      2.00000
     12       3.1060      2.00000
     13       3.2662      2.00000
     14       8.5771      2.00000
     15       8.7778      2.00000
     16       9.1976      2.00000
     17      13.8601      0.00000
     18      13.8601      0.00000
     19      14.0366      0.00000
     20      14.6656      0.00000
     21      14.6656      0.00000
     22      14.8156      0.00000
     23      14.8876      0.00000
     24      15.1308      0.00000

 k-point     9 :       0.1667    0.0833    0.0000
  band No.  band energies     occupation 
      1     -11.4460      2.00000
      2      -5.6760      2.00000
      3      -4.3525      2.00000
      4      -3.1771      2.00000
      5      -3.0072      2.00000
      6      -1.8545      2.00000
      7      -0.5807      2.00000
      8       1.9733      2.00000
      9       2.6760      2.00000
     10       2.7986      2.00000
     11       3.2341      2.00000
     12       3.2467      2.00000
     13       3.3160      2.00000
     14       7.8506      2.00000
     15       8.1634      2.00000
     16       8.9254      2.00000
     17      13.6609      0.00000
     18      14.3917      0.00000
     19      14.5981      0.00000
     20      14.8087      0.00000
     21      15.3010      0.00000
     22      15.3670      0.00000
     23      15.8137      0.00000
     24      15.8365      0.00000

 k-point    10 :       0.2500    0.0833    0.0000
  band No.  band energies     occupation 
      1     -11.1345      2.00000
      2      -6.7763      2.00000
      3      -4.1335      2.00000
      4      -3.0940      2.00000
      5      -2.7854      2.00000
      6      -1.7719      2.00000
      7       0.7592      2.00000
      8       1.3896      2.00000
      9       2.1401      2.00000
     10       2.4138      2.00000
     11       2.9790      2.00000
     12       3.5390      2.00000
     13       3.6613      2.00000
     14       7.0162      2.00000
     15       7.3867      2.00000
     16       8.3363      2.00000
     17      13.5789      0.00000
     18      14.6050      0.00000
     19      15.2004      0.00000
     20      15.6985      0.00000
     21      16.1038      0.00000
     22      16.4215      0.00000
     23      16.8745      0.00000
     24      16.8981      0.00000

 k-point    11 :       0.3333    0.0833    0.0000
  band No.  band energies     occupation 
      1     -10.6999      2.00000
      2      -7.7807      2.00000
      3      -3.8524      2.00000
      4      -3.0399      2.00000
      5      -2.5096      2.00000
      6      -1.7249      2.00000
      7       0.9306      2.00000
      8       1.5772      2.00000
      9       2.0538      2.00000
     10       2.0793      2.00000
     11       2.6092      2.00000
     12       3.9477      2.00000
     13       4.1546      2.00000
     14       6.1416      2.00000
     15       6.5770      2.00000
     16       7.5271      2.00000
     17      13.5960      0.00000
     18      14.3631      0.00000
     19      16.3480      0.00000
     20      17.0395      0.00000
     21      17.0741      0.00000
     22      17.6946      0.00000
     23      17.9894      0.00000
     24      18.0524      0.00000

 k-point    12 :       0.4167    0.0833    0.0000
  band No.  band energies     occupation 
      1     -10.1442      2.00000
      2      -8.6805      2.00000
      3      -3.5437      2.00000
      4      -3.0847      2.00000
      5      -2.2128      2.00000
      6      -1.7734      2.00000
      7       0.7063      2.00000
      8       1.0890      2.00000
      9       1.9158      2.00000
     10       2.2383      2.00000
     11       3.2515      2.00000
     12       4.4681      2.00000
     13       4.8179      2.00000
     14       5.2486      2.00000
     15       5.7994      2.00000
     16       6.5989      2.00000
     17      13.7041      0.00000
     18      14.1136      0.00000
     19      17.6918      0.00000
     20      18.1993      0.00000
     21      18.5163      0.00000
     22      18.9696      0.00000
     23      19.1511      0.00000
     24      19.2944      0.00000

 k-point    13 :       0.5000    0.0833    0.0000
  band No.  band energies     occupation 
      1      -9.4699      2.00000
      2      -9.4699      2.00000
      3      -3.2646      2.00000
      4      -3.2646      2.00000
      5      -1.9466      2.00000
      6      -1.9466      2.00000
      7       0.7706      2.00000
      8       0.7706      2.00000
      9       1.9794      2.00000
     10       1.9794      2.00000
     11       4.3078      2.00000
     12       4.3078      2.00000
     13       5.0893      2.00000
     14       5.0893      2.00000
     15       5.6551      2.00000
     16       5.6551      2.00000
     17      13.8818      0.00000
     18      13.8818      0.00000
     19      19.0043      0.00000
     20      19.0043      0.00000
     21      19.4224      0.00000
     22      19.4226      0.00000
     23      19.9618      0.00000
     24      20.1323      0.00000

 k-point    14 :       0.1667    0.1667    0.0000
  band No.  band energies     occupation 
      1     -11.2591      2.00000
      2      -5.5217      2.00000
      3      -5.5217      2.00000
      4      -3.2045      2.00000
      5      -2.8200      2.00000
      6      -0.5872      2.00000
      7      -0.5872      2.00000
      8       1.2799      2.00000
      9       2.8215      2.00000
     10       2.8215      2.00000
     11       3.0928      2.00000
     12       3.0928      2.00000
     13       3.5730      2.00000
     14       7.0592      2.00000
     15       7.5812      2.00000
     16       8.9467      2.00000
     17      14.3400      0.00000
     18      14.4099      0.00000
     19      14.4099      0.00000
     20      15.2554      0.00000
     21      15.9748      0.00000
     22      15.9748      0.00000
     23      16.0160      0.00000
     24      16.3365      0.00000

 k-point    15 :       0.2500    0.1667    0.0000
  band No.  band energies     occupation 
      1     -10.9483      2.00000
      2      -6.6112      2.00000
      3      -5.2709      2.00000
      4      -3.2595      2.00000
      5      -2.5573      2.00000
      6      -0.6429      2.00000
      7       0.6297      2.00000
      8       0.7095      2.00000
      9       2.2445      2.00000
     10       2.8484      2.00000
     11       3.0940      2.00000
     12       3.5690      2.00000
     13       3.6393      2.00000
     14       6.2029      2.00000
     15       6.8358      2.00000
     16       8.6034      2.00000
     17      14.3339      0.00000
     18      14.7869      0.00000
     19      15.2583      0.00000
     20      15.5199      0.00000
     21      16.7458      0.00000
     22      16.8620      0.00000
     23      16.9654      0.00000
     24      16.9859      0.00000

 k-point    16 :       0.3333    0.1667    0.0000
  band No.  band energies     occupation 
      1     -10.5149      2.00000
      2      -7.6083      2.00000
      3      -4.9349      2.00000
      4      -3.4144      2.00000
      5      -2.2269      2.00000
      6      -0.7994      2.00000
      7       0.3792      2.00000
      8       1.6262      2.00000
      9       1.7377      2.00000
     10       2.7069      2.00000
     11       3.4853      2.00000
     12       3.4855      2.00000
     13       4.2523      2.00000
     14       5.3317      2.00000
     15       6.0491      2.00000
     16       7.9479      2.00000
     17      14.3523      0.00000
     18      15.0685      0.00000
     19      15.6663      0.00000
     20      16.8693      0.00000
     21      17.6760      0.00000
     22      17.8011      0.00000
     23      18.0143      0.00000
     24      18.1852      0.00000

 k-point    17 :       0.4167    0.1667    0.0000
  band No.  band energies     occupation 
      1      -9.9609      2.00000
      2      -8.5032      2.00000
      3      -4.5346      2.00000
      4      -3.7086      2.00000
      5      -1.8460      2.00000
      6      -1.0783      2.00000
      7       0.3532      2.00000
      8       1.0546      2.00000
      9       2.7174      2.00000
     10       2.7407      2.00000
     11       3.2148      2.00000
     12       3.9892      2.00000
     13       4.4672      2.00000
     14       5.1267      2.00000
     15       5.2887      2.00000
     16       7.0799      2.00000
     17      14.4567      0.00000
     18      14.8392      0.00000
     19      16.8544      0.00000
     20      18.3610      0.00000
     21      18.7543      0.00000
     22      18.7582      0.00000
     23      19.0484      0.00000
     24      19.2599      0.00000

 k-point    18 :       0.5000    0.1667    0.0000
  band No.  band energies     occupation 
      1      -9.2891      2.00000
      2      -9.2891      2.00000
      3      -4.1061      2.00000
      4      -4.1061      2.00000
      5      -1.4468      2.00000
      6      -1.4468      2.00000
      7       0.6033      2.00000
      8       0.6033      2.00000
      9       2.9322      2.00000
     10       2.9322      2.00000
     11       3.6072      2.00000
[...]

 k-point    72 :       0.4167    0.4167    0.2500
  band No.  band energies     occupation 
      1      -8.1745      2.00000
      2      -6.8328      2.00000
      3      -6.8328      2.00000
      4      -5.7746      2.00000
      5      -2.9358      2.00000
      6      -1.9106      2.00000
      7      -1.9106      2.00000
      8      -0.6134      2.00000
      9       3.9230      2.00000
     10       4.6759      2.00000
     11       4.6759      2.00000
     12       5.7557      2.00000
     13       5.7850      2.00000
     14       5.9544      2.00000
     15       5.9544      2.00000
     16       6.9980      2.00000
     17      16.6388      0.00000
     18      17.1705      0.00000
     19      17.1705      0.00000
     20      17.4927      0.00000
     21      17.6105      0.00000
     22      18.0869      0.00000
     23      18.0869      0.00000
     24      18.1719      0.00000

 k-point    73 :       0.5000    0.4167    0.2500
  band No.  band energies     occupation 
      1      -7.5465      2.00000
      2      -7.5465      2.00000
      3      -6.2971      2.00000
      4      -6.2971      2.00000
      5      -2.5318      2.00000
      6      -2.5318      2.00000
      7      -1.3239      2.00000
      8      -1.3239      2.00000
      9       4.3178      2.00000
     10       4.3178      2.00000
     11       5.2447      2.00000
     12       5.2447      2.00000
     13       5.9958      2.00000
     14       5.9958      2.00000
     15       6.5997      2.00000
     16       6.5997      2.00000
     17      17.1417      0.00000
     18      17.1417      0.00000
     19      17.4229      0.00000
     20      17.4229      0.00000
     21      17.7421      0.00000
     22      17.7421      0.00000
     23      18.3607      0.00000
     24      18.3608      0.00000

 k-point    74 :       0.5000    0.5000    0.2500
  band No.  band energies     occupation 
      1      -6.9500      2.00000
      2      -6.9500      2.00000
      3      -6.9500      2.00000
      4      -6.9500      2.00000
      5      -2.0040      2.00000
      6      -2.0040      2.00000
      7      -2.0040      2.00000
      8      -2.0040      2.00000
      9       4.7980      2.00000
     10       4.7980      2.00000
     11       4.7980      2.00000
     12       4.7980      2.00000
     13       6.4409      2.00000
     14       6.4409      2.00000
     15       6.4409      2.00000
     16       6.4409      2.00000
     17      17.2701      0.00000
     18      17.2701      0.00000
     19      17.2701      0.00000
     20      17.2701      0.00000
     21      18.2389      0.00000
     22      18.2389      0.00000
     23      18.2389      0.00000
     24      18.2389      0.00000

 k-point    75 :       0.3333    0.3333    0.3333
  band No.  band energies     occupation 
      1      -8.8210      2.00000
      2      -6.1769      2.00000
      3      -6.1769      2.00000
      4      -6.1769      2.00000
      5      -2.4497      2.00000
      6      -2.4497      2.00000
      7      -2.4497      2.00000
      8       0.1131      2.00000
      9       4.3912      2.00000
     10       4.3912      2.00000
     11       4.3912      2.00000
     12       5.4203      2.00000
     13       5.4203      2.00000
     14       5.4203      2.00000
     15       7.0180      2.00000
     16       7.0180      2.00000
     17      16.2154      0.00000
     18      16.2154      0.00000
     19      16.2154      0.00000
     20      17.3788      0.00000
     21      17.3788      0.00000
     22      17.4060      0.00000
     23      19.7413      0.00000
     24      19.7419      0.00000

 k-point    76 :       0.4167    0.3333    0.3333
  band No.  band energies     occupation 
      1      -8.2933      2.00000
      2      -6.9464      2.00000
      3      -5.8802      2.00000
      4      -5.8802      2.00000
      5      -3.0523      2.00000
      6      -3.0523      2.00000
      7      -2.0161      2.00000
      8      -0.7095      2.00000
      9       4.5995      2.00000
     10       4.5995      2.00000
     11       5.4726      2.00000
     12       5.6351      2.00000
     13       5.6351      2.00000
     14       5.7780      2.00000
     15       6.6043      2.00000
     16       6.8813      2.00000
     17      16.5480      0.00000
     18      16.7398      0.00000
     19      16.7398      0.00000
     20      17.1548      0.00000
     21      17.6691      0.00000
     22      17.8137      0.00000
     23      18.7480      0.00000
     24      18.7484      0.00000

 k-point    77 :       0.5000    0.3333    0.3333
  band No.  band energies     occupation 
      1      -7.6632      2.00000
      2      -7.6632      2.00000
      3      -5.7427      2.00000
      4      -5.7427      2.00000
      5      -3.2928      2.00000
      6      -3.2928      2.00000
      7      -1.4262      2.00000
      8      -1.4262      2.00000
      9       4.6698      2.00000
     10       4.6698      2.00000
     11       5.7039      2.00000
     12       5.7039      2.00000
     13       6.1793      2.00000
     14       6.1793      2.00000
     15       6.3376      2.00000
     16       6.3376      2.00000
     17      16.8702      0.00000
     18      16.8702      0.00000
     19      17.3367      0.00000
     20      17.3367      0.00000
     21      17.9530      0.00000
     22      17.9534      0.00000
     23      18.2524      0.00000
     24      18.2605      0.00000

 k-point    78 :       0.4167    0.4167    0.3333
  band No.  band energies     occupation 
      1      -7.7816      2.00000
      2      -6.5211      2.00000
      3      -6.5211      2.00000
      4      -5.8532      2.00000
      5      -3.4022      2.00000
      6      -2.7492      2.00000
      7      -2.7492      2.00000
      8      -1.5224      2.00000
      9       5.0098      2.00000
     10       5.4647      2.00000
     11       5.4647      2.00000
     12       5.9829      2.00000
     13       6.0519      2.00000
     14       6.0519      2.00000
     15       6.3953      2.00000
     16       6.8515      2.00000
     17      16.8936      0.00000
     18      17.0359      0.00000
     19      17.0359      0.00000
     20      17.4522      0.00000
     21      17.6092      0.00000
     22      17.7233      0.00000
     23      18.1717      0.00000
     24      18.1718      0.00000

 k-point    79 :       0.5000    0.4167    0.3333
  band No.  band energies     occupation 
      1      -7.1801      2.00000
      2      -7.1801      2.00000
      3      -6.1057      2.00000
      4      -6.1057      2.00000
      5      -3.2629      2.00000
      6      -3.2629      2.00000
      7      -2.2144      2.00000
      8      -2.2144      2.00000
      9       5.2873      2.00000
     10       5.2873      2.00000
     11       6.0105      2.00000
     12       6.0105      2.00000
     13       6.1463      2.00000
     14       6.1463      2.00000
     15       6.5530      2.00000
     16       6.5530      2.00000
     17      17.3135      0.00000
     18      17.3135      0.00000
     19      17.3267      0.00000
     20      17.3267      0.00000
     21      17.7726      0.00000
     22      17.7726      0.00000
     23      17.9217      0.00000
     24      17.9219      0.00000

 k-point    80 :       0.5000    0.5000    0.3333
  band No.  band energies     occupation 
      1      -6.6364      2.00000
      2      -6.6364      2.00000
      3      -6.6364      2.00000
      4      -6.6364      2.00000
      5      -2.8526      2.00000
      6      -2.8526      2.00000
      7      -2.8526      2.00000
      8      -2.8526      2.00000
      9       5.7001      2.00000
     10       5.7001      2.00000
     11       5.7001      2.00000
     12       5.7001      2.00000
     13       6.4918      2.00000
     14       6.4918      2.00000
     15       6.4918      2.00000
     16       6.4918      2.00000
     17      17.4159      0.00000
     18      17.4159      0.00000
     19      17.4159      0.00000
     20      17.4159      0.00000
     21      17.8916      0.00000
     22      17.8916      0.00000
     23      17.8917      0.00000
     24      17.8918      0.00000

 k-point    81 :       0.4167    0.4167    0.4167
  band No.  band energies     occupation 
      1      -7.2965      2.00000
      2      -6.2168      2.00000
      3      -6.2168      2.00000
      4      -6.2168      2.00000
      5      -3.3748      2.00000
      6      -3.3748      2.00000
      7      -3.3748      2.00000
      8      -2.3191      2.00000
      9       5.9028      2.00000
     10       5.9028      2.00000
     11       5.9028      2.00000
     12       6.2084      2.00000
     13       6.2084      2.00000
     14       6.2084      2.00000
     15       6.6678      2.00000
     16       6.6678      2.00000
     17      17.1546      0.00000
     18      17.1546      0.00000
     19      17.1546      0.00000
     20      17.5424      0.00000
     21      17.5424      0.00000
     22      17.5648      0.00000
     23      18.1780      0.00000
     24      18.1784      0.00000

 k-point    82 :       0.5000    0.4167    0.4167
  band No.  band energies     occupation 
      1      -6.7502      2.00000
      2      -6.7502      2.00000
      3      -6.0748      2.00000
      4      -6.0748      2.00000
      5      -3.6247      2.00000
      6      -3.6247      2.00000
      7      -2.9620      2.00000
      8      -2.9620      2.00000
      9       5.9909      2.00000
     10       5.9909      2.00000
     11       6.3308      2.00000
     12       6.3308      2.00000
     13       6.4420      2.00000
     14       6.4420      2.00000
     15       6.4878      2.00000
     16       6.4878      2.00000
     17      17.3838      0.00000
     18      17.3838      0.00000
     19      17.4670      0.00000
     20      17.4675      0.00000
     21      17.6814      0.00000
     22      17.6822      0.00000
     23      17.7765      0.00000
     24      17.7798      0.00000

 k-point    83 :       0.5000    0.5000    0.4167
  band No.  band energies     occupation 
      1      -6.3295      2.00000
      2      -6.3295      2.00000
      3      -6.3295      2.00000
      4      -6.3295      2.00000
      5      -3.4851      2.00000
      6      -3.4851      2.00000
      7      -3.4851      2.00000
      8      -3.4851      2.00000
      9       6.3202      2.00000
     10       6.3202      2.00000
     11       6.3202      2.00000
     12       6.3202      2.00000
     13       6.5299      2.00000
     14       6.5299      2.00000
     15       6.5299      2.00000
     16       6.5299      2.00000
     17      17.5326      0.00000
     18      17.5327      0.00000
     19      17.5328      0.00000
     20      17.5331      0.00000
     21      17.6534      0.00000
     22      17.6537      0.00000
     23      17.6544      0.00000
     24      17.6610      0.00000

 k-point    84 :       0.5000    0.5000    0.5000
  band No.  band energies     occupation 
      1      -6.1859      2.00000
      2      -6.1859      2.00000
      3      -6.1859      2.00000
      4      -6.1859      2.00000
      5      -3.7378      2.00000
      6      -3.7378      2.00000
      7      -3.7378      2.00000
      8      -3.7378      2.00000
      9       6.5505      2.00000
     10       6.5505      2.00000
     11       6.5505      2.00000
     12       6.5505      2.00000
     13       6.5505      2.00000
     14       6.5505      2.00000
     15       6.5505      2.00000
     16       6.5505      2.00000
     17      17.5707      0.00000
     18      17.5707      0.00000
     19      17.5707      0.00000
     20      17.5707      0.00000
     21      17.5793      0.00000
     22      17.5801      0.00000
     23      17.5868      0.00000
     24      17.6022      0.00000


--------------------------------------------------------------------------------------------------------


 soft charge-density along one line, spin component           1
         0         1         2         3         4         5         6         7         8         9
 total charge-density along one line
 
 pseudopotential strength for first ion, spin component:           1
  9.467  -0.004   0.000   0.000   0.000  -0.000  -0.000  -0.000
 -0.004  -0.002  -0.000  -0.000  -0.000  -0.000  -0.000  -0.000
  0.000  -0.000  -3.688   0.000  -0.000  -0.008   0.000  -0.000
  0.000  -0.000   0.000  -3.688   0.000   0.000  -0.008   0.000
  0.000  -0.000  -0.000   0.000  -3.688  -0.000   0.000  -0.008
 -0.000  -0.000  -0.008   0.000  -0.000  -0.758   0.000  -0.000
 -0.000  -0.000   0.000  -0.008   0.000   0.000  -0.758   0.000
 -0.000  -0.000  -0.000   0.000  -0.008  -0.000   0.000  -0.758
 total augmentation occupancy for first ion, spin component:           1
  1.420  -0.988   0.000   0.000   0.000   0.000   0.000   0.000
 -0.988   0.961  -0.000  -0.000  -0.000   0.000   0.000   0.000
  0.000   0.000   1.079   0.000   0.000   0.179  -0.000   0.000
  0.000  -0.000   0.000   1.079  -0.000  -0.000   0.179   0.000
 -0.000  -0.000   0.000   0.000   1.079  -0.000  -0.000   0.179
 -0.000   0.000   0.179   0.000  -0.000   0.035  -0.000  -0.000
 -0.000   0.000  -0.000   0.179  -0.000   0.000   0.035   0.000
  0.000   0.000   0.000   0.000   0.179   0.000  -0.000   0.035


------------------------ aborting loop because EDIFF is reached ----------------------------------------


    CHARGE:  cpu time    0.1539: real time    0.1539
    FORLOC:  cpu time    0.0020: real time    0.0020
    FORNL :  cpu time    0.2300: real time    0.2301
    STRESS:  cpu time    0.5153: real time    0.5155
    FORHAR:  cpu time    0.0073: real time    0.0073
    MIXING:  cpu time    0.0020: real time    0.0020
    OFIELD:  cpu time    0.0001: real time    0.0001

  FORCE on cell =-STRESS in cart. coord.  units (eV):
  Direction    XX          YY          ZZ          XY          YZ          ZX
  --------------------------------------------------------------------------------------
  Alpha Z   110.91078   110.91078   110.91078
  Ewald    -458.48684  -458.48684  -458.48684     0.00000     0.00000     0.00000
  Hartree    35.83262    35.83262    35.83262    -0.00000    -0.00000    -0.00000
  E(xc)    -118.74896  -118.74896  -118.74896    -0.00000     0.00000     0.00000
  Local     -49.11941   -49.11941   -49.11941    -0.00000    -0.00000     0.00000
  n-local   -26.59694   -27.40569   -26.71084     0.68371     0.84047     0.40093
  augment    -2.71031    -2.71031    -2.71031    -0.00000    -0.00000    -0.00000
  Kinetic   493.61004   509.34866   510.18062    -4.64674    -6.49424    -3.24005
  Fock        0.00000     0.00000     0.00000     0.00000     0.00000     0.00000
  -------------------------------------------------------------------------------------
  Total      -4.84685    -4.84685    -4.84685    -0.00000    -0.00000     0.00000
  in kB    -165.16261  -165.16261  -165.16261    -0.00000    -0.00000     0.00000
  external pressure =     -165.16 kB  Pullay stress =        0.00 kB


 VOLUME and BASIS-vectors are now :
 -----------------------------------------------------------------------------
  energy-cutoff  :      400.00
  volume of cell :       47.02
      direct lattice vectors                 reciprocal lattice vectors
     3.609270000  0.000000000  0.000000000     0.277064337  0.000000000  0.000000000
     0.000000000  3.609270000  0.000000000     0.000000000  0.277064337  0.000000000
     0.000000000  0.000000000  3.609270000     0.000000000  0.000000000  0.277064337

  length of vectors
     3.609270000  3.609270000  3.609270000     0.277064337  0.277064337  0.277064337


 FORCES acting on ions
    electron-ion (+dipol)            ewald-force                    non-local-force                 convergence-correction
 -----------------------------------------------------------------------------------------------
   0.472E-13 -.151E-12 0.171E-13   0.284E-13 0.000E+00 0.711E-14   0.164E-16 -.476E-16 -.146E-16   -.423E-14 -.352E-14 0.783E-14
   -.236E-13 -.173E-14 0.301E-13   0.188E-13 0.599E-14 0.711E-14   0.920E-17 0.128E-16 -.118E-17   -.282E-14 0.140E-14 0.455E-14
   0.394E-13 -.170E-12 0.352E-13   0.000E+00 -.213E-13 -.213E-13   -.133E-16 -.338E-16 -.133E-16   -.468E-14 -.298E-14 0.963E-14
   -.236E-13 0.223E-13 0.521E-14   -.861E-14 -.142E-13 -.219E-13   0.113E-16 0.434E-16 0.449E-17   -.155E-14 0.303E-14 0.724E-14
   0.472E-13 0.208E-12 0.399E-12   -.711E-14 0.142E-13 0.213E-13   0.823E-18 -.210E-16 0.119E-17   -.796E-14 -.222E-14 0.946E-14
   0.787E-14 -.143E-14 -.401E-12   -.259E-16 0.185E-13 0.207E-13   -.962E-17 0.424E-16 0.186E-16   -.104E-13 0.105E-14 0.710E-14
   0.472E-13 -.193E-12 -.254E-15   -.284E-13 -.711E-14 -.711E-14   -.571E-17 -.432E-16 -.476E-17   -.829E-14 -.352E-14 0.823E-14
   0.787E-14 0.374E-12 0.314E-13   -.213E-13 -.259E-16 -.718E-14   0.269E-17 0.270E-16 0.129E-16   -.113E-13 0.294E-14 0.351E-14
 -----------------------------------------------------------------------------------------------
   0.150E-12 0.869E-13 0.116E-12   -.183E-13 -.397E-14 -.120E-14   0.118E-16 -.200E-16 0.340E-17   -.512E-13 -.384E-14 0.576E-13
 
 
 POSITION                                       TOTAL-FORCE (eV/Angst)
 -----------------------------------------------------------------------------------
      0.90232      2.70695      0.90232        -0.000000      0.000000      0.000000
      0.00000      0.00000      1.80463         0.000000      0.000000      0.000000
      0.90232      0.90232      2.70695        -0.000000     -0.000000     -0.000000
      0.00000      1.80463      0.00000         0.000000     -0.000000      0.000000
      2.70695      2.70695      2.70695        -0.000000     -0.000000     -0.000000
      1.80463      0.00000      0.00000         0.000000     -0.000000     -0.000000
      2.70695      0.90232      0.90232        -0.000000      0.000000     -0.000000
      1.80463      1.80463      1.80463         0.000000      0.000000      0.000000
 -----------------------------------------------------------------------------------
    total drift:                                0.000000      0.000000      0.000000


--------------------------------------------------------------------------------------------------------



  FREE ENERGIE OF THE ION-ELECTRON SYSTEM (eV)
  ---------------------------------------------------
  free  energy   TOTEN  =       -72.69258348 eV

  energy  without entropy=      -72.69258348  energy(sigma->0) =      -72.69258348
 


--------------------------------------------------------------------------------------------------------


    POTLOK:  cpu time    0.0281: real time    0.0281


--------------------------------------------------------------------------------------------------------


     LOOP+:  cpu time   59.1692: real time   59.2313
    4ORBIT:  cpu time    0.0000: real time    0.0000
 BZINTS: Fermi energy:  9.372300; 32.000000 electrons
         Band energy:  15.689069;  BLOECHL correction:  0.000000

 total amount of memory used by VASP MPI-rank0    33945. kBytes
=======================================================================

   base      :      30000. kBytes
   nonl-proj :       1210. kBytes
   fftplans  :        345. kBytes
   grid      :        481. kBytes
   one-center:          6. kBytes
   wavefun   :       1903. kBytes
 
  
  
 General timing and accounting informations for this job:
 ========================================================
  
                  Total CPU time used (sec):       61.644
                            User time (sec):       59.620
                          System time (sec):        2.024
                         Elapsed time (sec):       62.275
  
                   Maximum memory used (kb):      187560.
                   Average memory used (kb):           0.
  
                          Minor page faults:        36892
                          Major page faults:           36
                 Voluntary context switches:          789
