  64  64   0   0
  0.5899202E+01  0.7251443E-09  0.7251443E-09  0.7179999E-09  0.5000000E-15
  1.000000000000000E-004
  CAR 
 unknown system                          
     22.30793397    -13.38464426  301      9.58501702      1.00000000
    -13.385  0.0000E+00  0.0000E+00
    -13.266  0.0000E+00  0.0000E+00
    -13.147  0.0000E+00  0.0000E+00
    -13.028  0.0000E+00  0.0000E+00
    -12.909  0.0000E+00  0.0000E+00
    -12.790  0.0000E+00  0.0000E+00
    -12.671  0.0000E+00  0.0000E+00
    -12.552  0.0000E+00  0.0000E+00
    -12.433  0.0000E+00  0.0000E+00
    -12.314  0.0000E+00  0.0000E+00
    -12.195  0.0000E+00  0.0000E+00
    -12.076  0.5582E-14  0.6641E-15
    -11.957  0.1738E-06  0.2068E-07
    -11.838  0.3158E-02  0.3757E-03
    -11.719  0.2405E+00  0.2899E-01
    -11.600  0.1237E+01  0.1762E+00
    -11.481  0.1441E+01  0.3476E+00
    -11.362  0.2856E+01  0.6875E+00
    -11.243  0.1572E+01  0.8745E+00
    -11.124  0.3607E+01  0.1304E+01
    -11.005  0.2872E+01  0.1645E+01
    -10.886  0.3946E+01  0.2115E+01
    -10.767  0.2293E+01  0.2388E+01
    -10.648  0.4788E+01  0.2957E+01
    -10.529  0.4368E+01  0.3477E+01
    -10.410  0.5073E+01  0.4081E+01
    -10.291  0.2352E+01  0.4361E+01
    -10.172  0.4989E+01  0.4954E+01
    -10.053  0.6159E+01  0.5687E+01
     -9.934  0.5912E+01  0.6390E+01
     -9.815  0.4066E+01  0.6874E+01
     -9.696  0.4516E+01  0.7411E+01
     -9.577  0.6897E+01  0.8232E+01
     -9.458  0.5224E+01  0.8853E+01
     -9.339  0.5340E+01  0.9489E+01
     -9.221  0.7439E+01  0.1037E+02
     -9.102  0.6996E+01  0.1121E+02
     -8.983  0.6544E+01  0.1198E+02
     -8.864  0.4896E+01  0.1257E+02
     -8.745  0.4713E+01  0.1313E+02
     -8.626  0.9106E+01  0.1421E+02
     -8.507  0.8063E+01  0.1517E+02
     -8.388  0.8622E+01  0.1620E+02
     -8.269  0.6248E+01  0.1694E+02
     -8.150  0.6498E+01  0.1771E+02
     -8.031  0.7864E+01  0.1865E+02
     -7.912  0.6952E+01  0.1948E+02
     -7.793  0.8104E+01  0.2044E+02
     -7.674  0.9938E+01  0.2162E+02
     -7.555  0.1008E+02  0.2282E+02
     -7.436  0.5113E+01  0.2343E+02
     -7.317  0.9146E+01  0.2452E+02
     -7.198  0.1269E+02  0.2603E+02
     -7.079  0.8357E+01  0.2702E+02
     -6.960  0.5418E+01  0.2767E+02
     -6.841  0.9694E+01  0.2882E+02
     -6.722  0.1021E+02  0.3003E+02
     -6.603  0.1109E+02  0.3135E+02
     -6.484  0.1285E+02  0.3288E+02
     -6.365  0.1114E+02  0.3421E+02
     -6.246  0.1273E+02  0.3572E+02
     -6.127  0.1013E+02  0.3693E+02
     -6.008  0.9277E+01  0.3803E+02
     -5.889  0.1294E+02  0.3957E+02
     -5.770  0.1573E+02  0.4144E+02
     -5.651  0.1106E+02  0.4276E+02
     -5.532  0.8963E+01  0.4383E+02
     -5.413  0.1308E+02  0.4538E+02
     -5.294  0.1141E+02  0.4674E+02
     -5.175  0.1357E+02  0.4835E+02
     -5.056  0.6157E+01  0.4908E+02
     -4.937  0.1172E+02  0.5048E+02
     -4.818  0.9829E+01  0.5165E+02
     -4.699  0.6533E+01  0.5243E+02
     -4.580  0.7566E+01  0.5333E+02
     -4.461  0.1311E+02  0.5489E+02
     -4.343  0.6262E+01  0.5563E+02
     -4.224  0.5488E+01  0.5628E+02
     -4.105  0.1262E+02  0.5779E+02
     -3.986  0.8642E+01  0.5881E+02
     -3.867  0.1052E+02  0.6007E+02
     -3.748  0.3470E+01  0.6048E+02
     -3.629  0.5319E+01  0.6111E+02
     -3.510  0.6354E+01  0.6187E+02
     -3.391  0.5823E+01  0.6256E+02
     -3.272  0.1015E+02  0.6377E+02
     -3.153  0.8738E+01  0.6481E+02
     -3.034  0.1082E+02  0.6610E+02
     -2.915  0.1022E+02  0.6731E+02
     -2.796  0.1006E+02  0.6851E+02
     -2.677  0.7370E+01  0.6938E+02
     -2.558  0.9390E+01  0.7050E+02
     -2.439  0.1207E+02  0.7194E+02
     -2.320  0.9584E+01  0.7308E+02
     -2.201  0.1177E+02  0.7448E+02
     -2.082  0.1215E+02  0.7592E+02
     -1.963  0.2856E+02  0.7932E+02
     -1.844  0.3056E+02  0.8296E+02
     -1.725  0.1918E+02  0.8524E+02
     -1.606  0.1344E+02  0.8684E+02
     -1.487  0.1325E+02  0.8841E+02
     -1.368  0.1153E+02  0.8979E+02
     -1.249  0.6280E+01  0.9053E+02
     -1.130  0.1260E+02  0.9203E+02
     -1.011  0.1374E+02  0.9367E+02
     -0.892  0.8490E+01  0.9468E+02
     -0.773  0.9223E+01  0.9577E+02
     -0.654  0.1308E+02  0.9733E+02
     -0.535  0.1558E+02  0.9918E+02
     -0.416  0.1210E+02  0.1006E+03
     -0.297  0.5866E+01  0.1013E+03
     -0.178  0.3819E+01  0.1018E+03
     -0.059  0.2535E+01  0.1021E+03
      0.060  0.1297E+02  0.1036E+03
      0.179  0.1344E+02  0.1052E+03
      0.298  0.6926E+01  0.1060E+03
      0.416  0.1136E+02  0.1074E+03
      0.535  0.7404E+01  0.1083E+03
      0.654  0.1714E+02  0.1103E+03
      0.773  0.2580E+02  0.1134E+03
      0.892  0.1876E+02  0.1156E+03
      1.011  0.1253E+02  0.1171E+03
      1.130  0.1232E+02  0.1186E+03
      1.249  0.1441E+02  0.1203E+03
      1.368  0.1547E+02  0.1221E+03
      1.487  0.2179E+02  0.1247E+03
      1.606  0.2495E+02  0.1277E+03
      1.725  0.1319E+02  0.1293E+03
      1.844  0.9158E+01  0.1303E+03
      1.963  0.1716E+02  0.1324E+03
      2.082  0.2318E+02  0.1351E+03
      2.201  0.2268E+02  0.1378E+03
      2.320  0.1736E+02  0.1399E+03
      2.439  0.1414E+02  0.1416E+03
      2.558  0.1613E+02  0.1435E+03
      2.677  0.2211E+02  0.1461E+03
      2.796  0.2003E+02  0.1485E+03
      2.915  0.2275E+02  0.1512E+03
      3.034  0.2652E+02  0.1544E+03
      3.153  0.2992E+02  0.1579E+03
      3.272  0.2284E+02  0.1607E+03
      3.391  0.1925E+02  0.1630E+03
      3.510  0.1793E+02  0.1651E+03
      3.629  0.2966E+02  0.1686E+03
      3.748  0.3000E+02  0.1722E+03
      3.867  0.3827E+02  0.1767E+03
      3.986  0.1988E+02  0.1791E+03
      4.105  0.1566E+02  0.1810E+03
      4.224  0.2590E+02  0.1841E+03
      4.343  0.2496E+02  0.1870E+03
      4.462  0.2054E+02  0.1895E+03
      4.581  0.2369E+02  0.1923E+03
      4.700  0.3096E+02  0.1960E+03
      4.819  0.2460E+02  0.1989E+03
      4.938  0.1869E+02  0.2011E+03
      5.057  0.2367E+02  0.2039E+03
      5.175  0.2106E+02  0.2064E+03
      5.294  0.2399E+02  0.2093E+03
      5.413  0.2485E+02  0.2123E+03
      5.532  0.1513E+02  0.2141E+03
      5.651  0.2351E+02  0.2168E+03
      5.770  0.2376E+02  0.2197E+03
      5.889  0.2420E+02  0.2226E+03
      6.008  0.2416E+02  0.2254E+03
      6.127  0.2009E+02  0.2278E+03
      6.246  0.1457E+02  0.2296E+03
      6.365  0.1607E+02  0.2315E+03
      6.484  0.2401E+02  0.2343E+03
      6.603  0.2713E+02  0.2375E+03
      6.722  0.1602E+02  0.2395E+03
      6.841  0.7830E+01  0.2404E+03
      6.960  0.1207E+02  0.2418E+03
      7.079  0.1320E+02  0.2434E+03
      7.198  0.1015E+02  0.2446E+03
      7.317  0.1355E+02  0.2462E+03
      7.436  0.9957E+01  0.2474E+03
      7.555  0.7625E+01  0.2483E+03
      7.674  0.7678E+01  0.2492E+03
      7.793  0.6927E+01  0.2500E+03
      7.912  0.7716E+01  0.2510E+03
      8.031  0.7075E+01  0.2518E+03
      8.150  0.5311E+01  0.2524E+03
      8.269  0.4171E+01  0.2529E+03
      8.388  0.6701E+01  0.2537E+03
      8.507  0.4873E+01  0.2543E+03
      8.626  0.2785E+01  0.2546E+03
      8.745  0.2554E+01  0.2549E+03
      8.864  0.3499E+01  0.2554E+03
      8.983  0.3152E+01  0.2557E+03
      9.102  0.1084E+01  0.2559E+03
      9.221  0.9515E+00  0.2560E+03
      9.340  0.1764E+00  0.2560E+03
      9.459  0.2684E-01  0.2560E+03
      9.578  0.5286E-04  0.2560E+03
      9.697  0.7326E-10  0.2560E+03
      9.816  0.0000E+00  0.2560E+03
      9.935  0.0000E+00  0.2560E+03
     10.053  0.0000E+00  0.2560E+03
     10.172  0.0000E+00  0.2560E+03
     10.291  0.0000E+00  0.2560E+03
     10.410  0.0000E+00  0.2560E+03
     10.529  0.0000E+00  0.2560E+03
     10.648  0.0000E+00  0.2560E+03
     10.767  0.0000E+00  0.2560E+03
     10.886  0.0000E+00  0.2560E+03
     11.005  0.0000E+00  0.2560E+03
     11.124  0.0000E+00  0.2560E+03
     11.243  0.0000E+00  0.2560E+03
     11.362  0.0000E+00  0.2560E+03
     11.481  0.0000E+00  0.2560E+03
     11.600  0.0000E+00  0.2560E+03
     11.719  0.0000E+00  0.2560E+03
     11.838  0.0000E+00  0.2560E+03
     11.957  0.0000E+00  0.2560E+03
     12.076  0.0000E+00  0.2560E+03
     12.195  0.0000E+00  0.2560E+03
     12.314  0.0000E+00  0.2560E+03
     12.433  0.0000E+00  0.2560E+03
     12.552  0.0000E+00  0.2560E+03
     12.671  0.0000E+00  0.2560E+03
     12.790  0.6183E-13  0.2560E+03
     12.909  0.1110E-05  0.2560E+03
     13.028  0.1264E-01  0.2560E+03
     13.147  0.2891E+00  0.2560E+03
     13.266  0.3378E+00  0.2561E+03
     13.385  0.1573E+01  0.2563E+03
     13.504  0.2213E+01  0.2565E+03
     13.623  0.4183E+01  0.2570E+03
     13.742  0.5607E+01  0.2577E+03
     13.861  0.5223E+01  0.2583E+03
     13.980  0.6105E+01  0.2590E+03
     14.099  0.4130E+01  0.2595E+03
     14.218  0.1034E+02  0.2608E+03
     14.337  0.8000E+01  0.2617E+03
     14.456  0.1859E+02  0.2639E+03
     14.575  0.9638E+01  0.2651E+03
     14.694  0.1185E+02  0.2665E+03
     14.812  0.1135E+02  0.2678E+03
     14.931  0.1380E+02  0.2695E+03
     15.050  0.1456E+02  0.2712E+03
     15.169  0.1480E+02  0.2730E+03
     15.288  0.1928E+02  0.2753E+03
     15.407  0.1882E+02  0.2775E+03
     15.526  0.1835E+02  0.2797E+03
     15.645  0.1570E+02  0.2815E+03
     15.764  0.1806E+02  0.2837E+03
     15.883  0.2173E+02  0.2863E+03
     16.002  0.2227E+02  0.2889E+03
     16.121  0.2105E+02  0.2914E+03
     16.240  0.1787E+02  0.2936E+03
     16.359  0.2135E+02  0.2961E+03
     16.478  0.2220E+02  0.2987E+03
     16.597  0.1618E+02  0.3007E+03
     16.716  0.2703E+02  0.3039E+03
     16.835  0.3473E+02  0.3080E+03
     16.954  0.4430E+02  0.3133E+03
     17.073  0.2931E+02  0.3168E+03
     17.192  0.2797E+02  0.3201E+03
     17.311  0.2802E+02  0.3234E+03
     17.430  0.3158E+02  0.3272E+03
     17.549  0.3744E+02  0.3316E+03
     17.668  0.3794E+02  0.3362E+03
     17.787  0.3742E+02  0.3406E+03
     17.906  0.3541E+02  0.3448E+03
     18.025  0.3335E+02  0.3488E+03
     18.144  0.3010E+02  0.3524E+03
     18.263  0.3403E+02  0.3564E+03
     18.382  0.2432E+02  0.3593E+03
     18.501  0.1806E+02  0.3615E+03
     18.620  0.2200E+02  0.3641E+03
     18.739  0.2608E+02  0.3672E+03
     18.858  0.3113E+02  0.3709E+03
     18.977  0.2898E+02  0.3743E+03
     19.096  0.2356E+02  0.3771E+03
     19.215  0.1685E+02  0.3791E+03
     19.334  0.1235E+02  0.3806E+03
     19.453  0.5587E+01  0.3813E+03
     19.572  0.3417E+01  0.3817E+03
     19.690  0.5834E+01  0.3824E+03
     19.809  0.4781E+01  0.3830E+03
     19.928  0.2526E+01  0.3833E+03
     20.047  0.1024E+01  0.3834E+03
     20.166  0.2254E+01  0.3836E+03
     20.285  0.5107E+00  0.3837E+03
     20.404  0.7861E+00  0.3838E+03
     20.523  0.1063E+01  0.3839E+03
     20.642  0.1905E+00  0.3839E+03
     20.761  0.4408E+00  0.3840E+03
     20.880  0.1224E-01  0.3840E+03
     20.999  0.5453E-06  0.3840E+03
     21.118  0.1497E-13  0.3840E+03
     21.237  0.0000E+00  0.3840E+03
     21.356  0.0000E+00  0.3840E+03
     21.475  0.0000E+00  0.3840E+03
     21.594  0.0000E+00  0.3840E+03
     21.713  0.0000E+00  0.3840E+03
     21.832  0.0000E+00  0.3840E+03
     21.951  0.0000E+00  0.3840E+03
     22.070  0.0000E+00  0.3840E+03
     22.189  0.0000E+00  0.3840E+03
     22.308  0.0000E+00  0.3840E+03
