       N       E                     dE             d eps       ncg     rms          rms(c)
DAV:   1     0.501360807792E+03    0.50136E+03   -0.11315E+05 15360   0.106E+03
DAV:   2    -0.557131053273E+03   -0.10585E+04   -0.10082E+04 20352   0.229E+02
DAV:   3    -0.598785156394E+03   -0.41654E+02   -0.41406E+02 20448   0.426E+01
DAV:   4    -0.599256493102E+03   -0.47134E+00   -0.47042E+00 20608   0.497E+00
DAV:   5    -0.599265882537E+03   -0.93894E-02   -0.93857E-02 19232   0.657E-01    0.256E+01
DAV:   6    -0.585839221103E+03    0.13427E+02   -0.89486E+00 18080   0.595E+00    0.141E+01
DAV:   7    -0.581299741417E+03    0.45395E+01   -0.10334E+01 18624   0.659E+00    0.193E+00
DAV:   8    -0.581356175629E+03   -0.56434E-01   -0.23448E-01 19296   0.963E-01    0.209E-01
DAV:   9    -0.581358328473E+03   -0.21528E-02   -0.36355E-03 19936   0.143E-01    0.783E-02
DAV:  10    -0.581358793703E+03   -0.46523E-03   -0.42830E-04 18656   0.543E-02    0.787E-03
DAV:  11    -0.581358798010E+03   -0.43071E-05   -0.11450E-05 20224   0.776E-03    0.206E-03
DAV:  12    -0.581358798193E+03   -0.18224E-06   -0.48136E-07 19680   0.167E-03    0.183E-04
DAV:  13    -0.581358798299E+03   -0.10607E-06   -0.67283E-09 15008   0.209E-04    0.460E-05
DAV:  14    -0.581358798313E+03   -0.14037E-07   -0.10335E-09 13536   0.755E-05    0.177E-05
DAV:  15    -0.581358798312E+03    0.48749E-09   -0.25793E-10 12192   0.363E-05
   1 F= -.58135880E+03 E0= -.58135880E+03  d E =-.596198E-12
 Linear response reoptimize wavefunctions
DAV:   1    -0.581358798313E+03   -0.54752E-09   -0.54777E-11 11488   0.174E-05
DAV:   2    -0.581358798313E+03   -0.55479E-10   -0.87205E-12 11520   0.907E-06
 Linear response DOF=           2
 Linear response progress:
  Degree of freedom:   1/  2
       N       E                     dE             d eps       ncg     rms          rms(c)
RMM:   1    -0.143462458701E+00   -0.14346E+00    0.63966E-03 86042   0.725E-01
RMM:   2    -0.122620874264E+00    0.20842E-01   -0.71871E-03 52193   0.189E-01    0.172E-01
RMM:   3    -0.122496391110E+00    0.12448E-03   -0.82666E-04 54957   0.481E-02    0.878E-02
RMM:   4    -0.122736686873E+00   -0.24030E-03   -0.22501E-04 55154   0.261E-02    0.269E-02
RMM:   5    -0.122812134202E+00   -0.75447E-04   -0.15990E-05 55858   0.744E-03    0.644E-03
RMM:   6    -0.122794955370E+00    0.17179E-04   -0.10939E-06 56642   0.193E-03    0.136E-03
RMM:   7    -0.122786342903E+00    0.86125E-05   -0.10819E-06 57630   0.642E-04    0.376E-04
RMM:   8    -0.122785773586E+00    0.56932E-06    0.83220E-09 59496   0.283E-04    0.867E-05
RMM:   9    -0.122785539716E+00    0.23387E-06   -0.64468E-08 62294   0.186E-04    0.380E-05
RMM:  10    -0.122785694176E+00   -0.15446E-06   -0.83196E-07 64509   0.177E-04    0.115E-05
RMM:  11    -0.122785686674E+00    0.75019E-08   -0.69923E-07 65157   0.173E-04    0.482E-06
 Linear response progress:
  Degree of freedom:   2/  2
       N       E                     dE             d eps       ncg     rms          rms(c)
RMM:   1    -0.143190260099E+00   -0.14319E+00    0.57693E-03 55597   0.721E-01
RMM:   2    -0.122655417189E+00    0.20535E-01   -0.70528E-03 33947   0.186E-01    0.170E-01
RMM:   3    -0.122550666860E+00    0.10475E-03   -0.79321E-04 35528   0.474E-02    0.873E-02
RMM:   4    -0.122792455710E+00   -0.24179E-03   -0.21784E-04 35748   0.259E-02    0.266E-02
RMM:   5    -0.122866288797E+00   -0.73833E-04   -0.14666E-05 36222   0.728E-03    0.641E-03
RMM:   6    -0.122848978307E+00    0.17310E-04   -0.99675E-07 36709   0.193E-03    0.134E-03
RMM:   7    -0.122840622174E+00    0.83561E-05   -0.19071E-07 37217   0.620E-04    0.375E-04
RMM:   8    -0.122840055838E+00    0.56634E-06    0.25627E-07 38211   0.275E-04    0.863E-05
RMM:   9    -0.122839843219E+00    0.21262E-06    0.13198E-07 39858   0.178E-04    0.378E-05
RMM:  10    -0.122839960582E+00   -0.11736E-06   -0.26586E-07 41131   0.169E-04    0.113E-05
RMM:  11    -0.122839951829E+00    0.87532E-08   -0.15081E-07 41525   0.165E-04    0.473E-06
 Linear response finished
