 vasp.5.4.4.18Apr17-6-g9f103f2a35 (build Mar 12 2022 03:36:41) complex          
  
 executed on IFC19.0.3.199_CrayMP date 2022.12.02  04:06:37
 running on   32 total cores
 distrk:  each k-point on   32 cores,    1 groups
 distr:  one band on NCORES_PER_BAND=   1 cores,   32 groups


--------------------------------------------------------------------------------------------------------


 INCAR:
 POTCAR:   PAW_PBE C 08Apr2002                    

 ----------------------------------------------------------------------------- 
|                                                                             |
|           W    W    AA    RRRRR   N    N  II  N    N   GGGG   !!!           |
|           W    W   A  A   R    R  NN   N  II  NN   N  G    G  !!!           |
|           W    W  A    A  R    R  N N  N  II  N N  N  G       !!!           |
|           W WW W  AAAAAA  RRRRR   N  N N  II  N  N N  G  GGG   !            |
|           WW  WW  A    A  R   R   N   NN  II  N   NN  G    G                |
|           W    W  A    A  R    R  N    N  II  N    N   GGGG   !!!           |
|                                                                             |
|      For optimal performance we recommend to set                            |
|        NCORE= 4 - approx SQRT( number of cores)                             |
|      NCORE specifies how many cores store one orbital (NPAR=cpu/NCORE).     |
|      This setting can  greatly improve the performance of VASP for DFT.     |
|      The default,   NCORE=1            might be grossly inefficient         |
|      on modern multi-core architectures or massively parallel machines.     |
|      Do your own testing !!!!                                               |
|      Unfortunately you need to use the default for GW and RPA calculations. |
|      (for HF NCORE is supported but not extensively tested yet)             |
|                                                                             |
 ----------------------------------------------------------------------------- 

 POTCAR:   PAW_PBE C 08Apr2002                    
   VRHFIN =C: s2p2                                                              
   LEXCH  = PE                                                                  
   EATOM  =   147.1560 eV,   10.8157 Ry                                         
                                                                                
   TITEL  = PAW_PBE C 08Apr2002                                                 
   LULTRA =        F    use ultrasoft PP ?                                      
   IUNSCR =        0    unscreen: 0-lin 1-nonlin 2-no                           
   RPACOR =     .000    partial core radius                                     
   POMASS =   12.011; ZVAL   =    4.000    mass and valenz                      
   RCORE  =    1.500    outmost cutoff radius                                   
   RWIGS  =    1.630; RWIGS  =     .863    wigner-seitz radius (au A)           
   ENMAX  =  400.000; ENMIN  =  300.000 eV                                      
   ICORE  =        2    local potential                                         
   LCOR   =        T    correct aug charges                                     
   LPAW   =        T    paw PP                                                  
   EAUG   =  644.873                                                            
   DEXC   =     .000                                                            
   RMAX   =    2.266    core radius for proj-oper                               
   RAUG   =    1.300    factor for augmentation sphere                          
   RDEP   =    1.501    radius for radial grids                                 
   RDEPT  =    1.300    core radius for aug-charge                              
   QCUT   =   -5.516; QGAM   =   11.032    optimization parameters              
                                                                                
   Description                                                                  
     l     E      TYP  RCUT    TYP  RCUT                                        
     0   .000     23  1.200                                                     
     0   .000     23  1.200                                                     
     1   .000     23  1.500                                                     
     1  2.500     23  1.500                                                     
     2   .000      7  1.500                                                     
  local pseudopotential read in
  atomic valenz-charges read in
  non local Contribution for L=           0  read in
    real space projection operators read in
  non local Contribution for L=           0  read in
    real space projection operators read in
  non local Contribution for L=           1  read in
    real space projection operators read in
  non local Contribution for L=           1  read in
    real space projection operators read in
    PAW grid and wavefunctions read in
 
   number of l-projection  operators is LMAX  =           4
   number of lm-projection operators is LMMAX =           8
 

 ----------------------------------------------------------------------------- 
|                                                                             |
|  ADVICE TO THIS USER RUNNING 'VASP/VAMP'   (HEAR YOUR MASTER'S VOICE ...):  |
|                                                                             |
|      You have a (more or less) 'large supercell' and for larger cells       |
|      it might be more efficient to use real space projection operators      |
|      So try LREAL= Auto  in the INCAR   file.                               |
|      Mind: If you want to do a very accurate calculations keep the          |
|      reciprocal projection scheme          (i.e. LREAL=.FALSE.)             |
|                                                                             |
 ----------------------------------------------------------------------------- 

 PAW_PBE C 08Apr2002                    :
 energy of atom  1       EATOM= -147.1560
 kinetic energy error for atom=    0.0288 (will be added to EATOM!!)
 
 
 POSCAR: generated by phonopy                    
  positions in direct lattice
  No initial velocities read in
 exchange correlation table for  LEXCH =        8
   RHO(1)=    0.500       N(1)  =     2000
   RHO(2)=  100.500       N(2)  =     4000
 


--------------------------------------------------------------------------------------------------------


 ion  position               nearest neighbor table
   1  0.125  0.375  0.125-  11 1.56  25 1.56  43 1.56  57 1.56
   2  0.625  0.375  0.125-  12 1.56  26 1.56  44 1.56  58 1.56
   3  0.125  0.875  0.125-   9 1.56  27 1.56  41 1.56  59 1.56
   4  0.625  0.875  0.125-  10 1.56  28 1.56  42 1.56  60 1.56
   5  0.125  0.375  0.625-  15 1.56  29 1.56  47 1.56  61 1.56
   6  0.625  0.375  0.625-  16 1.56  30 1.56  48 1.56  62 1.56
   7  0.125  0.875  0.625-  13 1.56  31 1.56  45 1.56  63 1.56
   8  0.625  0.875  0.625-  14 1.56  32 1.56  46 1.56  64 1.56
   9  0.000  0.000  0.250-   3 1.56  17 1.56  36 1.56  50 1.56
  10  0.500  0.000  0.250-   4 1.56  18 1.56  35 1.56  49 1.56
  11  0.000  0.500  0.250-   1 1.56  19 1.56  34 1.56  52 1.56
  12  0.500  0.500  0.250-   2 1.56  20 1.56  33 1.56  51 1.56
  13  0.000  0.000  0.750-   7 1.56  21 1.56  40 1.56  54 1.56
  14  0.500  0.000  0.750-   8 1.56  22 1.56  39 1.56  53 1.56
  15  0.000  0.500  0.750-   5 1.56  23 1.56  38 1.56  56 1.56
  16  0.500  0.500  0.750-   6 1.56  24 1.56  37 1.56  55 1.56
  17  0.125  0.125  0.375-   9 1.56  29 1.56  45 1.56  57 1.56
  18  0.625  0.125  0.375-  10 1.56  30 1.56  46 1.56  58 1.56
  19  0.125  0.625  0.375-  11 1.56  31 1.56  47 1.56  59 1.56
  20  0.625  0.625  0.375-  12 1.56  32 1.56  48 1.56  60 1.56
  21  0.125  0.125  0.875-  13 1.56  25 1.56  41 1.56  61 1.56
  22  0.625  0.125  0.875-  14 1.56  26 1.56  42 1.56  62 1.56
  23  0.125  0.625  0.875-  15 1.56  27 1.56  43 1.56  63 1.56
  24  0.625  0.625  0.875-  16 1.56  28 1.56  44 1.56  64 1.56
  25  0.000  0.250  0.000-   1 1.56  21 1.56  38 1.56  50 1.56
  26  0.500  0.250  0.000-   2 1.56  22 1.56  37 1.56  49 1.56
  27  0.000  0.750  0.000-   3 1.56  23 1.56  40 1.56  52 1.56
  28  0.500  0.750  0.000-   4 1.56  24 1.56  39 1.56  51 1.56
  29  0.000  0.250  0.500-   5 1.56  17 1.56  34 1.56  54 1.56
  30  0.500  0.250  0.500-   6 1.56  18 1.56  33 1.56  53 1.56
  31  0.000  0.750  0.500-   7 1.56  19 1.56  36 1.56  56 1.56
  32  0.500  0.750  0.500-   8 1.56  20 1.56  35 1.56  55 1.56
  33  0.375  0.375  0.375-  12 1.56  30 1.56  47 1.56  57 1.56
  34  0.875  0.375  0.375-  11 1.56  29 1.56  48 1.56  58 1.56
  35  0.375  0.875  0.375-  10 1.56  32 1.56  45 1.56  59 1.56
  36  0.875  0.875  0.375-   9 1.56  31 1.56  46 1.56  60 1.56
  37  0.375  0.375  0.875-  16 1.56  26 1.56  43 1.56  61 1.56
  38  0.875  0.375  0.875-  15 1.56  25 1.56  44 1.56  62 1.56
  39  0.375  0.875  0.875-  14 1.56  28 1.56  41 1.56  63 1.56
  40  0.875  0.875  0.875-  13 1.56  27 1.56  42 1.56  64 1.56
  41  0.250  0.000  0.000-   3 1.56  21 1.56  39 1.56  49 1.56
  42  0.750  0.000  0.000-   4 1.56  22 1.56  40 1.56  50 1.56
  43  0.250  0.500  0.000-   1 1.56  23 1.56  37 1.56  51 1.56
  44  0.750  0.500  0.000-   2 1.56  24 1.56  38 1.56  52 1.56
  45  0.250  0.000  0.500-   7 1.56  17 1.56  35 1.56  53 1.56
  46  0.750  0.000  0.500-   8 1.56  18 1.56  36 1.56  54 1.56
  47  0.250  0.500  0.500-   5 1.56  19 1.56  33 1.56  55 1.56
  48  0.750  0.500  0.500-   6 1.56  20 1.56  34 1.56  56 1.56
  49  0.375  0.125  0.125-  10 1.56  26 1.56  41 1.56  57 1.56
  50  0.875  0.125  0.125-   9 1.56  25 1.56  42 1.56  58 1.56
  51  0.375  0.625  0.125-  12 1.56  28 1.56  43 1.56  59 1.56
  52  0.875  0.625  0.125-  11 1.56  27 1.56  44 1.56  60 1.56
  53  0.375  0.125  0.625-  14 1.56  30 1.56  45 1.56  61 1.56
  54  0.875  0.125  0.625-  13 1.56  29 1.56  46 1.56  62 1.56
  55  0.375  0.625  0.625-  16 1.56  32 1.56  47 1.56  63 1.56
  56  0.875  0.625  0.625-  15 1.56  31 1.56  48 1.56  64 1.56
  57  0.250  0.250  0.250-   1 1.56  17 1.56  33 1.56  49 1.56
  58  0.750  0.250  0.250-   2 1.56  18 1.56  34 1.56  50 1.56
  59  0.250  0.750  0.250-   3 1.56  19 1.56  35 1.56  51 1.56
  60  0.750  0.750  0.250-   4 1.56  20 1.56  36 1.56  52 1.56
  61  0.250  0.250  0.750-   5 1.56  21 1.56  37 1.56  53 1.56
  62  0.750  0.250  0.750-   6 1.56  22 1.56  38 1.56  54 1.56
  63  0.250  0.750  0.750-   7 1.56  23 1.56  39 1.56  55 1.56
  64  0.750  0.750  0.750-   8 1.56  24 1.56  40 1.56  56 1.56
 
  LATTYP: Found a simple tetragonal cell.
 ALAT       =     7.2514428906
 C/A-ratio  =     0.9901475922
  
  Lattice vectors:
  
 A1 = (   7.2514428906,   0.0000000000,   0.0000000000)
 A2 = (   0.0000000000,   7.2514428906,   0.0000000000)
 A3 = (   0.0000000000,   0.0000000000,   7.1799987179)


Analysis of symmetry for initial positions (statically):
=====================================================================
 Subroutine PRICEL returns following result:
 
  LATTYP: Found a body centered tetragonal cell.
 ALAT       =     2.5637722207
 C/A-ratio  =     1.4002801536
  
  Lattice vectors:
  
 A1 = (   1.8128607227,   0.0000000000,   1.7949996795)
 A2 = (  -1.8128607227,   0.0000000000,   1.7949996795)
 A3 = (   0.0000000000,  -1.8128607227,  -1.7949996795)
 
  32 primitive cells build up your supercell.
 

 Routine SETGRP: Setting up the symmetry group for a 
 simple tetragonal supercell.


 Subroutine GETGRP returns: Found 16 space group operations
 (whereof  8 operations were pure point group operations)
 out of a pool of 16 trial point group operations.


The static configuration has the point symmetry D_2d.
 The point group associated with its full space group is D_4h.


Analysis of symmetry for dynamics (positions and initial velocities):
=====================================================================
 Subroutine PRICEL returns following result:
 
  LATTYP: Found a body centered tetragonal cell.
 ALAT       =     2.5637722207
 C/A-ratio  =     1.4002801536
  
  Lattice vectors:
  
 A1 = (   1.8128607227,   0.0000000000,   1.7949996795)
 A2 = (  -1.8128607227,   0.0000000000,   1.7949996795)
 A3 = (   0.0000000000,  -1.8128607227,  -1.7949996795)
 
  32 primitive cells build up your supercell.
 

 Routine SETGRP: Setting up the symmetry group for a 
 simple tetragonal supercell.


 Subroutine GETGRP returns: Found 16 space group operations
 (whereof  8 operations were pure point group operations)
 out of a pool of 16 trial point group operations.


The dynamic configuration has the point symmetry D_2d.
 The point group associated with its full space group is D_4h.


 Subroutine INISYM returns: Found 16 space group operations
 (whereof  8 operations are pure point group operations),
 and found    32 'primitive' translations

 
 
 KPOINTS: kpt_density=3000                        

Automatic generation of k-mesh.
Space group operators:
 irot       det(A)        alpha          n_x          n_y          n_z        tau_x        tau_y        tau_z
    1     1.000000     0.000000     1.000000     0.000000     0.000000     0.000000     0.000000     0.000000
    2    -1.000000    90.000000     0.000000     0.000000    -1.000000     0.000000     0.000000     0.000000
    3     1.000000   180.000000     0.000000     0.000000     1.000000     0.000000     0.000000     0.000000
    4    -1.000000    90.000000     0.000000     0.000000     1.000000     0.000000     0.000000     0.000000
    5     1.000000   180.000000     0.000000     1.000000     0.000000     0.000000     0.000000     0.000000
    6    -1.000000   180.000000     0.707107     0.707107     0.000000     0.000000     0.000000     0.000000
    7     1.000000   180.000000     1.000000     0.000000     0.000000     0.000000     0.000000     0.000000
    8    -1.000000   180.000000     0.707107    -0.707107     0.000000     0.000000     0.000000     0.000000
    9    -1.000000     0.000000     1.000000     0.000000     0.000000    -0.125000    -0.125000     0.125000
   10     1.000000    90.000000     0.000000     0.000000    -1.000000    -0.125000    -0.125000     0.125000
   11    -1.000000   180.000000     0.000000     0.000000     1.000000    -0.125000    -0.125000     0.125000
   12     1.000000    90.000000     0.000000     0.000000     1.000000    -0.125000    -0.125000     0.125000
   13    -1.000000   180.000000     0.000000     1.000000     0.000000    -0.125000    -0.125000     0.125000
   14     1.000000   180.000000     0.707107     0.707107     0.000000    -0.125000    -0.125000     0.125000
   15    -1.000000   180.000000     1.000000     0.000000     0.000000    -0.125000    -0.125000     0.125000
   16     1.000000   180.000000     0.707107    -0.707107     0.000000    -0.125000    -0.125000     0.125000
 
 Subroutine IBZKPT returns following result:
 ===========================================
 
 Found     40 irreducible k-points:
 
 Following reciprocal coordinates:
            Coordinates               Weight
  0.000000  0.000000  0.000000      1.000000
  0.166667  0.000000  0.000000      4.000000
  0.333333  0.000000  0.000000      4.000000
  0.500000  0.000000  0.000000      2.000000
  0.166667  0.166667  0.000000      4.000000
  0.333333  0.166667  0.000000      8.000000
  0.500000  0.166667  0.000000      4.000000
  0.333333  0.333333  0.000000      4.000000
  0.500000  0.333333  0.000000      4.000000
  0.500000  0.500000  0.000000      1.000000
  0.000000  0.000000  0.166667      2.000000
  0.166667  0.000000  0.166667      8.000000
  0.333333  0.000000  0.166667      8.000000
  0.500000  0.000000  0.166667      4.000000
  0.166667  0.166667  0.166667      8.000000
  0.333333  0.166667  0.166667     16.000000
  0.500000  0.166667  0.166667      8.000000
  0.333333  0.333333  0.166667      8.000000
  0.500000  0.333333  0.166667      8.000000
  0.500000  0.500000  0.166667      2.000000
  0.000000  0.000000  0.333333      2.000000
  0.166667  0.000000  0.333333      8.000000
  0.333333  0.000000  0.333333      8.000000
  0.500000  0.000000  0.333333      4.000000
  0.166667  0.166667  0.333333      8.000000
  0.333333  0.166667  0.333333     16.000000
  0.500000  0.166667  0.333333      8.000000
  0.333333  0.333333  0.333333      8.000000
  0.500000  0.333333  0.333333      8.000000
  0.500000  0.500000  0.333333      2.000000
  0.000000  0.000000  0.500000      1.000000
  0.166667  0.000000  0.500000      4.000000
  0.333333  0.000000  0.500000      4.000000
  0.500000  0.000000  0.500000      2.000000
  0.166667  0.166667  0.500000      4.000000
  0.333333  0.166667  0.500000      8.000000
  0.500000  0.166667  0.500000      4.000000
  0.333333  0.333333  0.500000      4.000000
  0.500000  0.333333  0.500000      4.000000
  0.500000  0.500000  0.500000      1.000000
 
 Following cartesian coordinates:
            Coordinates               Weight
  0.000000  0.000000  0.000000      1.000000
  0.022984  0.000000  0.000000      4.000000
  0.045968  0.000000  0.000000      4.000000
  0.068952  0.000000  0.000000      2.000000
  0.022984  0.022984  0.000000      4.000000
  0.045968  0.022984  0.000000      8.000000
  0.068952  0.022984  0.000000      4.000000
  0.045968  0.045968  0.000000      4.000000
  0.068952  0.045968  0.000000      4.000000
  0.068952  0.068952  0.000000      1.000000
  0.000000  0.000000  0.023213      2.000000
  0.022984  0.000000  0.023213      8.000000
  0.045968  0.000000  0.023213      8.000000
  0.068952  0.000000  0.023213      4.000000
  0.022984  0.022984  0.023213      8.000000
  0.045968  0.022984  0.023213     16.000000
  0.068952  0.022984  0.023213      8.000000
  0.045968  0.045968  0.023213      8.000000
  0.068952  0.045968  0.023213      8.000000
  0.068952  0.068952  0.023213      2.000000
  0.000000  0.000000  0.046425      2.000000
  0.022984  0.000000  0.046425      8.000000
  0.045968  0.000000  0.046425      8.000000
  0.068952  0.000000  0.046425      4.000000
  0.022984  0.022984  0.046425      8.000000
  0.045968  0.022984  0.046425     16.000000
  0.068952  0.022984  0.046425      8.000000
  0.045968  0.045968  0.046425      8.000000
  0.068952  0.045968  0.046425      8.000000
  0.068952  0.068952  0.046425      2.000000
  0.000000  0.000000  0.069638      1.000000
  0.022984  0.000000  0.069638      4.000000
  0.045968  0.000000  0.069638      4.000000
  0.068952  0.000000  0.069638      2.000000
  0.022984  0.022984  0.069638      4.000000
  0.045968  0.022984  0.069638      8.000000
  0.068952  0.022984  0.069638      4.000000
  0.045968  0.045968  0.069638      4.000000
  0.068952  0.045968  0.069638      4.000000
  0.068952  0.068952  0.069638      1.000000
 
 
 Subroutine IBZKPT_HF returns following result:
 ==============================================
 
 Found    216 k-points in 1st BZ
 the following    216 k-points will be used (e.g. in the exchange kernel)
 Following reciprocal coordinates:   # in IRBZ
  0.000000  0.000000  0.000000    0.00462963   1 t-inv F
  0.166667  0.000000  0.000000    0.00462963   2 t-inv F
  0.333333  0.000000  0.000000    0.00462963   3 t-inv F
  0.500000  0.000000  0.000000    0.00462963   4 t-inv F
  0.166667  0.166667  0.000000    0.00462963   5 t-inv F
  0.333333  0.166667  0.000000    0.00462963   6 t-inv F
  0.500000  0.166667  0.000000    0.00462963   7 t-inv F
  0.333333  0.333333  0.000000    0.00462963   8 t-inv F
  0.500000  0.333333  0.000000    0.00462963   9 t-inv F
  0.500000  0.500000  0.000000    0.00462963  10 t-inv F
  0.000000  0.000000  0.166667    0.00462963  11 t-inv F
  0.166667  0.000000  0.166667    0.00462963  12 t-inv F
  0.333333  0.000000  0.166667    0.00462963  13 t-inv F
  0.500000  0.000000  0.166667    0.00462963  14 t-inv F
  0.166667  0.166667  0.166667    0.00462963  15 t-inv F
  0.333333  0.166667  0.166667    0.00462963  16 t-inv F
  0.500000  0.166667  0.166667    0.00462963  17 t-inv F
  0.333333  0.333333  0.166667    0.00462963  18 t-inv F
  0.500000  0.333333  0.166667    0.00462963  19 t-inv F
  0.500000  0.500000  0.166667    0.00462963  20 t-inv F
  0.000000  0.000000  0.333333    0.00462963  21 t-inv F
  0.166667  0.000000  0.333333    0.00462963  22 t-inv F
  0.333333  0.000000  0.333333    0.00462963  23 t-inv F
  0.500000  0.000000  0.333333    0.00462963  24 t-inv F
  0.166667  0.166667  0.333333    0.00462963  25 t-inv F
  0.333333  0.166667  0.333333    0.00462963  26 t-inv F
  0.500000  0.166667  0.333333    0.00462963  27 t-inv F
  0.333333  0.333333  0.333333    0.00462963  28 t-inv F
  0.500000  0.333333  0.333333    0.00462963  29 t-inv F
  0.500000  0.500000  0.333333    0.00462963  30 t-inv F
  0.000000  0.000000  0.500000    0.00462963  31 t-inv F
  0.166667  0.000000  0.500000    0.00462963  32 t-inv F
  0.333333  0.000000  0.500000    0.00462963  33 t-inv F
  0.500000  0.000000  0.500000    0.00462963  34 t-inv F
  0.166667  0.166667  0.500000    0.00462963  35 t-inv F
  0.333333  0.166667  0.500000    0.00462963  36 t-inv F
  0.500000  0.166667  0.500000    0.00462963  37 t-inv F
  0.333333  0.333333  0.500000    0.00462963  38 t-inv F
  0.500000  0.333333  0.500000    0.00462963  39 t-inv F
  0.500000  0.500000  0.500000    0.00462963  40 t-inv F
  0.000000 -0.166667  0.000000    0.00462963   2 t-inv F
 -0.166667  0.000000  0.000000    0.00462963   2 t-inv F
  0.000000  0.166667  0.000000    0.00462963   2 t-inv F
  0.000000 -0.333333  0.000000    0.00462963   3 t-inv F
 -0.333333  0.000000  0.000000    0.00462963   3 t-inv F
  0.000000  0.333333  0.000000    0.00462963   3 t-inv F
  0.000000 -0.500000  0.000000    0.00462963   4 t-inv F
  0.166667 -0.166667  0.000000    0.00462963   5 t-inv F
 -0.166667 -0.166667  0.000000    0.00462963   5 t-inv F
 -0.166667  0.166667  0.000000    0.00462963   5 t-inv F
  0.166667 -0.333333  0.000000    0.00462963   6 t-inv F
 -0.333333 -0.166667  0.000000    0.00462963   6 t-inv F
 -0.166667  0.333333  0.000000    0.00462963   6 t-inv F
 -0.333333  0.166667  0.000000    0.00462963   6 t-inv F
 -0.166667 -0.333333  0.000000    0.00462963   6 t-inv F
  0.333333 -0.166667  0.000000    0.00462963   6 t-inv F
  0.166667  0.333333  0.000000    0.00462963   6 t-inv F
  0.166667 -0.500000  0.000000    0.00462963   7 t-inv F
 -0.500000 -0.166667  0.000000    0.00462963   7 t-inv F
 -0.166667  0.500000  0.000000    0.00462963   7 t-inv F
  0.333333 -0.333333  0.000000    0.00462963   8 t-inv F
 -0.333333 -0.333333  0.000000    0.00462963   8 t-inv F
 -0.333333  0.333333  0.000000    0.00462963   8 t-inv F
  0.333333 -0.500000  0.000000    0.00462963   9 t-inv F
 -0.500000 -0.333333  0.000000    0.00462963   9 t-inv F
 -0.333333  0.500000  0.000000    0.00462963   9 t-inv F
  0.000000  0.000000 -0.166667    0.00462963  11 t-inv F
  0.000000 -0.166667 -0.166667    0.00462963  12 t-inv F
 -0.166667  0.000000  0.166667    0.00462963  12 t-inv F
  0.000000  0.166667 -0.166667    0.00462963  12 t-inv F
 -0.166667  0.000000 -0.166667    0.00462963  12 t-inv F
  0.000000 -0.166667  0.166667    0.00462963  12 t-inv F
  0.166667  0.000000 -0.166667    0.00462963  12 t-inv F
  0.000000  0.166667  0.166667    0.00462963  12 t-inv F
  0.000000 -0.333333 -0.166667    0.00462963  13 t-inv F
 -0.333333  0.000000  0.166667    0.00462963  13 t-inv F
  0.000000  0.333333 -0.166667    0.00462963  13 t-inv F
 -0.333333  0.000000 -0.166667    0.00462963  13 t-inv F
  0.000000 -0.333333  0.166667    0.00462963  13 t-inv F
  0.333333  0.000000 -0.166667    0.00462963  13 t-inv F
  0.000000  0.333333  0.166667    0.00462963  13 t-inv F
  0.000000 -0.500000 -0.166667    0.00462963  14 t-inv F
 -0.500000  0.000000 -0.166667    0.00462963  14 t-inv F
  0.000000 -0.500000  0.166667    0.00462963  14 t-inv F
  0.166667 -0.166667 -0.166667    0.00462963  15 t-inv F
 -0.166667 -0.166667  0.166667    0.00462963  15 t-inv F
 -0.166667  0.166667 -0.166667    0.00462963  15 t-inv F
 -0.166667 -0.166667 -0.166667    0.00462963  15 t-inv F
 -0.166667  0.166667  0.166667    0.00462963  15 t-inv F
  0.166667  0.166667 -0.166667    0.00462963  15 t-inv F
  0.166667 -0.166667  0.166667    0.00462963  15 t-inv F
  0.166667 -0.333333 -0.166667    0.00462963  16 t-inv F
 -0.333333 -0.166667  0.166667    0.00462963  16 t-inv F
 -0.166667  0.333333 -0.166667    0.00462963  16 t-inv F
 -0.333333  0.166667 -0.166667    0.00462963  16 t-inv F
 -0.166667 -0.333333  0.166667    0.00462963  16 t-inv F
  0.333333 -0.166667 -0.166667    0.00462963  16 t-inv F
  0.166667  0.333333  0.166667    0.00462963  16 t-inv F
 -0.333333 -0.166667 -0.166667    0.00462963  16 t-inv F
 -0.166667  0.333333  0.166667    0.00462963  16 t-inv F
  0.333333  0.166667 -0.166667    0.00462963  16 t-inv F
  0.166667 -0.333333  0.166667    0.00462963  16 t-inv F
  0.333333 -0.166667  0.166667    0.00462963  16 t-inv F
  0.166667  0.333333 -0.166667    0.00462963  16 t-inv F
 -0.333333  0.166667  0.166667    0.00462963  16 t-inv F
 -0.166667 -0.333333 -0.166667    0.00462963  16 t-inv F
  0.166667 -0.500000 -0.166667    0.00462963  17 t-inv F
 -0.500000 -0.166667  0.166667    0.00462963  17 t-inv F
 -0.166667  0.500000 -0.166667    0.00462963  17 t-inv F
 -0.500000  0.166667 -0.166667    0.00462963  17 t-inv F
 -0.166667 -0.500000  0.166667    0.00462963  17 t-inv F
  0.500000 -0.166667 -0.166667    0.00462963  17 t-inv F
  0.166667  0.500000  0.166667    0.00462963  17 t-inv F
  0.333333 -0.333333 -0.166667    0.00462963  18 t-inv F
 -0.333333 -0.333333  0.166667    0.00462963  18 t-inv F
 -0.333333  0.333333 -0.166667    0.00462963  18 t-inv F
 -0.333333 -0.333333 -0.166667    0.00462963  18 t-inv F
 -0.333333  0.333333  0.166667    0.00462963  18 t-inv F
  0.333333  0.333333 -0.166667    0.00462963  18 t-inv F
  0.333333 -0.333333  0.166667    0.00462963  18 t-inv F
  0.333333 -0.500000 -0.166667    0.00462963  19 t-inv F
 -0.500000 -0.333333  0.166667    0.00462963  19 t-inv F
 -0.333333  0.500000 -0.166667    0.00462963  19 t-inv F
 -0.500000  0.333333 -0.166667    0.00462963  19 t-inv F
 -0.333333 -0.500000  0.166667    0.00462963  19 t-inv F
  0.500000 -0.333333 -0.166667    0.00462963  19 t-inv F
  0.333333  0.500000  0.166667    0.00462963  19 t-inv F
  0.500000 -0.500000 -0.166667    0.00462963  20 t-inv F
  0.000000  0.000000 -0.333333    0.00462963  21 t-inv F
  0.000000 -0.166667 -0.333333    0.00462963  22 t-inv F
 -0.166667  0.000000  0.333333    0.00462963  22 t-inv F
  0.000000  0.166667 -0.333333    0.00462963  22 t-inv F
 -0.166667  0.000000 -0.333333    0.00462963  22 t-inv F
  0.000000 -0.166667  0.333333    0.00462963  22 t-inv F
  0.166667  0.000000 -0.333333    0.00462963  22 t-inv F
  0.000000  0.166667  0.333333    0.00462963  22 t-inv F
  0.000000 -0.333333 -0.333333    0.00462963  23 t-inv F
 -0.333333  0.000000  0.333333    0.00462963  23 t-inv F
  0.000000  0.333333 -0.333333    0.00462963  23 t-inv F
 -0.333333  0.000000 -0.333333    0.00462963  23 t-inv F
  0.000000 -0.333333  0.333333    0.00462963  23 t-inv F
  0.333333  0.000000 -0.333333    0.00462963  23 t-inv F
  0.000000  0.333333  0.333333    0.00462963  23 t-inv F
  0.000000 -0.500000 -0.333333    0.00462963  24 t-inv F
 -0.500000  0.000000 -0.333333    0.00462963  24 t-inv F
  0.000000 -0.500000  0.333333    0.00462963  24 t-inv F
  0.166667 -0.166667 -0.333333    0.00462963  25 t-inv F
 -0.166667 -0.166667  0.333333    0.00462963  25 t-inv F
 -0.166667  0.166667 -0.333333    0.00462963  25 t-inv F
 -0.166667 -0.166667 -0.333333    0.00462963  25 t-inv F
 -0.166667  0.166667  0.333333    0.00462963  25 t-inv F
  0.166667  0.166667 -0.333333    0.00462963  25 t-inv F
  0.166667 -0.166667  0.333333    0.00462963  25 t-inv F
  0.166667 -0.333333 -0.333333    0.00462963  26 t-inv F
 -0.333333 -0.166667  0.333333    0.00462963  26 t-inv F
 -0.166667  0.333333 -0.333333    0.00462963  26 t-inv F
 -0.333333  0.166667 -0.333333    0.00462963  26 t-inv F
 -0.166667 -0.333333  0.333333    0.00462963  26 t-inv F
  0.333333 -0.166667 -0.333333    0.00462963  26 t-inv F
  0.166667  0.333333  0.333333    0.00462963  26 t-inv F
 -0.333333 -0.166667 -0.333333    0.00462963  26 t-inv F
 -0.166667  0.333333  0.333333    0.00462963  26 t-inv F
  0.333333  0.166667 -0.333333    0.00462963  26 t-inv F
  0.166667 -0.333333  0.333333    0.00462963  26 t-inv F
  0.333333 -0.166667  0.333333    0.00462963  26 t-inv F
  0.166667  0.333333 -0.333333    0.00462963  26 t-inv F
 -0.333333  0.166667  0.333333    0.00462963  26 t-inv F
 -0.166667 -0.333333 -0.333333    0.00462963  26 t-inv F
  0.166667 -0.500000 -0.333333    0.00462963  27 t-inv F
 -0.500000 -0.166667  0.333333    0.00462963  27 t-inv F
 -0.166667  0.500000 -0.333333    0.00462963  27 t-inv F
 -0.500000  0.166667 -0.333333    0.00462963  27 t-inv F
 -0.166667 -0.500000  0.333333    0.00462963  27 t-inv F
  0.500000 -0.166667 -0.333333    0.00462963  27 t-inv F
  0.166667  0.500000  0.333333    0.00462963  27 t-inv F
  0.333333 -0.333333 -0.333333    0.00462963  28 t-inv F
 -0.333333 -0.333333  0.333333    0.00462963  28 t-inv F
 -0.333333  0.333333 -0.333333    0.00462963  28 t-inv F
 -0.333333 -0.333333 -0.333333    0.00462963  28 t-inv F
 -0.333333  0.333333  0.333333    0.00462963  28 t-inv F
  0.333333  0.333333 -0.333333    0.00462963  28 t-inv F
  0.333333 -0.333333  0.333333    0.00462963  28 t-inv F
  0.333333 -0.500000 -0.333333    0.00462963  29 t-inv F
 -0.500000 -0.333333  0.333333    0.00462963  29 t-inv F
 -0.333333  0.500000 -0.333333    0.00462963  29 t-inv F
 -0.500000  0.333333 -0.333333    0.00462963  29 t-inv F
 -0.333333 -0.500000  0.333333    0.00462963  29 t-inv F
  0.500000 -0.333333 -0.333333    0.00462963  29 t-inv F
  0.333333  0.500000  0.333333    0.00462963  29 t-inv F
  0.500000 -0.500000 -0.333333    0.00462963  30 t-inv F
  0.000000 -0.166667 -0.500000    0.00462963  32 t-inv F
 -0.166667  0.000000  0.500000    0.00462963  32 t-inv F
  0.000000  0.166667 -0.500000    0.00462963  32 t-inv F
  0.000000 -0.333333 -0.500000    0.00462963  33 t-inv F
 -0.333333  0.000000  0.500000    0.00462963  33 t-inv F
  0.000000  0.333333 -0.500000    0.00462963  33 t-inv F
  0.000000 -0.500000 -0.500000    0.00462963  34 t-inv F
  0.166667 -0.166667 -0.500000    0.00462963  35 t-inv F
 -0.166667 -0.166667  0.500000    0.00462963  35 t-inv F
 -0.166667  0.166667 -0.500000    0.00462963  35 t-inv F
  0.166667 -0.333333 -0.500000    0.00462963  36 t-inv F
 -0.333333 -0.166667  0.500000    0.00462963  36 t-inv F
 -0.166667  0.333333 -0.500000    0.00462963  36 t-inv F
 -0.333333  0.166667 -0.500000    0.00462963  36 t-inv F
 -0.166667 -0.333333  0.500000    0.00462963  36 t-inv F
  0.333333 -0.166667 -0.500000    0.00462963  36 t-inv F
  0.166667  0.333333  0.500000    0.00462963  36 t-inv F
  0.166667 -0.500000 -0.500000    0.00462963  37 t-inv F
 -0.500000 -0.166667  0.500000    0.00462963  37 t-inv F
 -0.166667  0.500000 -0.500000    0.00462963  37 t-inv F
  0.333333 -0.333333 -0.500000    0.00462963  38 t-inv F
 -0.333333 -0.333333  0.500000    0.00462963  38 t-inv F
 -0.333333  0.333333 -0.500000    0.00462963  38 t-inv F
  0.333333 -0.500000 -0.500000    0.00462963  39 t-inv F
 -0.500000 -0.333333  0.500000    0.00462963  39 t-inv F
 -0.333333  0.500000 -0.500000    0.00462963  39 t-inv F


--------------------------------------------------------------------------------------------------------




 Dimension of arrays:
   k-points           NKPTS =     40   k-points in BZ     NKDIM =     40   number of bands    NBANDS=    192
   number of dos      NEDOS =    301   number of ions     NIONS =     64
   non local maximal  LDIM  =      4   non local SUM 2l+1 LMDIM =      8
   total plane-waves  NPLWV = 110592
   max r-space proj   IRMAX =      1   max aug-charges    IRDMAX=  27850
   dimension x,y,z NGX =    48 NGY =   48 NGZ =   48
   dimension x,y,z NGXF=    96 NGYF=   96 NGZF=   96
   support grid    NGXF=   192 NGYF=  192 NGZF=  192
   ions per type =              64
   NGX,Y,Z   is equivalent  to a cutoff of  11.00, 11.00, 11.11 a.u.
   NGXF,Y,Z  is equivalent  to a cutoff of  22.01, 22.01, 22.23 a.u.

 SYSTEM =  unknown system                          
 POSCAR =  generated by phonopy                    

 Startparameter for this run:
   NWRITE =      2    write-flag & timer
   PREC   = accura    normal or accurate (medium, high low for compatibility)
   ISTART =      0    job   : 0-new  1-cont  2-samecut
   ICHARG =      2    charge: 1-file 2-atom 10-const
   ISPIN  =      1    spin polarized calculation?
   LNONCOLLINEAR =      F non collinear calculations
   LSORBIT =      F    spin-orbit coupling
   INIWAV =      1    electr: 0-lowe 1-rand  2-diag
   LASPH  =      F    aspherical Exc in radial PAW
   METAGGA=      F    non-selfconsistent MetaGGA calc.

 Electronic Relaxation 1
   ENCUT  =  400.0 eV  29.40 Ry    5.42 a.u.  11.83 11.83 11.71*2*pi/ulx,y,z
   ENINI  =  400.0     initial cutoff
   ENAUG  =  644.9 eV  augmentation charge cutoff
   NELM   =     60;   NELMIN=  2; NELMDL= -5     # of ELM steps 
   EDIFF  = 0.1E-07   stopping-criterion for ELM
   LREAL  =      F    real-space projection
   NLSPLINE    = F    spline interpolate recip. space projectors
   LCOMPAT=      F    compatible to vasp.4.4
   GGA_COMPAT  = T    GGA compatible to vasp.4.4-vasp.4.6
   LMAXPAW     = -100 max onsite density
   LMAXMIX     =    2 max onsite mixed and CHGCAR
   VOSKOWN=      0    Vosko Wilk Nusair interpolation
   ROPT   =    0.00000
 Ionic relaxation
   EDIFFG = 0.1E-06   stopping-criterion for IOM
   NSW    =      1    number of steps for IOM
   NBLOCK =      1;   KBLOCK =      1    inner block; outer block 
   IBRION =      8    ionic relax: 0-MD 1-quasi-New 2-CG
   NFREE  =      0    steps in history (QN), initial steepest desc. (CG)
   ISIF   =      2    stress and relaxation
   IWAVPR =     11    prediction:  0-non 1-charg 2-wave 3-comb
   ISYM   =      2    0-nonsym 1-usesym 2-fastsym
   LCORR  =      T    Harris-Foulkes like correction to forces

   POTIM  = 0.5000    time-step for ionic-motion
   TEIN   =    0.0    initial temperature
   TEBEG  =    0.0;   TEEND  =   0.0 temperature during run
   SMASS  =  -3.00    Nose mass-parameter (am)
   estimated Nose-frequenzy (Omega)   =  0.10E-29 period in steps =****** mass=  -0.120E-26a.u.
   SCALEE = 1.0000    scale energy and forces
   NPACO  =    256;   APACO  = 16.0  distance and # of slots for P.C.
   PSTRESS=    0.0 pullay stress

  Mass of Ions in am
   POMASS =  12.01
  Ionic Valenz
   ZVAL   =   4.00
  Atomic Wigner-Seitz radii
   RWIGS  =  -1.00
  virtual crystal weights 
   VCA    =   1.00
   NELECT =     256.0000    total number of electrons
   NUPDOWN=      -1.0000    fix difference up-down

 DOS related values:
   EMIN   =  10.00;   EMAX   =-10.00  energy-range for DOS
   EFERMI =   0.00
   ISMEAR =     0;   SIGMA  =   0.06  broadening in eV -4-tet -1-fermi 0-gaus

 Electronic relaxation 2 (details)
   IALGO  =     38    algorithm
   LDIAG  =      T    sub-space diagonalisation (order eigenvalues)
   LSUBROT=      F    optimize rotation matrix (better conditioning)
   TURBO    =      0    0=normal 1=particle mesh
   IRESTART =      0    0=no restart 2=restart with 2 vectors
   NREBOOT  =      0    no. of reboots
   NMIN     =      0    reboot dimension
   EREF     =   0.00    reference energy to select bands
   IMIX   =      4    mixing-type and parameters
     AMIX     =   0.40;   BMIX     =  1.00
     AMIX_MAG =   1.60;   BMIX_MAG =  1.00
     AMIN     =   0.10
     WC   =   100.;   INIMIX=   1;  MIXPRE=   1;  MAXMIX= -45

 Intra band minimization:
   WEIMIN = 0.0010     energy-eigenvalue tresh-hold
   EBREAK =  0.13E-10  absolut break condition
   DEPER  =   0.30     relativ break condition  

   TIME   =   0.40     timestep for ELM

  volume/ion in A,a.u.               =       5.90        39.81
  Fermi-wavevector in a.u.,A,eV,Ry     =   1.438237  2.717874 28.143994  2.068525
  Thomas-Fermi vector in A             =   2.557226
 
 Write flags
   LWAVE        =      F    write WAVECAR
   LDOWNSAMPLE  =      F    k-point downsampling of WAVECAR
   LCHARG       =      F    write CHGCAR
   LVTOT        =      F    write LOCPOT, total local potential
   LVHAR        =      F    write LOCPOT, Hartree potential only
   LELF         =      F    write electronic localiz. function (ELF)
   LORBIT       =      0    0 simple, 1 ext, 2 COOP (PROOUT), +10 PAW based schemes


 Dipole corrections
   LMONO  =      F    monopole corrections only (constant potential shift)
   LDIPOL =      F    correct potential (dipole corrections)
   IDIPOL =      0    1-x, 2-y, 3-z, 4-all directions 
   EPSILON=  1.0000000 bulk dielectric constant

 Exchange correlation treatment:
   GGA     =    --    GGA type
   LEXCH   =     8    internal setting for exchange type
   VOSKOWN=      0    Vosko Wilk Nusair interpolation
   LHFCALC =     F    Hartree Fock is set to
   LHFONE  =     F    Hartree Fock one center treatment
   AEXX    =    0.0000 exact exchange contribution

 Linear response parameters
   LEPSILON=     F    determine dielectric tensor
   LRPA    =     F    only Hartree local field effects (RPA)
   LNABLA  =     F    use nabla operator in PAW spheres
   LVEL    =     F    velocity operator in full k-point grid
   LINTERFAST=   F  fast interpolation
   KINTER  =     0    interpolate to denser k-point grid
   CSHIFT  =0.1000    complex shift for real part using Kramers Kronig
   OMEGAMAX=  -1.0    maximum frequency
   DEG_THRESHOLD= 0.2000000E-02 threshold for treating states as degnerate
   RTIME   =   -0.100 relaxation time in fs
  (WPLASMAI=    0.000 imaginary part of plasma frequency in eV, 0.658/RTIME)
   DFIELD  = 0.0000000 0.0000000 0.0000000 field for delta impulse in time
 
 Orbital magnetization related:
   ORBITALMAG=     F  switch on orbital magnetization
   LCHIMAG   =     F  perturbation theory with respect to B field
   DQ        =  0.001000  dq finite difference perturbation B field
   LLRAUG    =     F  two centre corrections for induced B field



--------------------------------------------------------------------------------------------------------


 linear response using symmetry
 charge density and potential will be updated during run
 non-spin polarized calculation
 Variant of blocked Davidson
 Davidson routine will perform the subspace rotation
 perform sub-space diagonalisation
    after iterative eigenvector-optimisation
 modified Broyden-mixing scheme, WC =      100.0
 initial mixing is a Kerker type mixing with AMIX =  0.4000 and BMIX =      1.0000
 Hartree-type preconditioning will be used
 using additional bands           64
 reciprocal scheme for non local part
 calculate Harris-corrections to forces 
   (improved forces if not selfconsistent)
 use gradient corrections 
 use of overlap-Matrix (Vanderbilt PP)
 Gauss-broadening in eV      SIGMA  =   0.06


--------------------------------------------------------------------------------------------------------


  energy-cutoff  :      400.00
  volume of cell :      377.55
      direct lattice vectors                 reciprocal lattice vectors
     7.251442891  0.000000000  0.000000000     0.137903589  0.000000000  0.000000000
     0.000000000  7.251442891  0.000000000     0.000000000  0.137903589  0.000000000
     0.000000000  0.000000000  7.179998718     0.000000000  0.000000000  0.139275791

  length of vectors
     7.251442891  7.251442891  7.179998718     0.137903589  0.137903589  0.139275791


 
 k-points in units of 2pi/SCALE and weight: kpt_density=3000                        
   0.00000000  0.00000000  0.00000000       0.005
   0.02298393  0.00000000  0.00000000       0.019
   0.04596786  0.00000000  0.00000000       0.019
   0.06895179  0.00000000  0.00000000       0.009
   0.02298393  0.02298393  0.00000000       0.019
   0.04596786  0.02298393  0.00000000       0.037
   0.06895179  0.02298393  0.00000000       0.019
   0.04596786  0.04596786  0.00000000       0.019
   0.06895179  0.04596786  0.00000000       0.019
   0.06895179  0.06895179  0.00000000       0.005
   0.00000000  0.00000000  0.02321263       0.009
   0.02298393  0.00000000  0.02321263       0.037
   0.04596786  0.00000000  0.02321263       0.037
   0.06895179  0.00000000  0.02321263       0.019
   0.02298393  0.02298393  0.02321263       0.037
   0.04596786  0.02298393  0.02321263       0.074
   0.06895179  0.02298393  0.02321263       0.037
   0.04596786  0.04596786  0.02321263       0.037
   0.06895179  0.04596786  0.02321263       0.037
   0.06895179  0.06895179  0.02321263       0.009
   0.00000000  0.00000000  0.04642526       0.009
   0.02298393  0.00000000  0.04642526       0.037
   0.04596786  0.00000000  0.04642526       0.037
   0.06895179  0.00000000  0.04642526       0.019
   0.02298393  0.02298393  0.04642526       0.037
   0.04596786  0.02298393  0.04642526       0.074
   0.06895179  0.02298393  0.04642526       0.037
   0.04596786  0.04596786  0.04642526       0.037
   0.06895179  0.04596786  0.04642526       0.037
   0.06895179  0.06895179  0.04642526       0.009
   0.00000000  0.00000000  0.06963790       0.005
   0.02298393  0.00000000  0.06963790       0.019
   0.04596786  0.00000000  0.06963790       0.019
   0.06895179  0.00000000  0.06963790       0.009
   0.02298393  0.02298393  0.06963790       0.019
   0.04596786  0.02298393  0.06963790       0.037
   0.06895179  0.02298393  0.06963790       0.019
   0.04596786  0.04596786  0.06963790       0.019
   0.06895179  0.04596786  0.06963790       0.019
   0.06895179  0.06895179  0.06963790       0.005
 
 k-points in reciprocal lattice and weights: kpt_density=3000                        
   0.00000000  0.00000000  0.00000000       0.005
   0.16666667  0.00000000  0.00000000       0.019
   0.33333333  0.00000000  0.00000000       0.019
   0.50000000  0.00000000  0.00000000       0.009
   0.16666667  0.16666667  0.00000000       0.019
   0.33333333  0.16666667  0.00000000       0.037
   0.50000000  0.16666667  0.00000000       0.019
   0.33333333  0.33333333  0.00000000       0.019
   0.50000000  0.33333333  0.00000000       0.019
   0.50000000  0.50000000  0.00000000       0.005
   0.00000000  0.00000000  0.16666667       0.009
   0.16666667  0.00000000  0.16666667       0.037
   0.33333333  0.00000000  0.16666667       0.037
   0.50000000  0.00000000  0.16666667       0.019
   0.16666667  0.16666667  0.16666667       0.037
   0.33333333  0.16666667  0.16666667       0.074
   0.50000000  0.16666667  0.16666667       0.037
   0.33333333  0.33333333  0.16666667       0.037
   0.50000000  0.33333333  0.16666667       0.037
   0.50000000  0.50000000  0.16666667       0.009
   0.00000000  0.00000000  0.33333333       0.009
   0.16666667  0.00000000  0.33333333       0.037
   0.33333333  0.00000000  0.33333333       0.037
   0.50000000  0.00000000  0.33333333       0.019
   0.16666667  0.16666667  0.33333333       0.037
   0.33333333  0.16666667  0.33333333       0.074
   0.50000000  0.16666667  0.33333333       0.037
   0.33333333  0.33333333  0.33333333       0.037
   0.50000000  0.33333333  0.33333333       0.037
   0.50000000  0.50000000  0.33333333       0.009
   0.00000000  0.00000000  0.50000000       0.005
   0.16666667  0.00000000  0.50000000       0.019
   0.33333333  0.00000000  0.50000000       0.019
   0.50000000  0.00000000  0.50000000       0.009
   0.16666667  0.16666667  0.50000000       0.019
   0.33333333  0.16666667  0.50000000       0.037
   0.50000000  0.16666667  0.50000000       0.019
   0.33333333  0.33333333  0.50000000       0.019
   0.50000000  0.33333333  0.50000000       0.019
   0.50000000  0.50000000  0.50000000       0.005
 
 position of ions in fractional coordinates (direct lattice) 
   0.12500000  0.37500000  0.12500000
   0.62500000  0.37500000  0.12500000
   0.12500000  0.87500000  0.12500000
   0.62500000  0.87500000  0.12500000
   0.12500000  0.37500000  0.62500000
   0.62500000  0.37500000  0.62500000
   0.12500000  0.87500000  0.62500000
   0.62500000  0.87500000  0.62500000
   0.00000000  0.00000000  0.25000000
   0.50000000  0.00000000  0.25000000
   0.00000000  0.50000000  0.25000000
   0.50000000  0.50000000  0.25000000
   0.00000000  0.00000000  0.75000000
   0.50000000  0.00000000  0.75000000
   0.00000000  0.50000000  0.75000000
   0.50000000  0.50000000  0.75000000
   0.12500000  0.12500000  0.37500000
   0.62500000  0.12500000  0.37500000
   0.12500000  0.62500000  0.37500000
   0.62500000  0.62500000  0.37500000
   0.12500000  0.12500000  0.87500000
   0.62500000  0.12500000  0.87500000
   0.12500000  0.62500000  0.87500000
   0.62500000  0.62500000  0.87500000
   0.00000000  0.25000000  0.00000000
   0.50000000  0.25000000  0.00000000
   0.00000000  0.75000000  0.00000000
   0.50000000  0.75000000  0.00000000
   0.00000000  0.25000000  0.50000000
   0.50000000  0.25000000  0.50000000
   0.00000000  0.75000000  0.50000000
   0.50000000  0.75000000  0.50000000
   0.37500000  0.37500000  0.37500000
   0.87500000  0.37500000  0.37500000
   0.37500000  0.87500000  0.37500000
   0.87500000  0.87500000  0.37500000
   0.37500000  0.37500000  0.87500000
   0.87500000  0.37500000  0.87500000
   0.37500000  0.87500000  0.87500000
   0.87500000  0.87500000  0.87500000
   0.25000000  0.00000000  0.00000000
   0.75000000  0.00000000  0.00000000
   0.25000000  0.50000000  0.00000000
   0.75000000  0.50000000  0.00000000
   0.25000000  0.00000000  0.50000000
   0.75000000  0.00000000  0.50000000
   0.25000000  0.50000000  0.50000000
   0.75000000  0.50000000  0.50000000
   0.37500000  0.12500000  0.12500000
   0.87500000  0.12500000  0.12500000
   0.37500000  0.62500000  0.12500000
   0.87500000  0.62500000  0.12500000
   0.37500000  0.12500000  0.62500000
   0.87500000  0.12500000  0.62500000
   0.37500000  0.62500000  0.62500000
   0.87500000  0.62500000  0.62500000
   0.25000000  0.25000000  0.25000000
   0.75000000  0.25000000  0.25000000
   0.25000000  0.75000000  0.25000000
   0.75000000  0.75000000  0.25000000
   0.25000000  0.25000000  0.75000000
   0.75000000  0.25000000  0.75000000
   0.25000000  0.75000000  0.75000000
   0.75000000  0.75000000  0.75000000
 
 position of ions in cartesian coordinates  (Angst):
   0.90643036  2.71929108  0.89749984
   4.53215181  2.71929108  0.89749984
   0.90643036  6.34501253  0.89749984
   4.53215181  6.34501253  0.89749984
   0.90643036  2.71929108  4.48749920
   4.53215181  2.71929108  4.48749920
   0.90643036  6.34501253  4.48749920
   4.53215181  6.34501253  4.48749920
   0.00000000  0.00000000  1.79499968
   3.62572145  0.00000000  1.79499968
   0.00000000  3.62572145  1.79499968
   3.62572145  3.62572145  1.79499968
   0.00000000  0.00000000  5.38499904
   3.62572145  0.00000000  5.38499904
   0.00000000  3.62572145  5.38499904
   3.62572145  3.62572145  5.38499904
   0.90643036  0.90643036  2.69249952
   4.53215181  0.90643036  2.69249952
   0.90643036  4.53215181  2.69249952
   4.53215181  4.53215181  2.69249952
   0.90643036  0.90643036  6.28249888
   4.53215181  0.90643036  6.28249888
   0.90643036  4.53215181  6.28249888
   4.53215181  4.53215181  6.28249888
   0.00000000  1.81286072  0.00000000
   3.62572145  1.81286072  0.00000000
   0.00000000  5.43858217  0.00000000
   3.62572145  5.43858217  0.00000000
   0.00000000  1.81286072  3.58999936
   3.62572145  1.81286072  3.58999936
   0.00000000  5.43858217  3.58999936
   3.62572145  5.43858217  3.58999936
   2.71929108  2.71929108  2.69249952
   6.34501253  2.71929108  2.69249952
   2.71929108  6.34501253  2.69249952
   6.34501253  6.34501253  2.69249952
   2.71929108  2.71929108  6.28249888
   6.34501253  2.71929108  6.28249888
   2.71929108  6.34501253  6.28249888
   6.34501253  6.34501253  6.28249888
   1.81286072  0.00000000  0.00000000
   5.43858217  0.00000000  0.00000000
   1.81286072  3.62572145  0.00000000
   5.43858217  3.62572145  0.00000000
   1.81286072  0.00000000  3.58999936
   5.43858217  0.00000000  3.58999936
   1.81286072  3.62572145  3.58999936
   5.43858217  3.62572145  3.58999936
   2.71929108  0.90643036  0.89749984
   6.34501253  0.90643036  0.89749984
   2.71929108  4.53215181  0.89749984
   6.34501253  4.53215181  0.89749984
   2.71929108  0.90643036  4.48749920
   6.34501253  0.90643036  4.48749920
   2.71929108  4.53215181  4.48749920
   6.34501253  4.53215181  4.48749920
   1.81286072  1.81286072  1.79499968
   5.43858217  1.81286072  1.79499968
   1.81286072  5.43858217  1.79499968
   5.43858217  5.43858217  1.79499968
   1.81286072  1.81286072  5.38499904
   5.43858217  1.81286072  5.38499904
   1.81286072  5.43858217  5.38499904
   5.43858217  5.43858217  5.38499904
 


--------------------------------------------------------------------------------------------------------


 k-point  1 :   0.0000 0.0000 0.0000  plane waves:    6875
 k-point  2 :   0.1667 0.0000 0.0000  plane waves:    6861
 k-point  3 :   0.3333 0.0000 0.0000  plane waves:    6878
 k-point  4 :   0.5000 0.0000 0.0000  plane waves:    6876
 k-point  5 :   0.1667 0.1667 0.0000  plane waves:    6857
 k-point  6 :   0.3333 0.1667 0.0000  plane waves:    6843
 k-point  7 :   0.5000 0.1667 0.0000  plane waves:    6840
 k-point  8 :   0.3333 0.3333 0.0000  plane waves:    6861
 k-point  9 :   0.5000 0.3333 0.0000  plane waves:    6870
 k-point 10 :   0.5000 0.5000 0.0000  plane waves:    6904
 k-point 11 :   0.0000 0.0000 0.1667  plane waves:    6875
 k-point 12 :   0.1667 0.0000 0.1667  plane waves:    6874
 k-point 13 :   0.3333 0.0000 0.1667  plane waves:    6859
 k-point 14 :   0.5000 0.0000 0.1667  plane waves:    6842
 k-point 15 :   0.1667 0.1667 0.1667  plane waves:    6851
 k-point 16 :   0.3333 0.1667 0.1667  plane waves:    6849
 k-point 17 :   0.5000 0.1667 0.1667  plane waves:    6856
 k-point 18 :   0.3333 0.3333 0.1667  plane waves:    6866
 k-point 19 :   0.5000 0.3333 0.1667  plane waves:    6870
 k-point 20 :   0.5000 0.5000 0.1667  plane waves:    6852
 k-point 21 :   0.0000 0.0000 0.3333  plane waves:    6840
 k-point 22 :   0.1667 0.0000 0.3333  plane waves:    6845
 k-point 23 :   0.3333 0.0000 0.3333  plane waves:    6844
 k-point 24 :   0.5000 0.0000 0.3333  plane waves:    6848
 k-point 25 :   0.1667 0.1667 0.3333  plane waves:    6839
 k-point 26 :   0.3333 0.1667 0.3333  plane waves:    6868
 k-point 27 :   0.5000 0.1667 0.3333  plane waves:    6878
 k-point 28 :   0.3333 0.3333 0.3333  plane waves:    6866
 k-point 29 :   0.5000 0.3333 0.3333  plane waves:    6868
 k-point 30 :   0.5000 0.5000 0.3333  plane waves:    6908
 k-point 31 :   0.0000 0.0000 0.5000  plane waves:    6848
 k-point 32 :   0.1667 0.0000 0.5000  plane waves:    6850
 k-point 33 :   0.3333 0.0000 0.5000  plane waves:    6856
 k-point 34 :   0.5000 0.0000 0.5000  plane waves:    6868
 k-point 35 :   0.1667 0.1667 0.5000  plane waves:    6850
 k-point 36 :   0.3333 0.1667 0.5000  plane waves:    6850
 k-point 37 :   0.5000 0.1667 0.5000  plane waves:    6872
 k-point 38 :   0.3333 0.3333 0.5000  plane waves:    6868
 k-point 39 :   0.5000 0.3333 0.5000  plane waves:    6876
 k-point 40 :   0.5000 0.5000 0.5000  plane waves:    6840

 maximum and minimum number of plane-waves per node :      6908     6839

 maximum number of plane-waves:      6908
 maximum index in each direction: 
   IXMAX=   11   IYMAX=   11   IZMAX=   11
   IXMIN=  -12   IYMIN=  -12   IZMIN=  -12


 serial   3D FFT for wavefunctions
 parallel 3D FFT for charge:
    minimum data exchange during FFTs selected (reduces bandwidth)


 total amount of memory used by VASP MPI-rank0    93819. kBytes
=======================================================================

   base      :      30000. kBytes
   nonl-proj :      24772. kBytes
   fftplans  :       4537. kBytes
   grid      :       5806. kBytes
   one-center:        196. kBytes
   wavefun   :      28508. kBytes
 
     INWAV:  cpu time    0.0004: real time    0.0005
 Broyden mixing: mesh for mixing (old mesh)
   NGX = 23   NGY = 23   NGZ = 23
  (NGX  = 96   NGY  = 96   NGZ  = 96)
  gives a total of  12167 points

 initial charge density was supplied:
 charge density of overlapping atoms calculated
 number of electron     256.0000000 magnetization 
 keeping initial charge density in first step


--------------------------------------------------------------------------------------------------------


 Maximum index for augmentation-charges         1089 (set IRDMAX)


--------------------------------------------------------------------------------------------------------


 First call to EWALD:  gamma=   0.245
 Maximum number of real-space cells 3x 3x 3
 Maximum number of reciprocal cells 3x 3x 3

    FEWALD:  cpu time    0.0091: real time    0.0091


--------------------------------------- Iteration      1(   1)  ---------------------------------------


    POTLOK:  cpu time    0.0707: real time    0.0746
    SETDIJ:  cpu time    0.0441: real time    0.0442
     EDDAV:  cpu time   26.9287: real time   26.9407
       DOS:  cpu time    0.0081: real time    0.0081
    --------------------------------------------
      LOOP:  cpu time   27.0516: real time   27.0677

 eigenvalue-minimisations  : 15360
 total energy-change (2. order) : 0.5013608E+03  (-0.1131471E+05)
 number of electron     256.0000000 magnetization 
 augmentation part      256.0000000 magnetization 

 Free energy of the ion-electron system (eV)
  ---------------------------------------------------
  alpha Z        PSCENC =       883.97221347
  Ewald energy   TEWEN  =    -10990.11478273
  -Hartree energ DENC   =      -591.50293987
  -exchange      EXHF   =         0.00000000
  -V(xc)+E(xc)   XCENC  =       907.18080383
  PAW double counting   =      2421.21235816    -2494.84305711
  entropy T*S    EENTRO =        -0.01267207
  eigenvalues    EBANDS =       949.32655635
  atomic energy  EATOM  =      9416.14232778
  Solvation  Ediel_sol  =         0.00000000
  ---------------------------------------------------
  free energy    TOTEN  =       501.36080779 eV

  energy without entropy =      501.37347987  energy(sigma->0) =      501.36714383


--------------------------------------------------------------------------------------------------------




--------------------------------------- Iteration      1(   2)  ---------------------------------------


     EDDAV:  cpu time   33.4849: real time   33.4874
       DOS:  cpu time    0.0043: real time    0.0043
    --------------------------------------------
      LOOP:  cpu time   33.4892: real time   33.4917

 eigenvalue-minimisations  : 20352
 total energy-change (2. order) :-0.1058492E+04  (-0.1008249E+04)
 number of electron     256.0000000 magnetization 
 augmentation part      256.0000000 magnetization 

 Free energy of the ion-electron system (eV)
  ---------------------------------------------------
  alpha Z        PSCENC =       883.97221347
  Ewald energy   TEWEN  =    -10990.11478273
  -Hartree energ DENC   =      -591.50293987
  -exchange      EXHF   =         0.00000000
  -V(xc)+E(xc)   XCENC  =       907.18080383
  PAW double counting   =      2421.21235816    -2494.84305711
  entropy T*S    EENTRO =        -0.00000000
  eigenvalues    EBANDS =      -109.17797679
  atomic energy  EATOM  =      9416.14232778
  Solvation  Ediel_sol  =         0.00000000
  ---------------------------------------------------
  free energy    TOTEN  =      -557.13105327 eV

  energy without entropy =     -557.13105327  energy(sigma->0) =     -557.13105327


--------------------------------------------------------------------------------------------------------




--------------------------------------- Iteration      1(   3)  ---------------------------------------


     EDDAV:  cpu time   34.1179: real time   34.1204
       DOS:  cpu time    0.0047: real time    0.0047
    --------------------------------------------
      LOOP:  cpu time   34.1226: real time   34.1251

 eigenvalue-minimisations  : 20448
 total energy-change (2. order) :-0.4165410E+02  (-0.4140594E+02)
 number of electron     256.0000000 magnetization 
 augmentation part      256.0000000 magnetization 

 Free energy of the ion-electron system (eV)
  ---------------------------------------------------
  alpha Z        PSCENC =       883.97221347
  Ewald energy   TEWEN  =    -10990.11478273
  -Hartree energ DENC   =      -591.50293987
  -exchange      EXHF   =         0.00000000
  -V(xc)+E(xc)   XCENC  =       907.18080383
  PAW double counting   =      2421.21235816    -2494.84305711
  entropy T*S    EENTRO =        -0.00000000
  eigenvalues    EBANDS =      -150.83207991
  atomic energy  EATOM  =      9416.14232778
  Solvation  Ediel_sol  =         0.00000000
  ---------------------------------------------------
  free energy    TOTEN  =      -598.78515639 eV

  energy without entropy =     -598.78515639  energy(sigma->0) =     -598.78515639


--------------------------------------------------------------------------------------------------------




--------------------------------------- Iteration      1(   4)  ---------------------------------------


     EDDAV:  cpu time   34.1720: real time   34.1744
       DOS:  cpu time    0.0043: real time    0.0043
    --------------------------------------------
      LOOP:  cpu time   34.1763: real time   34.1786

 eigenvalue-minimisations  : 20608
 total energy-change (2. order) :-0.4713367E+00  (-0.4704213E+00)
 number of electron     256.0000000 magnetization 
 augmentation part      256.0000000 magnetization 

 Free energy of the ion-electron system (eV)
  ---------------------------------------------------
  alpha Z        PSCENC =       883.97221347
  Ewald energy   TEWEN  =    -10990.11478273
  -Hartree energ DENC   =      -591.50293987
  -exchange      EXHF   =         0.00000000
  -V(xc)+E(xc)   XCENC  =       907.18080383
  PAW double counting   =      2421.21235816    -2494.84305711
  entropy T*S    EENTRO =        -0.00000000
  eigenvalues    EBANDS =      -151.30341662
  atomic energy  EATOM  =      9416.14232778
  Solvation  Ediel_sol  =         0.00000000
  ---------------------------------------------------
  free energy    TOTEN  =      -599.25649310 eV

  energy without entropy =     -599.25649310  energy(sigma->0) =     -599.25649310


--------------------------------------------------------------------------------------------------------




--------------------------------------- Iteration      1(   5)  ---------------------------------------


     EDDAV:  cpu time   32.1182: real time   32.1204
       DOS:  cpu time    0.0043: real time    0.0043
    CHARGE:  cpu time    0.7632: real time    0.7634
    MIXING:  cpu time    0.0042: real time    0.0042
    --------------------------------------------
      LOOP:  cpu time   32.8899: real time   32.8924

 eigenvalue-minimisations  : 19232
 total energy-change (2. order) :-0.9389436E-02  (-0.9385675E-02)
 number of electron     256.0000001 magnetization 
 augmentation part        6.0594340 magnetization 

 Broyden mixing:
  rms(total) = 0.25622E+01    rms(broyden)= 0.25617E+01
  rms(prec ) = 0.37263E+01
  weight for this iteration     100.00

 Free energy of the ion-electron system (eV)
  ---------------------------------------------------
  alpha Z        PSCENC =       883.97221347
  Ewald energy   TEWEN  =    -10990.11478273
  -Hartree energ DENC   =      -591.50293987
  -exchange      EXHF   =         0.00000000
  -V(xc)+E(xc)   XCENC  =       907.18080383
  PAW double counting   =      2421.21235816    -2494.84305711
  entropy T*S    EENTRO =        -0.00000000
  eigenvalues    EBANDS =      -151.31280606
  atomic energy  EATOM  =      9416.14232778
  Solvation  Ediel_sol  =         0.00000000
  ---------------------------------------------------
  free energy    TOTEN  =      -599.26588254 eV

  energy without entropy =     -599.26588254  energy(sigma->0) =     -599.26588254


--------------------------------------------------------------------------------------------------------




--------------------------------------- Iteration      1(   6)  ---------------------------------------


    POTLOK:  cpu time    0.0840: real time    0.0843
    SETDIJ:  cpu time    0.0414: real time    0.0414
     EDDAV:  cpu time   30.9678: real time   30.9697
       DOS:  cpu time    0.0043: real time    0.0043
    CHARGE:  cpu time    0.7578: real time    0.7578
    MIXING:  cpu time    0.0043: real time    0.0043
    --------------------------------------------
      LOOP:  cpu time   31.8596: real time   31.8618

 eigenvalue-minimisations  : 18080
 total energy-change (2. order) : 0.1342666E+02  (-0.8948625E+00)
 number of electron     256.0000001 magnetization 
 augmentation part        5.9233229 magnetization 

 Broyden mixing:
  rms(total) = 0.14138E+01    rms(broyden)= 0.14137E+01
  rms(prec ) = 0.20361E+01
  weight for this iteration     100.00

 eigenvalues of (default mixing * dielectric matrix)
  average eigenvalue GAMMA=   2.1819
  2.1819

 Free energy of the ion-electron system (eV)
  ---------------------------------------------------
  alpha Z        PSCENC =       883.97221347
  Ewald energy   TEWEN  =    -10990.11478273
  -Hartree energ DENC   =      -708.55978616
  -exchange      EXHF   =         0.00000000
  -V(xc)+E(xc)   XCENC  =       918.10002975
  PAW double counting   =      3094.91747460    -3172.47662403
  entropy T*S    EENTRO =        -0.00000000
  eigenvalues    EBANDS =       -27.82007379
  atomic energy  EATOM  =      9416.14232778
  Solvation  Ediel_sol  =         0.00000000
  ---------------------------------------------------
  free energy    TOTEN  =      -585.83922110 eV

  energy without entropy =     -585.83922110  energy(sigma->0) =     -585.83922110


--------------------------------------------------------------------------------------------------------




--------------------------------------- Iteration      1(   7)  ---------------------------------------


    POTLOK:  cpu time    0.0580: real time    0.0584
    SETDIJ:  cpu time    0.0395: real time    0.0395
     EDDAV:  cpu time   31.6339: real time   31.6358
       DOS:  cpu time    0.0045: real time    0.0045
    CHARGE:  cpu time    0.7583: real time    0.7584
    MIXING:  cpu time    0.0043: real time    0.0043
    --------------------------------------------
      LOOP:  cpu time   32.4986: real time   32.5009

 eigenvalue-minimisations  : 18624
 total energy-change (2. order) : 0.4539480E+01  (-0.1033362E+01)
 number of electron     256.0000001 magnetization 
 augmentation part        5.7807781 magnetization 

 Broyden mixing:
  rms(total) = 0.19260E+00    rms(broyden)= 0.19167E+00
  rms(prec ) = 0.23554E+00
  weight for this iteration     100.00

 eigenvalues of (default mixing * dielectric matrix)
  average eigenvalue GAMMA=   2.2729
  2.0110  2.5347

 Free energy of the ion-electron system (eV)
  ---------------------------------------------------
  alpha Z        PSCENC =       883.97221347
  Ewald energy   TEWEN  =    -10990.11478273
  -Hartree energ DENC   =      -858.78925681
  -exchange      EXHF   =         0.00000000
  -V(xc)+E(xc)   XCENC  =       932.30056011
  PAW double counting   =      4008.58069574    -4089.86727775
  entropy T*S    EENTRO =        -0.00000000
  eigenvalues    EBANDS =       116.47577877
  atomic energy  EATOM  =      9416.14232778
  Solvation  Ediel_sol  =         0.00000000
  ---------------------------------------------------
  free energy    TOTEN  =      -581.29974142 eV

  energy without entropy =     -581.29974142  energy(sigma->0) =     -581.29974142


--------------------------------------------------------------------------------------------------------




--------------------------------------- Iteration      1(   8)  ---------------------------------------


    POTLOK:  cpu time    0.0686: real time    0.0741
    SETDIJ:  cpu time    0.0394: real time    0.0394
     EDDAV:  cpu time   32.6316: real time   32.6336
       DOS:  cpu time    0.0046: real time    0.0046
    CHARGE:  cpu time    0.7583: real time    0.7583
    MIXING:  cpu time    0.0047: real time    0.0047
    --------------------------------------------
      LOOP:  cpu time   33.5072: real time   33.5148

 eigenvalue-minimisations  : 19296
 total energy-change (2. order) :-0.5643421E-01  (-0.2344753E-01)
 number of electron     256.0000001 magnetization 
 augmentation part        5.7895167 magnetization 

 Broyden mixing:
  rms(total) = 0.20939E-01    rms(broyden)= 0.20652E-01
  rms(prec ) = 0.25388E-01
  weight for this iteration     100.00

 eigenvalues of (default mixing * dielectric matrix)
  average eigenvalue GAMMA=   2.1054
  1.4649  2.6854  2.1660

 Free energy of the ion-electron system (eV)
  ---------------------------------------------------
  alpha Z        PSCENC =       883.97221347
  Ewald energy   TEWEN  =    -10990.11478273
  -Hartree energ DENC   =      -861.57194587
  -exchange      EXHF   =         0.00000000
  -V(xc)+E(xc)   XCENC  =       932.58706466
  PAW double counting   =      4065.28148968    -4145.54042950
  entropy T*S    EENTRO =        -0.00000000
  eigenvalues    EBANDS =       117.88788688
  atomic energy  EATOM  =      9416.14232778
  Solvation  Ediel_sol  =         0.00000000
  ---------------------------------------------------
  free energy    TOTEN  =      -581.35617563 eV

  energy without entropy =     -581.35617563  energy(sigma->0) =     -581.35617563


--------------------------------------------------------------------------------------------------------




--------------------------------------- Iteration      1(   9)  ---------------------------------------


    POTLOK:  cpu time    0.0628: real time    0.0634
    SETDIJ:  cpu time    0.0408: real time    0.0408
     EDDAV:  cpu time   33.6579: real time   33.6599
       DOS:  cpu time    0.0043: real time    0.0043
    CHARGE:  cpu time    0.7759: real time    0.7759
    MIXING:  cpu time    0.0052: real time    0.0052
    --------------------------------------------
      LOOP:  cpu time   34.5468: real time   34.5495

 eigenvalue-minimisations  : 19936
 total energy-change (2. order) :-0.2152844E-02  (-0.3635487E-03)
 number of electron     256.0000001 magnetization 
 augmentation part        5.7884785 magnetization 

 Broyden mixing:
  rms(total) = 0.78308E-02    rms(broyden)= 0.78099E-02
  rms(prec ) = 0.99844E-02
  weight for this iteration     100.00

 eigenvalues of (default mixing * dielectric matrix)
  average eigenvalue GAMMA=   2.0483
  0.9678  2.7654  2.4731  1.9868

 Free energy of the ion-electron system (eV)
  ---------------------------------------------------
  alpha Z        PSCENC =       883.97221347
  Ewald energy   TEWEN  =    -10990.11478273
  -Hartree energ DENC   =      -861.07427229
  -exchange      EXHF   =         0.00000000
  -V(xc)+E(xc)   XCENC  =       932.53834504
  PAW double counting   =      4060.64657251    -4140.80556303
  entropy T*S    EENTRO =        -0.00000000
  eigenvalues    EBANDS =       117.33683077
  atomic energy  EATOM  =      9416.14232778
  Solvation  Ediel_sol  =         0.00000000
  ---------------------------------------------------
  free energy    TOTEN  =      -581.35832847 eV

  energy without entropy =     -581.35832847  energy(sigma->0) =     -581.35832847


--------------------------------------------------------------------------------------------------------




--------------------------------------- Iteration      1(  10)  ---------------------------------------


    POTLOK:  cpu time    0.0577: real time    0.0580
    SETDIJ:  cpu time    0.0398: real time    0.0398
     EDDAV:  cpu time   31.7356: real time   31.7376
       DOS:  cpu time    0.0048: real time    0.0048
    CHARGE:  cpu time    0.7605: real time    0.7606
    MIXING:  cpu time    0.0045: real time    0.0045
    --------------------------------------------
      LOOP:  cpu time   32.6029: real time   32.6053

 eigenvalue-minimisations  : 18656
 total energy-change (2. order) :-0.4652299E-03  (-0.4282969E-04)
 number of electron     256.0000001 magnetization 
 augmentation part        5.7881825 magnetization 

 Broyden mixing:
  rms(total) = 0.78709E-03    rms(broyden)= 0.77129E-03
  rms(prec ) = 0.11667E-02
  weight for this iteration     100.00

 eigenvalues of (default mixing * dielectric matrix)
  average eigenvalue GAMMA=   1.9633
  2.9456  2.5513  2.0668  0.9853  1.2675

 Free energy of the ion-electron system (eV)
  ---------------------------------------------------
  alpha Z        PSCENC =       883.97221347
  Ewald energy   TEWEN  =    -10990.11478273
  -Hartree energ DENC   =      -861.48298387
  -exchange      EXHF   =         0.00000000
  -V(xc)+E(xc)   XCENC  =       932.57407442
  PAW double counting   =      4057.35555359    -4137.52930390
  entropy T*S    EENTRO =        -0.00000000
  eigenvalues    EBANDS =       117.72410754
  atomic energy  EATOM  =      9416.14232778
  Solvation  Ediel_sol  =         0.00000000
  ---------------------------------------------------
  free energy    TOTEN  =      -581.35879370 eV

  energy without entropy =     -581.35879370  energy(sigma->0) =     -581.35879370


--------------------------------------------------------------------------------------------------------




--------------------------------------- Iteration      1(  11)  ---------------------------------------


    POTLOK:  cpu time    0.0579: real time    0.0584
    SETDIJ:  cpu time    0.0468: real time    0.0468
     EDDAV:  cpu time   34.0260: real time   34.0281
       DOS:  cpu time    0.0055: real time    0.0055
    CHARGE:  cpu time    0.7603: real time    0.7603
    MIXING:  cpu time    0.0054: real time    0.0054
    --------------------------------------------
      LOOP:  cpu time   34.9019: real time   34.9046

 eigenvalue-minimisations  : 20224
 total energy-change (2. order) :-0.4307140E-05  (-0.1145021E-05)
 number of electron     256.0000001 magnetization 
 augmentation part        5.7879835 magnetization 

 Broyden mixing:
  rms(total) = 0.20578E-03    rms(broyden)= 0.19977E-03
  rms(prec ) = 0.27420E-03
  weight for this iteration     100.00

 eigenvalues of (default mixing * dielectric matrix)
  average eigenvalue GAMMA=   1.9963
  2.9940  2.5815  2.3940  2.0220  0.9932  0.9932

 Free energy of the ion-electron system (eV)
  ---------------------------------------------------
  alpha Z        PSCENC =       883.97221347
  Ewald energy   TEWEN  =    -10990.11478273
  -Hartree energ DENC   =      -861.60235368
  -exchange      EXHF   =         0.00000000
  -V(xc)+E(xc)   XCENC  =       932.58519150
  PAW double counting   =      4057.70830399    -4137.88688176
  entropy T*S    EENTRO =        -0.00000000
  eigenvalues    EBANDS =       117.83718341
  atomic energy  EATOM  =      9416.14232778
  Solvation  Ediel_sol  =         0.00000000
  ---------------------------------------------------
  free energy    TOTEN  =      -581.35879801 eV

  energy without entropy =     -581.35879801  energy(sigma->0) =     -581.35879801


--------------------------------------------------------------------------------------------------------




--------------------------------------- Iteration      1(  12)  ---------------------------------------


    POTLOK:  cpu time    0.0592: real time    0.0596
    SETDIJ:  cpu time    0.0399: real time    0.0399
     EDDAV:  cpu time   33.5974: real time   33.5994
       DOS:  cpu time    0.0044: real time    0.0044
    CHARGE:  cpu time    0.7635: real time    0.7635
    MIXING:  cpu time    0.0050: real time    0.0050
    --------------------------------------------
      LOOP:  cpu time   34.4694: real time   34.4719

 eigenvalue-minimisations  : 19680
 total energy-change (2. order) :-0.1822391E-06  (-0.4813571E-07)
 number of electron     256.0000001 magnetization 
 augmentation part        5.7880044 magnetization 

 Broyden mixing:
  rms(total) = 0.18321E-04    rms(broyden)= 0.16798E-04
  rms(prec ) = 0.22377E-04
  weight for this iteration     100.00

 eigenvalues of (default mixing * dielectric matrix)
  average eigenvalue GAMMA=   1.8782
  2.9464  2.6400  2.4991  2.0357  0.9687  1.0288  1.0288

 Free energy of the ion-electron system (eV)
  ---------------------------------------------------
  alpha Z        PSCENC =       883.97221347
  Ewald energy   TEWEN  =    -10990.11478273
  -Hartree energ DENC   =      -861.58492467
  -exchange      EXHF   =         0.00000000
  -V(xc)+E(xc)   XCENC  =       932.58358255
  PAW double counting   =      4057.76909175    -4137.94579070
  entropy T*S    EENTRO =        -0.00000000
  eigenvalues    EBANDS =       117.81948435
  atomic energy  EATOM  =      9416.14232778
  Solvation  Ediel_sol  =         0.00000000
  ---------------------------------------------------
  free energy    TOTEN  =      -581.35879819 eV

  energy without entropy =     -581.35879819  energy(sigma->0) =     -581.35879819


--------------------------------------------------------------------------------------------------------




--------------------------------------- Iteration      1(  13)  ---------------------------------------


    POTLOK:  cpu time    0.0572: real time    0.0576
    SETDIJ:  cpu time    0.0446: real time    0.0446
     EDDAV:  cpu time   28.1244: real time   28.1261
       DOS:  cpu time    0.0040: real time    0.0040
    CHARGE:  cpu time    0.7576: real time    0.7577
    MIXING:  cpu time    0.0052: real time    0.0052
    --------------------------------------------
      LOOP:  cpu time   28.9931: real time   28.9952

 eigenvalue-minimisations  : 15008
 total energy-change (2. order) :-0.1060653E-06  (-0.6728276E-09)
 number of electron     256.0000001 magnetization 
 augmentation part        5.7880016 magnetization 

 Broyden mixing:
  rms(total) = 0.46024E-05    rms(broyden)= 0.43570E-05
  rms(prec ) = 0.54232E-05
  weight for this iteration     100.00

 eigenvalues of (default mixing * dielectric matrix)
  average eigenvalue GAMMA=   2.0077
  2.9653  2.9653  2.0368  2.6075  2.4990  1.0100  1.0100  0.9680

 Free energy of the ion-electron system (eV)
  ---------------------------------------------------
  alpha Z        PSCENC =       883.97221347
  Ewald energy   TEWEN  =    -10990.11478273
  -Hartree energ DENC   =      -861.58353552
  -exchange      EXHF   =         0.00000000
  -V(xc)+E(xc)   XCENC  =       932.58345088
  PAW double counting   =      4057.76739146    -4137.94405161
  entropy T*S    EENTRO =        -0.00000000
  eigenvalues    EBANDS =       117.81818797
  atomic energy  EATOM  =      9416.14232778
  Solvation  Ediel_sol  =         0.00000000
  ---------------------------------------------------
  free energy    TOTEN  =      -581.35879830 eV

  energy without entropy =     -581.35879830  energy(sigma->0) =     -581.35879830


--------------------------------------------------------------------------------------------------------




--------------------------------------- Iteration      1(  14)  ---------------------------------------


    POTLOK:  cpu time    0.0586: real time    0.0589
    SETDIJ:  cpu time    0.0407: real time    0.0407
     EDDAV:  cpu time   25.9368: real time   25.9384
       DOS:  cpu time    0.0043: real time    0.0043
    CHARGE:  cpu time    0.7597: real time    0.7598
    MIXING:  cpu time    0.0058: real time    0.0058
    --------------------------------------------
      LOOP:  cpu time   26.8060: real time   26.8080

 eigenvalue-minimisations  : 13536
 total energy-change (2. order) :-0.1403714E-07  (-0.1033545E-09)
 number of electron     256.0000001 magnetization 
 augmentation part        5.7880017 magnetization 

 Broyden mixing:
  rms(total) = 0.17677E-05    rms(broyden)= 0.17486E-05
  rms(prec ) = 0.23675E-05
  weight for this iteration     100.00

 eigenvalues of (default mixing * dielectric matrix)
  average eigenvalue GAMMA=   1.8646
  2.0403  2.9198  2.7298  2.5340  2.5340  0.9826  0.9826  1.0293  1.0293

 Free energy of the ion-electron system (eV)
  ---------------------------------------------------
  alpha Z        PSCENC =       883.97221347
  Ewald energy   TEWEN  =    -10990.11478273
  -Hartree energ DENC   =      -861.58313185
  -exchange      EXHF   =         0.00000000
  -V(xc)+E(xc)   XCENC  =       932.58341332
  PAW double counting   =      4057.76169601    -4137.93834230
  entropy T*S    EENTRO =        -0.00000000
  eigenvalues    EBANDS =       117.81780798
  atomic energy  EATOM  =      9416.14232778
  Solvation  Ediel_sol  =         0.00000000
  ---------------------------------------------------
  free energy    TOTEN  =      -581.35879831 eV

  energy without entropy =     -581.35879831  energy(sigma->0) =     -581.35879831


--------------------------------------------------------------------------------------------------------




--------------------------------------- Iteration      1(  15)  ---------------------------------------


    POTLOK:  cpu time    0.0599: real time    0.0603
    SETDIJ:  cpu time    0.0403: real time    0.0403
     EDDAV:  cpu time   24.3244: real time   24.3259
       DOS:  cpu time    0.0042: real time    0.0042
    --------------------------------------------
      LOOP:  cpu time   24.4288: real time   24.4306

 eigenvalue-minimisations  : 12192
 total energy-change (2. order) : 0.4874892E-09  (-0.2579322E-10)
 number of electron     256.0000001 magnetization 
 augmentation part        5.7880017 magnetization 

 Free energy of the ion-electron system (eV)
  ---------------------------------------------------
  alpha Z        PSCENC =       883.97221347
  Ewald energy   TEWEN  =    -10990.11478273
  -Hartree energ DENC   =      -861.58327253
  -exchange      EXHF   =         0.00000000
  -V(xc)+E(xc)   XCENC  =       932.58342650
  PAW double counting   =      4057.76265857    -4137.93931607
  entropy T*S    EENTRO =        -0.00000000
  eigenvalues    EBANDS =       117.81794669
  atomic energy  EATOM  =      9416.14232778
  Solvation  Ediel_sol  =         0.00000000
  ---------------------------------------------------
  free energy    TOTEN  =      -581.35879831 eV

  energy without entropy =     -581.35879831  energy(sigma->0) =     -581.35879831


--------------------------------------------------------------------------------------------------------




 average (electrostatic) potential at core
  the test charge radii are     0.6991
  (the norm of the test charge is              1.0000)
       1 -45.9436       2 -45.9436       3 -45.9436       4 -45.9436       5 -45.9436
       6 -45.9436       7 -45.9436       8 -45.9436       9 -45.9436      10 -45.9436
      11 -45.9436      12 -45.9436      13 -45.9436      14 -45.9436      15 -45.9436
      16 -45.9436      17 -45.9436      18 -45.9436      19 -45.9436      20 -45.9436
      21 -45.9436      22 -45.9436      23 -45.9436      24 -45.9436      25 -45.9436
      26 -45.9436      27 -45.9436      28 -45.9436      29 -45.9436      30 -45.9436
      31 -45.9436      32 -45.9436      33 -45.9436      34 -45.9436      35 -45.9436
      36 -45.9436      37 -45.9436      38 -45.9436      39 -45.9436      40 -45.9436
      41 -45.9436      42 -45.9436      43 -45.9436      44 -45.9436      45 -45.9436
      46 -45.9436      47 -45.9436      48 -45.9436      49 -45.9436      50 -45.9436
      51 -45.9436      52 -45.9436      53 -45.9436      54 -45.9436      55 -45.9436
      56 -45.9436      57 -45.9436      58 -45.9436      59 -45.9436      60 -45.9436
      61 -45.9436      62 -45.9436      63 -45.9436      64 -45.9436
 
 
 
 E-fermi :   9.5869     XC(G=0): -13.0277     alpha+bet :-17.0175


 k-point     1 :       0.0000    0.0000    0.0000
  band No.  band energies     occupation 
      1     -11.7623      2.00000
      2      -9.5543      2.00000
      3      -9.5543      2.00000
      4      -9.5543      2.00000
      5      -9.5543      2.00000
      6      -9.5108      2.00000
      7      -9.5108      2.00000
      8      -7.4506      2.00000
[...]
      4.532152  0.906430  6.282499    -0.067137    0.100352    0.004601  
      0.906430  4.532152  6.282499     0.067137   -0.100352   -0.004601  
      4.532152  4.532152  6.282499     0.067137    0.100352    0.014896  
      0.000000  1.812861  0.000000    -0.005134   -0.151139    0.008514  
      3.625721  1.812861  0.000000    -0.005134    0.151139    0.006929  
      0.000000  5.438582  0.000000     0.005134   -0.151139   -0.006929  
      3.625721  5.438582  0.000000     0.005134    0.151139   -0.008514  
      0.000000  1.812861  3.589999    -0.005134   -0.151139    0.008514  
      3.625721  1.812861  3.589999    -0.005134    0.151139    0.006929  
      0.000000  5.438582  3.589999     0.005134   -0.151139   -0.006929  
      3.625721  5.438582  3.589999     0.005134    0.151139   -0.008514  
      2.719291  2.719291  2.692500     0.059877    0.113391   -0.014399  
      6.345013  2.719291  2.692500     0.059877   -0.113391    0.002856  
      2.719291  6.345013  2.692500    -0.059877    0.113391   -0.002856  
      6.345013  6.345013  2.692500    -0.059877   -0.113391    0.014399  
      2.719291  2.719291  6.282499     0.059877    0.113391   -0.014399  
      6.345013  2.719291  6.282499     0.059877   -0.113391    0.002856  
      2.719291  6.345013  6.282499    -0.059877    0.113391   -0.002856  
      6.345013  6.345013  6.282499    -0.059877   -0.113391    0.014399  
      1.812861  0.000000  0.000000    -0.089812    0.009220    0.012552  
      5.438582  0.000000  0.000000    -0.089812   -0.009220   -0.013435  
      1.812861  3.625721  0.000000     0.089812    0.009220    0.013435  
      5.438582  3.625721  0.000000     0.089812   -0.009220   -0.012552  
      1.812861  0.000000  3.589999    -0.089812    0.009220    0.012552  
      5.438582  0.000000  3.589999    -0.089812   -0.009220   -0.013435  
      1.812861  3.625721  3.589999     0.089812    0.009220    0.013435  
      5.438582  3.625721  3.589999     0.089812   -0.009220   -0.012552  
      2.719291  0.906430  0.897500    -0.067137    0.113391   -0.013775  
      6.345013  0.906430  0.897500    -0.067137   -0.113391    0.003480  
      2.719291  4.532152  0.897500     0.067137    0.113391   -0.003480  
      6.345013  4.532152  0.897500     0.067137   -0.113391    0.013775  
      2.719291  0.906430  4.487499    -0.067137    0.113391   -0.013775  
      6.345013  0.906430  4.487499    -0.067137   -0.113391    0.003480  
      2.719291  4.532152  4.487499     0.067137    0.113391   -0.003480  
      6.345013  4.532152  4.487499     0.067137   -0.113391    0.013775  
      1.812861  1.812861  1.795000    -0.005134    0.009220    0.020715  
      5.438582  1.812861  1.795000    -0.005134   -0.009220   -0.005272  
      1.812861  5.438582  1.795000     0.005134    0.009220    0.005272  
      5.438582  5.438582  1.795000     0.005134   -0.009220   -0.020715  
      1.812861  1.812861  5.384999    -0.005134    0.009220    0.020715  
      5.438582  1.812861  5.384999    -0.005134   -0.009220   -0.005272  
      1.812861  5.438582  5.384999     0.005134    0.009220    0.005272  
      5.438582  5.438582  5.384999     0.005134   -0.009220   -0.020715  
 
 190 f  =    0.000002 THz     0.000013 2PiTHz    0.000069 cm-1     0.000009 meV
             X         Y         Z           dx          dy          dz
      0.906430  2.719291  0.897500     0.000450    0.000611   -0.124998  
      4.532152  2.719291  0.897500     0.000450    0.000611   -0.124998  
      0.906430  6.345013  0.897500     0.000450    0.000611   -0.124998  
      4.532152  6.345013  0.897500     0.000450    0.000611   -0.124998  
      0.906430  2.719291  4.487499     0.000450    0.000611   -0.124998  
      4.532152  2.719291  4.487499     0.000450    0.000611   -0.124998  
      0.906430  6.345013  4.487499     0.000450    0.000611   -0.124998  
      4.532152  6.345013  4.487499     0.000450    0.000611   -0.124998  
      0.000000  0.000000  1.795000     0.000450    0.000611   -0.124998  
      3.625721  0.000000  1.795000     0.000450    0.000611   -0.124998  
      0.000000  3.625721  1.795000     0.000450    0.000611   -0.124998  
      3.625721  3.625721  1.795000     0.000450    0.000611   -0.124998  
      0.000000  0.000000  5.384999     0.000450    0.000611   -0.124998  
      3.625721  0.000000  5.384999     0.000450    0.000611   -0.124998  
      0.000000  3.625721  5.384999     0.000450    0.000611   -0.124998  
      3.625721  3.625721  5.384999     0.000450    0.000611   -0.124998  
      0.906430  0.906430  2.692500     0.000450    0.000611   -0.124998  
      4.532152  0.906430  2.692500     0.000450    0.000611   -0.124998  
      0.906430  4.532152  2.692500     0.000450    0.000611   -0.124998  
      4.532152  4.532152  2.692500     0.000450    0.000611   -0.124998  
      0.906430  0.906430  6.282499     0.000450    0.000611   -0.124998  
      4.532152  0.906430  6.282499     0.000450    0.000611   -0.124998  
      0.906430  4.532152  6.282499     0.000450    0.000611   -0.124998  
      4.532152  4.532152  6.282499     0.000450    0.000611   -0.124998  
      0.000000  1.812861  0.000000     0.000450    0.000611   -0.124998  
      3.625721  1.812861  0.000000     0.000450    0.000611   -0.124998  
      0.000000  5.438582  0.000000     0.000450    0.000611   -0.124998  
      3.625721  5.438582  0.000000     0.000450    0.000611   -0.124998  
      0.000000  1.812861  3.589999     0.000450    0.000611   -0.124998  
      3.625721  1.812861  3.589999     0.000450    0.000611   -0.124998  
      0.000000  5.438582  3.589999     0.000450    0.000611   -0.124998  
      3.625721  5.438582  3.589999     0.000450    0.000611   -0.124998  
      2.719291  2.719291  2.692500     0.000450    0.000611   -0.124998  
      6.345013  2.719291  2.692500     0.000450    0.000611   -0.124998  
      2.719291  6.345013  2.692500     0.000450    0.000611   -0.124998  
      6.345013  6.345013  2.692500     0.000450    0.000611   -0.124998  
      2.719291  2.719291  6.282499     0.000450    0.000611   -0.124998  
      6.345013  2.719291  6.282499     0.000450    0.000611   -0.124998  
      2.719291  6.345013  6.282499     0.000450    0.000611   -0.124998  
      6.345013  6.345013  6.282499     0.000450    0.000611   -0.124998  
      1.812861  0.000000  0.000000     0.000450    0.000611   -0.124998  
      5.438582  0.000000  0.000000     0.000450    0.000611   -0.124998  
      1.812861  3.625721  0.000000     0.000450    0.000611   -0.124998  
      5.438582  3.625721  0.000000     0.000450    0.000611   -0.124998  
      1.812861  0.000000  3.589999     0.000450    0.000611   -0.124998  
      5.438582  0.000000  3.589999     0.000450    0.000611   -0.124998  
      1.812861  3.625721  3.589999     0.000450    0.000611   -0.124998  
      5.438582  3.625721  3.589999     0.000450    0.000611   -0.124998  
      2.719291  0.906430  0.897500     0.000450    0.000611   -0.124998  
      6.345013  0.906430  0.897500     0.000450    0.000611   -0.124998  
      2.719291  4.532152  0.897500     0.000450    0.000611   -0.124998  
      6.345013  4.532152  0.897500     0.000450    0.000611   -0.124998  
      2.719291  0.906430  4.487499     0.000450    0.000611   -0.124998  
      6.345013  0.906430  4.487499     0.000450    0.000611   -0.124998  
      2.719291  4.532152  4.487499     0.000450    0.000611   -0.124998  
      6.345013  4.532152  4.487499     0.000450    0.000611   -0.124998  
      1.812861  1.812861  1.795000     0.000450    0.000611   -0.124998  
      5.438582  1.812861  1.795000     0.000450    0.000611   -0.124998  
      1.812861  5.438582  1.795000     0.000450    0.000611   -0.124998  
      5.438582  5.438582  1.795000     0.000450    0.000611   -0.124998  
      1.812861  1.812861  5.384999     0.000450    0.000611   -0.124998  
      5.438582  1.812861  5.384999     0.000450    0.000611   -0.124998  
      1.812861  5.438582  5.384999     0.000450    0.000611   -0.124998  
      5.438582  5.438582  5.384999     0.000450    0.000611   -0.124998  
 
 191 f  =    0.000002 THz     0.000010 2PiTHz    0.000053 cm-1     0.000007 meV
             X         Y         Z           dx          dy          dz
      0.906430  2.719291  0.897500     0.098429   -0.077050   -0.000022  
      4.532152  2.719291  0.897500     0.098429   -0.077050   -0.000022  
      0.906430  6.345013  0.897500     0.098429   -0.077050   -0.000022  
      4.532152  6.345013  0.897500     0.098429   -0.077050   -0.000022  
      0.906430  2.719291  4.487499     0.098429   -0.077050   -0.000022  
      4.532152  2.719291  4.487499     0.098429   -0.077050   -0.000022  
      0.906430  6.345013  4.487499     0.098429   -0.077050   -0.000022  
      4.532152  6.345013  4.487499     0.098429   -0.077050   -0.000022  
      0.000000  0.000000  1.795000     0.098429   -0.077050   -0.000022  
      3.625721  0.000000  1.795000     0.098429   -0.077050   -0.000022  
      0.000000  3.625721  1.795000     0.098429   -0.077050   -0.000022  
      3.625721  3.625721  1.795000     0.098429   -0.077050   -0.000022  
      0.000000  0.000000  5.384999     0.098429   -0.077050   -0.000022  
      3.625721  0.000000  5.384999     0.098429   -0.077050   -0.000022  
      0.000000  3.625721  5.384999     0.098429   -0.077050   -0.000022  
      3.625721  3.625721  5.384999     0.098429   -0.077050   -0.000022  
      0.906430  0.906430  2.692500     0.098429   -0.077050   -0.000022  
      4.532152  0.906430  2.692500     0.098429   -0.077050   -0.000022  
      0.906430  4.532152  2.692500     0.098429   -0.077050   -0.000022  
      4.532152  4.532152  2.692500     0.098429   -0.077050   -0.000022  
      0.906430  0.906430  6.282499     0.098429   -0.077050   -0.000022  
      4.532152  0.906430  6.282499     0.098429   -0.077050   -0.000022  
      0.906430  4.532152  6.282499     0.098429   -0.077050   -0.000022  
      4.532152  4.532152  6.282499     0.098429   -0.077050   -0.000022  
      0.000000  1.812861  0.000000     0.098429   -0.077050   -0.000022  
      3.625721  1.812861  0.000000     0.098429   -0.077050   -0.000022  
      0.000000  5.438582  0.000000     0.098429   -0.077050   -0.000022  
      3.625721  5.438582  0.000000     0.098429   -0.077050   -0.000022  
      0.000000  1.812861  3.589999     0.098429   -0.077050   -0.000022  
      3.625721  1.812861  3.589999     0.098429   -0.077050   -0.000022  
      0.000000  5.438582  3.589999     0.098429   -0.077050   -0.000022  
      3.625721  5.438582  3.589999     0.098429   -0.077050   -0.000022  
      2.719291  2.719291  2.692500     0.098429   -0.077050   -0.000022  
      6.345013  2.719291  2.692500     0.098429   -0.077050   -0.000022  
      2.719291  6.345013  2.692500     0.098429   -0.077050   -0.000022  
      6.345013  6.345013  2.692500     0.098429   -0.077050   -0.000022  
      2.719291  2.719291  6.282499     0.098429   -0.077050   -0.000022  
      6.345013  2.719291  6.282499     0.098429   -0.077050   -0.000022  
      2.719291  6.345013  6.282499     0.098429   -0.077050   -0.000022  
      6.345013  6.345013  6.282499     0.098429   -0.077050   -0.000022  
      1.812861  0.000000  0.000000     0.098429   -0.077050   -0.000022  
      5.438582  0.000000  0.000000     0.098429   -0.077050   -0.000022  
      1.812861  3.625721  0.000000     0.098429   -0.077050   -0.000022  
      5.438582  3.625721  0.000000     0.098429   -0.077050   -0.000022  
      1.812861  0.000000  3.589999     0.098429   -0.077050   -0.000022  
      5.438582  0.000000  3.589999     0.098429   -0.077050   -0.000022  
      1.812861  3.625721  3.589999     0.098429   -0.077050   -0.000022  
      5.438582  3.625721  3.589999     0.098429   -0.077050   -0.000022  
      2.719291  0.906430  0.897500     0.098429   -0.077050   -0.000022  
      6.345013  0.906430  0.897500     0.098429   -0.077050   -0.000022  
      2.719291  4.532152  0.897500     0.098429   -0.077050   -0.000022  
      6.345013  4.532152  0.897500     0.098429   -0.077050   -0.000022  
      2.719291  0.906430  4.487499     0.098429   -0.077050   -0.000022  
      6.345013  0.906430  4.487499     0.098429   -0.077050   -0.000022  
      2.719291  4.532152  4.487499     0.098429   -0.077050   -0.000022  
      6.345013  4.532152  4.487499     0.098429   -0.077050   -0.000022  
      1.812861  1.812861  1.795000     0.098429   -0.077050   -0.000022  
      5.438582  1.812861  1.795000     0.098429   -0.077050   -0.000022  
      1.812861  5.438582  1.795000     0.098429   -0.077050   -0.000022  
      5.438582  5.438582  1.795000     0.098429   -0.077050   -0.000022  
      1.812861  1.812861  5.384999     0.098429   -0.077050   -0.000022  
      5.438582  1.812861  5.384999     0.098429   -0.077050   -0.000022  
      1.812861  5.438582  5.384999     0.098429   -0.077050   -0.000022  
      5.438582  5.438582  5.384999     0.098429   -0.077050   -0.000022  
 
 192 f/i=    0.000001 THz     0.000003 2PiTHz    0.000017 cm-1     0.000002 meV
             X         Y         Z           dx          dy          dz
      0.906430  2.719291  0.897500     0.077049    0.098427    0.000759  
      4.532152  2.719291  0.897500     0.077049    0.098427    0.000759  
      0.906430  6.345013  0.897500     0.077049    0.098427    0.000759  
      4.532152  6.345013  0.897500     0.077049    0.098427    0.000759  
      0.906430  2.719291  4.487499     0.077049    0.098427    0.000759  
      4.532152  2.719291  4.487499     0.077049    0.098427    0.000759  
      0.906430  6.345013  4.487499     0.077049    0.098427    0.000759  
      4.532152  6.345013  4.487499     0.077049    0.098427    0.000759  
      0.000000  0.000000  1.795000     0.077049    0.098427    0.000759  
      3.625721  0.000000  1.795000     0.077049    0.098427    0.000759  
      0.000000  3.625721  1.795000     0.077049    0.098427    0.000759  
      3.625721  3.625721  1.795000     0.077049    0.098427    0.000759  
      0.000000  0.000000  5.384999     0.077049    0.098427    0.000759  
      3.625721  0.000000  5.384999     0.077049    0.098427    0.000759  
      0.000000  3.625721  5.384999     0.077049    0.098427    0.000759  
      3.625721  3.625721  5.384999     0.077049    0.098427    0.000759  
      0.906430  0.906430  2.692500     0.077049    0.098427    0.000759  
      4.532152  0.906430  2.692500     0.077049    0.098427    0.000759  
      0.906430  4.532152  2.692500     0.077049    0.098427    0.000759  
      4.532152  4.532152  2.692500     0.077049    0.098427    0.000759  
      0.906430  0.906430  6.282499     0.077049    0.098427    0.000759  
      4.532152  0.906430  6.282499     0.077049    0.098427    0.000759  
      0.906430  4.532152  6.282499     0.077049    0.098427    0.000759  
      4.532152  4.532152  6.282499     0.077049    0.098427    0.000759  
      0.000000  1.812861  0.000000     0.077049    0.098427    0.000759  
      3.625721  1.812861  0.000000     0.077049    0.098427    0.000759  
      0.000000  5.438582  0.000000     0.077049    0.098427    0.000759  
      3.625721  5.438582  0.000000     0.077049    0.098427    0.000759  
      0.000000  1.812861  3.589999     0.077049    0.098427    0.000759  
      3.625721  1.812861  3.589999     0.077049    0.098427    0.000759  
      0.000000  5.438582  3.589999     0.077049    0.098427    0.000759  
      3.625721  5.438582  3.589999     0.077049    0.098427    0.000759  
      2.719291  2.719291  2.692500     0.077049    0.098427    0.000759  
      6.345013  2.719291  2.692500     0.077049    0.098427    0.000759  
      2.719291  6.345013  2.692500     0.077049    0.098427    0.000759  
      6.345013  6.345013  2.692500     0.077049    0.098427    0.000759  
      2.719291  2.719291  6.282499     0.077049    0.098427    0.000759  
      6.345013  2.719291  6.282499     0.077049    0.098427    0.000759  
      2.719291  6.345013  6.282499     0.077049    0.098427    0.000759  
      6.345013  6.345013  6.282499     0.077049    0.098427    0.000759  
      1.812861  0.000000  0.000000     0.077049    0.098427    0.000759  
      5.438582  0.000000  0.000000     0.077049    0.098427    0.000759  
      1.812861  3.625721  0.000000     0.077049    0.098427    0.000759  
      5.438582  3.625721  0.000000     0.077049    0.098427    0.000759  
      1.812861  0.000000  3.589999     0.077049    0.098427    0.000759  
      5.438582  0.000000  3.589999     0.077049    0.098427    0.000759  
      1.812861  3.625721  3.589999     0.077049    0.098427    0.000759  
      5.438582  3.625721  3.589999     0.077049    0.098427    0.000759  
      2.719291  0.906430  0.897500     0.077049    0.098427    0.000759  
      6.345013  0.906430  0.897500     0.077049    0.098427    0.000759  
      2.719291  4.532152  0.897500     0.077049    0.098427    0.000759  
      6.345013  4.532152  0.897500     0.077049    0.098427    0.000759  
      2.719291  0.906430  4.487499     0.077049    0.098427    0.000759  
      6.345013  0.906430  4.487499     0.077049    0.098427    0.000759  
      2.719291  4.532152  4.487499     0.077049    0.098427    0.000759  
      6.345013  4.532152  4.487499     0.077049    0.098427    0.000759  
      1.812861  1.812861  1.795000     0.077049    0.098427    0.000759  
      5.438582  1.812861  1.795000     0.077049    0.098427    0.000759  
      1.812861  5.438582  1.795000     0.077049    0.098427    0.000759  
      5.438582  5.438582  1.795000     0.077049    0.098427    0.000759  
      1.812861  1.812861  5.384999     0.077049    0.098427    0.000759  
      5.438582  1.812861  5.384999     0.077049    0.098427    0.000759  
      1.812861  5.438582  5.384999     0.077049    0.098427    0.000759  
      5.438582  5.438582  5.384999     0.077049    0.098427    0.000759  
 


--------------------------------------------------------------------------------------------------------



 ELASTIC MODULI CONTR FROM IONIC RELAXATION (kBar)
 Direction    XX          YY          ZZ          XY          YZ          ZX
 --------------------------------------------------------------------------------
 XX          -0.0000     -0.0000      0.0000     -0.0000      0.0000      0.0000
 YY          -0.0000     -0.0000     -0.0000     -0.0000      0.0000      0.0000
 ZZ           0.0000     -0.0000     -0.0000      0.0000     -0.0000      0.0000
 XY          -0.0000     -0.0000      0.0000     -9.1537      0.0000      0.0000
 YZ           0.0000      0.0000     -0.0000      0.0000     -7.2345      0.0000
 ZX           0.0000      0.0000      0.0000      0.0000      0.0000     -7.2344
 --------------------------------------------------------------------------------



--------------------------------------------------------------------------------------------------------


     LOOP+:  cpu time 2018.5285: real time 2019.0266
    4ORBIT:  cpu time    0.0000: real time    0.0000

 total amount of memory used by VASP MPI-rank0    93819. kBytes
=======================================================================

   base      :      30000. kBytes
   nonl-proj :      24772. kBytes
   fftplans  :       4537. kBytes
   grid      :       5806. kBytes
   one-center:        196. kBytes
   wavefun   :      28508. kBytes
 
  
  
 General timing and accounting informations for this job:
 ========================================================
  
                  Total CPU time used (sec):     2033.658
                            User time (sec):     2024.175
                          System time (sec):        9.483
                         Elapsed time (sec):     2034.257
  
                   Maximum memory used (kb):      487704.
                   Average memory used (kb):           0.
  
                          Minor page faults:        39340
                          Major page faults:           35
                 Voluntary context switches:          874
