# Thermal properties / unit cell (natom)

unit:
  temperature:   K
  free_energy:   kJ/mol
  entropy:       J/K/mol
  heat_capacity: J/K/mol

natom: 8    
cutoff_frequency:    0.000
num_modes: 2654208
num_integrated_modes: 2654208

zero_point_energy:     133.5986695
high_T_entropy:        440.1569588

thermal_properties:
- temperature:         0.0000000
  free_energy:       133.5986695
  entropy:             0.0000000
  heat_capacity:       0.0000000
  energy:            133.5986695

- temperature:         2.0000000
  free_energy:       133.5986695
  entropy:             0.0000000
  heat_capacity:       0.0000000
  energy:            133.5986695

- temperature:         4.0000000
  free_energy:       133.5986695
  entropy:             0.0000094
  heat_capacity:       0.0000586
  energy:            133.5986695

- temperature:         6.0000000
  free_energy:       133.5986694
  entropy:             0.0000758
  heat_capacity:       0.0003244
  energy:            133.5986698

- temperature:         8.0000000
  free_energy:       133.5986691
  entropy:             0.0002324
  heat_capacity:       0.0008336
  energy:            133.5986710

- temperature:        10.0000000
  free_energy:       133.5986684
  entropy:             0.0004998
  heat_capacity:       0.0016520
  energy:            133.5986734

- temperature:        12.0000000
  free_energy:       133.5986670
  entropy:             0.0009016
  heat_capacity:       0.0028647
  energy:            133.5986778

- temperature:        14.0000000
  free_energy:       133.5986647
  entropy:             0.0014636
  heat_capacity:       0.0045563
  energy:            133.5986852

- temperature:        16.0000000
  free_energy:       133.5986610
  entropy:             0.0022124
  heat_capacity:       0.0068107
  energy:            133.5986964

- temperature:        18.0000000
  free_energy:       133.5986557
  entropy:             0.0031753
  heat_capacity:       0.0097117
  energy:            133.5987128

- temperature:        20.0000000
  free_energy:       133.5986482
  entropy:             0.0043798
  heat_capacity:       0.0133441
  energy:            133.5987358

- temperature:        22.0000000
  free_energy:       133.5986380
  entropy:             0.0058534
  heat_capacity:       0.0177939
  energy:            133.5987668

- temperature:        24.0000000
  free_energy:       133.5986245
  entropy:             0.0076244
  heat_capacity:       0.0231486
  energy:            133.5988075

- temperature:        26.0000000
  free_energy:       133.5986073
  entropy:             0.0097211
  heat_capacity:       0.0294975
  energy:            133.5988600

- temperature:        28.0000000
  free_energy:       133.5985854
  entropy:             0.0121722
  heat_capacity:       0.0369321
  energy:            133.5989262

- temperature:        30.0000000
  free_energy:       133.5985583
  entropy:             0.0150069
  heat_capacity:       0.0455460
  energy:            133.5990085

- temperature:        32.0000000
  free_energy:       133.5985251
  entropy:             0.0182549
  heat_capacity:       0.0554358
  energy:            133.5991093

- temperature:        34.0000000
  free_energy:       133.5984850
  entropy:             0.0219465
  heat_capacity:       0.0667010
  energy:            133.5992312

- temperature:        36.0000000
  free_energy:       133.5984370
  entropy:             0.0261125
  heat_capacity:       0.0794447
  energy:            133.5993771

- temperature:        38.0000000
  free_energy:       133.5983802
  entropy:             0.0307844
  heat_capacity:       0.0937740
  energy:            133.5995500

- temperature:        40.0000000
  free_energy:       133.5983135
  entropy:             0.0359944
  heat_capacity:       0.1098009
  energy:            133.5997533

- temperature:        42.0000000
  free_energy:       133.5982359
  entropy:             0.0417757
  heat_capacity:       0.1276427
  energy:            133.5999904

- temperature:        44.0000000
  free_energy:       133.5981460
  entropy:             0.0481624
  heat_capacity:       0.1474233
  energy:            133.6002652

- temperature:        46.0000000
  free_energy:       133.5980428
  entropy:             0.0551897
  heat_capacity:       0.1692734
  energy:            133.6005815

- temperature:        48.0000000
  free_energy:       133.5979248
  entropy:             0.0628942
  heat_capacity:       0.1933321
  energy:            133.6009437

- temperature:        50.0000000
  free_energy:       133.5977907
  entropy:             0.0713136
  heat_capacity:       0.2197473
  energy:            133.6013564

- temperature:        52.0000000
  free_energy:       133.5976391
  entropy:             0.0804873
  heat_capacity:       0.2486767
  energy:            133.6018244

- temperature:        54.0000000
  free_energy:       133.5974682
  entropy:             0.0904565
  heat_capacity:       0.2802881
  energy:            133.6023529

- temperature:        56.0000000
  free_energy:       133.5972767
  entropy:             0.1012640
  heat_capacity:       0.3147603
  energy:            133.6029475

- temperature:        58.0000000
  free_energy:       133.5970626
  entropy:             0.1129547
  heat_capacity:       0.3522826
  energy:            133.6036140

- temperature:        60.0000000
  free_energy:       133.5968242
  entropy:             0.1255754
  heat_capacity:       0.3930556
  energy:            133.6043588

- temperature:        62.0000000
  free_energy:       133.5965596
  entropy:             0.1391751
  heat_capacity:       0.4372898
  energy:            133.6051885

- temperature:        64.0000000
  free_energy:       133.5962668
  entropy:             0.1538051
  heat_capacity:       0.4852061
  energy:            133.6061104

- temperature:        66.0000000
  free_energy:       133.5959437
  entropy:             0.1695186
  heat_capacity:       0.5370342
  energy:            133.6071319

- temperature:        68.0000000
  free_energy:       133.5955880
  entropy:             0.1863715
  heat_capacity:       0.5930115
  energy:            133.6082613

- temperature:        70.0000000
  free_energy:       133.5951974
  entropy:             0.2044213
  heat_capacity:       0.6533825
  energy:            133.6095069

- temperature:        72.0000000
  free_energy:       133.5947695
  entropy:             0.2237279
  heat_capacity:       0.7183969
  energy:            133.6108779

- temperature:        74.0000000
  free_energy:       133.5943016
  entropy:             0.2443531
  heat_capacity:       0.7883080
  energy:            133.6123838

- temperature:        76.0000000
  free_energy:       133.5937912
  entropy:             0.2663607
  heat_capacity:       0.8633715
  energy:            133.6140346

- temperature:        78.0000000
  free_energy:       133.5932352
  entropy:             0.2898158
  heat_capacity:       0.9438439
  energy:            133.6158409

- temperature:        80.0000000
  free_energy:       133.5926309
  entropy:             0.3147854
  heat_capacity:       1.0299805
  energy:            133.6178137

- temperature:        82.0000000
  free_energy:       133.5919750
  entropy:             0.3413378
  heat_capacity:       1.1220345
  energy:            133.6199647

- temperature:        84.0000000
  free_energy:       133.5912644
  entropy:             0.3695421
  heat_capacity:       1.2202548
  energy:            133.6223060

- temperature:        86.0000000
  free_energy:       133.5904957
  entropy:             0.3994687
  heat_capacity:       1.3248855
  energy:            133.6248500

- temperature:        88.0000000
  free_energy:       133.5896654
  entropy:             0.4311884
  heat_capacity:       1.4361641
  energy:            133.6276099

- temperature:        90.0000000
  free_energy:       133.5887697
  entropy:             0.4647727
  heat_capacity:       1.5543205
  energy:            133.6305993

- temperature:        92.0000000
  free_energy:       133.5878050
  entropy:             0.5002932
  heat_capacity:       1.6795760
  energy:            133.6338320

- temperature:        94.0000000
  free_energy:       133.5867672
  entropy:             0.5378216
  heat_capacity:       1.8121427
  energy:            133.6373224

- temperature:        96.0000000
  free_energy:       133.5856523
  entropy:             0.5774295
  heat_capacity:       1.9522226
  energy:            133.6410855

- temperature:        98.0000000
  free_energy:       133.5844560
  entropy:             0.6191879
  heat_capacity:       2.1000071
  energy:            133.6451365

- temperature:       100.0000000
  free_energy:       133.5831741
  entropy:             0.6631675
  heat_capacity:       2.2556764
  energy:            133.6494908

- temperature:       102.0000000
  free_energy:       133.5818019
  entropy:             0.7094381
  heat_capacity:       2.4193996
  energy:            133.6541645

- temperature:       104.0000000
  free_energy:       133.5803347
  entropy:             0.7580687
  heat_capacity:       2.5913341
  energy:            133.6591739

- temperature:       106.0000000
  free_energy:       133.5787680
  entropy:             0.8091272
  heat_capacity:       2.7716255
  energy:            133.6645354

- temperature:       108.0000000
  free_energy:       133.5770966
  entropy:             0.8626804
  heat_capacity:       2.9604079
  energy:            133.6702661

- temperature:       110.0000000
  free_energy:       133.5753155
  entropy:             0.9187935
  heat_capacity:       3.1578037
  energy:            133.6763828

- temperature:       112.0000000
  free_energy:       133.5734196
  entropy:             0.9775307
  heat_capacity:       3.3639240
  energy:            133.6829031

- temperature:       114.0000000
  free_energy:       133.5714036
  entropy:             1.0389542
  heat_capacity:       3.5788683
  energy:            133.6898444

- temperature:       116.0000000
  free_energy:       133.5692620
  entropy:             1.1031250
  heat_capacity:       3.8027252
  energy:            133.6972245

- temperature:       118.0000000
  free_energy:       133.5669892
  entropy:             1.1701021
  heat_capacity:       4.0355725
  energy:            133.7050613

- temperature:       120.0000000
  free_energy:       133.5645797
  entropy:             1.2399429
  heat_capacity:       4.2774774
  energy:            133.7133728

- temperature:       122.0000000
  free_energy:       133.5620275
  entropy:             1.3127029
  heat_capacity:       4.5284971
  energy:            133.7221773

- temperature:       124.0000000
  free_energy:       133.5593269
  entropy:             1.3884358
  heat_capacity:       4.7886785
  energy:            133.7314929

- temperature:       126.0000000
  free_energy:       133.5564718
  entropy:             1.4671933
  heat_capacity:       5.0580595
  energy:            133.7413381

- temperature:       128.0000000
  free_energy:       133.5534561
  entropy:             1.5490254
  heat_capacity:       5.3366685
  energy:            133.7517313

- temperature:       130.0000000
  free_energy:       133.5502736
  entropy:             1.6339798
  heat_capacity:       5.6245250
  energy:            133.7626910

- temperature:       132.0000000
  free_energy:       133.5469180
  entropy:             1.7221027
  heat_capacity:       5.9216401
  energy:            133.7742356

- temperature:       134.0000000
  free_energy:       133.5433830
  entropy:             1.8134378
  heat_capacity:       6.2280165
  energy:            133.7863837

- temperature:       136.0000000
  free_energy:       133.5396621
  entropy:             1.9080273
  heat_capacity:       6.5436494
  energy:            133.7991538

- temperature:       138.0000000
  free_energy:       133.5357487
  entropy:             2.0059111
  heat_capacity:       6.8685259
  energy:            133.8125645

- temperature:       140.0000000
  free_energy:       133.5316362
  entropy:             2.1071273
  heat_capacity:       7.2026261
  energy:            133.8266341

- temperature:       142.0000000
  free_energy:       133.5273180
  entropy:             2.2117121
  heat_capacity:       7.5459231
  energy:            133.8413811

- temperature:       144.0000000
  free_energy:       133.5227871
  entropy:             2.3196996
  heat_capacity:       7.8983831
  energy:            133.8568239

- temperature:       146.0000000
  free_energy:       133.5180369
  entropy:             2.4311221
  heat_capacity:       8.2599659
  energy:            133.8729807

- temperature:       148.0000000
  free_energy:       133.5130603
  entropy:             2.5460099
  heat_capacity:       8.6306248
  energy:            133.8898698

- temperature:       150.0000000
  free_energy:       133.5078505
  entropy:             2.6643914
  heat_capacity:       9.0103075
  energy:            133.9075092

- temperature:       152.0000000
  free_energy:       133.5024004
  entropy:             2.7862933
  heat_capacity:       9.3989555
  energy:            133.9259170

- temperature:       154.0000000
  free_energy:       133.4967030
  entropy:             2.9117403
  heat_capacity:       9.7965049
  energy:            133.9451110

- temperature:       156.0000000
  free_energy:       133.4907511
  entropy:             3.0407553
  heat_capacity:      10.2028864
  energy:            133.9651089

- temperature:       158.0000000
  free_energy:       133.4845376
  entropy:             3.1733595
  heat_capacity:      10.6180254
  energy:            133.9859284

- temperature:       160.0000000
  free_energy:       133.4780552
  entropy:             3.3095722
  heat_capacity:      11.0418424
  energy:            134.0075868

- temperature:       162.0000000
  free_energy:       133.4712969
  entropy:             3.4494112
  heat_capacity:      11.4742531
  energy:            134.0301015

- temperature:       164.0000000
  free_energy:       133.4642552
  entropy:             3.5928922
  heat_capacity:      11.9151683
  energy:            134.0534895

- temperature:       166.0000000
  free_energy:       133.4569229
  entropy:             3.7400295
  heat_capacity:      12.3644946
  energy:            134.0777677

- temperature:       168.0000000
  free_energy:       133.4492926
  entropy:             3.8908357
  heat_capacity:      12.8221342
  energy:            134.1029530

- temperature:       170.0000000
  free_energy:       133.4413571
  entropy:             4.0453218
  heat_capacity:      13.2879851
  energy:            134.1290618

- temperature:       172.0000000
  free_energy:       133.4331089
  entropy:             4.2034970
  heat_capacity:      13.7619414
  energy:            134.1561103

- temperature:       174.0000000
  free_energy:       133.4245406
  entropy:             4.3653693
  heat_capacity:      14.2438935
  energy:            134.1841149

- temperature:       176.0000000
  free_energy:       133.4156449
  entropy:             4.5309447
  heat_capacity:      14.7337278
  energy:            134.2130912

- temperature:       178.0000000
  free_energy:       133.4064144
  entropy:             4.7002280
  heat_capacity:      15.2313275
  energy:            134.2430549

- temperature:       180.0000000
  free_energy:       133.3968415
  entropy:             4.8732225
  heat_capacity:      15.7365725
  energy:            134.2740216

- temperature:       182.0000000
  free_energy:       133.3869190
  entropy:             5.0499300
  heat_capacity:      16.2493392
  energy:            134.3060062

- temperature:       184.0000000
  free_energy:       133.3766393
  entropy:             5.2303508
  heat_capacity:      16.7695013
  energy:            134.3390239

- temperature:       186.0000000
  free_energy:       133.3659951
  entropy:             5.4144838
  heat_capacity:      17.2969296
  energy:            134.3730891

- temperature:       188.0000000
  free_energy:       133.3549789
  entropy:             5.6023267
  heat_capacity:      17.8314920
  energy:            134.4082163

- temperature:       190.0000000
  free_energy:       133.3435833
  entropy:             5.7938758
  heat_capacity:      18.3730541
  energy:            134.4444197

- temperature:       192.0000000
  free_energy:       133.3318009
  entropy:             5.9891260
  heat_capacity:      18.9214790
  energy:            134.4817131

- temperature:       194.0000000
  free_energy:       133.3196244
  entropy:             6.1880709
  heat_capacity:      19.4766276
  energy:            134.5201101

- temperature:       196.0000000
  free_energy:       133.3070462
  entropy:             6.3907032
  heat_capacity:      20.0383586
  energy:            134.5596240

- temperature:       198.0000000
  free_energy:       133.2940591
  entropy:             6.5970139
  heat_capacity:      20.6065290
  energy:            134.6002679

- temperature:       200.0000000
  free_energy:       133.2806557
  entropy:             6.8069932
  heat_capacity:      21.1809939
  energy:            134.6420543

- temperature:       202.0000000
  free_energy:       133.2668287
  entropy:             7.0206299
  heat_capacity:      21.7616069
  energy:            134.6849959

- temperature:       204.0000000
  free_energy:       133.2525708
  entropy:             7.2379118
  heat_capacity:      22.3482201
  energy:            134.7291048

- temperature:       206.0000000
  free_energy:       133.2378746
  entropy:             7.4588257
  heat_capacity:      22.9406841
  energy:            134.7743927

- temperature:       208.0000000
  free_energy:       133.2227330
  entropy:             7.6833571
  heat_capacity:      23.5388488
  energy:            134.8208713

- temperature:       210.0000000
  free_energy:       133.2071388
  entropy:             7.9114906
  heat_capacity:      24.1425627
  energy:            134.8685518

- temperature:       212.0000000
  free_energy:       133.1910847
  entropy:             8.1432098
  heat_capacity:      24.7516736
  energy:            134.9174452

- temperature:       214.0000000
  free_energy:       133.1745636
  entropy:             8.3784973
  heat_capacity:      25.3660286
  energy:            134.9675620

- temperature:       216.0000000
  free_energy:       133.1575683
  entropy:             8.6173349
  heat_capacity:      25.9854742
  energy:            135.0189127

- temperature:       218.0000000
  free_energy:       133.1400919
  entropy:             8.8597032
  heat_capacity:      26.6098566
  energy:            135.0715072

- temperature:       220.0000000
  free_energy:       133.1221272
  entropy:             9.1055823
  heat_capacity:      27.2390215
  energy:            135.1253553

- temperature:       222.0000000
  free_energy:       133.1036672
  entropy:             9.3549510
  heat_capacity:      27.8728146
  energy:            135.1804664

- temperature:       224.0000000
  free_energy:       133.0847051
  entropy:             9.6077878
  heat_capacity:      28.5110815
  energy:            135.2368495

- temperature:       226.0000000
  free_energy:       133.0652338
  entropy:             9.8640698
  heat_capacity:      29.1536679
  energy:            135.2945136

- temperature:       228.0000000
  free_energy:       133.0452465
  entropy:            10.1237740
  heat_capacity:      29.8004199
  energy:            135.3534670

- temperature:       230.0000000
  free_energy:       133.0247364
  entropy:            10.3868761
  heat_capacity:      30.4511837
  energy:            135.4137179

- temperature:       232.0000000
  free_energy:       133.0036967
  entropy:            10.6533514
  heat_capacity:      31.1058061
  energy:            135.4752743

- temperature:       234.0000000
  free_energy:       132.9821208
  entropy:            10.9231745
  heat_capacity:      31.7641344
  energy:            135.5381436

- temperature:       236.0000000
  free_energy:       132.9600018
  entropy:            11.1963193
  heat_capacity:      32.4260168
  energy:            135.6023332

- temperature:       238.0000000
  free_energy:       132.9373333
  entropy:            11.4727590
  heat_capacity:      33.0913020
  energy:            135.6678499

- temperature:       240.0000000
  free_energy:       132.9141086
  entropy:            11.7524664
  heat_capacity:      33.7598397
  energy:            135.7347006

- temperature:       242.0000000
  free_energy:       132.8903213
  entropy:            12.0354136
  heat_capacity:      34.4314808
  energy:            135.8028914

- temperature:       244.0000000
  free_energy:       132.8659648
  entropy:            12.3215722
  heat_capacity:      35.1060769
  energy:            135.8724285

- temperature:       246.0000000
  free_energy:       132.8410329
  entropy:            12.6109134
  heat_capacity:      35.7834812
  energy:            135.9433176

- temperature:       248.0000000
  free_energy:       132.8155191
  entropy:            12.9034076
  heat_capacity:      36.4635477
  energy:            136.0155642

- temperature:       250.0000000
  free_energy:       132.7894172
  entropy:            13.1990251
  heat_capacity:      37.1461321
  energy:            136.0891734

- temperature:       252.0000000
  free_energy:       132.7627209
  entropy:            13.4977355
  heat_capacity:      37.8310914
  energy:            136.1641503

- temperature:       254.0000000
  free_energy:       132.7354242
  entropy:            13.7995083
  heat_capacity:      38.5182840
  energy:            136.2404993

- temperature:       256.0000000
  free_energy:       132.7075209
  entropy:            14.1043123
  heat_capacity:      39.2075700
  energy:            136.3182248

- temperature:       258.0000000
  free_energy:       132.6790049
  entropy:            14.4121160
  heat_capacity:      39.8988110
  energy:            136.3973309

- temperature:       260.0000000
  free_energy:       132.6498704
  entropy:            14.7228878
  heat_capacity:      40.5918704
  energy:            136.4778212

- temperature:       262.0000000
  free_energy:       132.6201114
  entropy:            15.0365956
  heat_capacity:      41.2866132
  energy:            136.5596995

- temperature:       264.0000000
  free_energy:       132.5897221
  entropy:            15.3532070
  heat_capacity:      41.9829063
  energy:            136.6429687

- temperature:       266.0000000
  free_energy:       132.5586967
  entropy:            15.6726893
  heat_capacity:      42.6806183
  energy:            136.7276320

- temperature:       268.0000000
  free_energy:       132.5270294
  entropy:            15.9950098
  heat_capacity:      43.3796198
  energy:            136.8136921

- temperature:       270.0000000
  free_energy:       132.4947148
  entropy:            16.3201353
  heat_capacity:      44.0797834
  energy:            136.9011513

- temperature:       272.0000000
  free_energy:       132.4617471
  entropy:            16.6480325
  heat_capacity:      44.7809835
  energy:            136.9900119

- temperature:       274.0000000
  free_energy:       132.4281208
  entropy:            16.9786680
  heat_capacity:      45.4830965
  energy:            137.0802758

- temperature:       276.0000000
  free_energy:       132.3938306
  entropy:            17.3120081
  heat_capacity:      46.1860009
  energy:            137.1719448

- temperature:       278.0000000
  free_energy:       132.3588710
  entropy:            17.6480190
  heat_capacity:      46.8895772
  energy:            137.2650203

- temperature:       280.0000000
  free_energy:       132.3232367
  entropy:            17.9866669
  heat_capacity:      47.5937082
  energy:            137.3595035

- temperature:       282.0000000
  free_energy:       132.2869226
  entropy:            18.3279178
  heat_capacity:      48.2982783
  energy:            137.4553954

- temperature:       284.0000000
  free_energy:       132.2499234
  entropy:            18.6717375
  heat_capacity:      49.0031746
  energy:            137.5526968

- temperature:       286.0000000
  free_energy:       132.2122339
  entropy:            19.0180920
  heat_capacity:      49.7082860
  energy:            137.6514083

- temperature:       288.0000000
  free_energy:       132.1738493
  entropy:            19.3669469
  heat_capacity:      50.4135035
  energy:            137.7515300

- temperature:       290.0000000
  free_energy:       132.1347645
  entropy:            19.7182681
  heat_capacity:      51.1187205
  energy:            137.8530623

- temperature:       292.0000000
  free_energy:       132.0949746
  entropy:            20.0720213
  heat_capacity:      51.8238324
  energy:            137.9560048

- temperature:       294.0000000
  free_energy:       132.0544748
  entropy:            20.4281722
  heat_capacity:      52.5287367
  energy:            138.0603575

- temperature:       296.0000000
  free_energy:       132.0132604
  entropy:            20.7866865
  heat_capacity:      53.2333332
  energy:            138.1661196

- temperature:       298.0000000
  free_energy:       131.9713265
  entropy:            21.1475301
  heat_capacity:      53.9375240
  energy:            138.2732905

- temperature:       300.0000000
  free_energy:       131.9286687
  entropy:            21.5106688
  heat_capacity:      54.6412130
  energy:            138.3818693

- temperature:       302.0000000
  free_energy:       131.8852824
  entropy:            21.8760683
  heat_capacity:      55.3443066
  energy:            138.4918550

- temperature:       304.0000000
  free_energy:       131.8411630
  entropy:            22.2436946
  heat_capacity:      56.0467133
  energy:            138.6032461

- temperature:       306.0000000
  free_energy:       131.7963061
  entropy:            22.6135137
  heat_capacity:      56.7483435
  energy:            138.7160413

- temperature:       308.0000000
  free_energy:       131.7507075
  entropy:            22.9854917
  heat_capacity:      57.4491102
  energy:            138.8302389

- temperature:       310.0000000
  free_energy:       131.7043627
  entropy:            23.3595948
  heat_capacity:      58.1489280
  energy:            138.9458371

- temperature:       312.0000000
  free_energy:       131.6572677
  entropy:            23.7357892
  heat_capacity:      58.8477141
  energy:            139.0628339

- temperature:       314.0000000
  free_energy:       131.6094182
  entropy:            24.1140415
  heat_capacity:      59.5453875
  energy:            139.1812272

- temperature:       316.0000000
  free_energy:       131.5608102
  entropy:            24.4943181
  heat_capacity:      60.2418694
  energy:            139.3010147

- temperature:       318.0000000
  free_energy:       131.5114396
  entropy:            24.8765857
  heat_capacity:      60.9370831
  energy:            139.4221939

- temperature:       320.0000000
  free_energy:       131.4613025
  entropy:            25.2608113
  heat_capacity:      61.6309539
  energy:            139.5447621

- temperature:       322.0000000
  free_energy:       131.4103951
  entropy:            25.6469617
  heat_capacity:      62.3234092
  energy:            139.6687167

- temperature:       324.0000000
  free_energy:       131.3587134
  entropy:            26.0350042
  heat_capacity:      63.0143783
  energy:            139.7940548

- temperature:       326.0000000
  free_energy:       131.3062538
  entropy:            26.4249061
  heat_capacity:      63.7037926
  energy:            139.9207732

- temperature:       328.0000000
  free_energy:       131.2530126
  entropy:            26.8166350
  heat_capacity:      64.3915855
  energy:            140.0488689

- temperature:       330.0000000
  free_energy:       131.1989861
  entropy:            27.2101586
  heat_capacity:      65.0776922
  energy:            140.1783384

- temperature:       332.0000000
  free_energy:       131.1441708
  entropy:            27.6054449
  heat_capacity:      65.7620500
  energy:            140.3091785

- temperature:       334.0000000
  free_energy:       131.0885631
  entropy:            28.0024619
  heat_capacity:      66.4445979
  energy:            140.4413854

- temperature:       336.0000000
  free_energy:       131.0321598
  entropy:            28.4011781
  heat_capacity:      67.1252771
  energy:            140.5749556

- temperature:       338.0000000
  free_energy:       130.9749573
  entropy:            28.8015619
  heat_capacity:      67.8040304
  energy:            140.7098852

- temperature:       340.0000000
  free_energy:       130.9169524
  entropy:            29.2035823
  heat_capacity:      68.4808023
  energy:            140.8461704

- temperature:       342.0000000
  free_energy:       130.8581419
  entropy:            29.6072081
  heat_capacity:      69.1555395
  energy:            140.9838071

- temperature:       344.0000000
  free_energy:       130.7985226
  entropy:            30.0124088
  heat_capacity:      69.8281902
  energy:            141.1227912

- temperature:       346.0000000
  free_energy:       130.7380913
  entropy:            30.4191537
  heat_capacity:      70.4987043
  energy:            141.2631184

- temperature:       348.0000000
  free_energy:       130.6768449
  entropy:            30.8274126
  heat_capacity:      71.1670335
  energy:            141.4047845

- temperature:       350.0000000
  free_energy:       130.6147806
  entropy:            31.2371556
  heat_capacity:      71.8331314
  energy:            141.5477851

- temperature:       352.0000000
  free_energy:       130.5518953
  entropy:            31.6483528
  heat_capacity:      72.4969528
  energy:            141.6921155

- temperature:       354.0000000
  free_energy:       130.4881863
  entropy:            32.0609748
  heat_capacity:      73.1584545
  energy:            141.8377713

- temperature:       356.0000000
  free_energy:       130.4236505
  entropy:            32.4749923