<?xml version="1.0" encoding="ISO-8859-1"?>
<modeling>
 <generator>
  <i name="program" type="string">vasp </i>
  <i name="version" type="string">5.4.4.18Apr17-6-g9f103f2a35  </i>
  <i name="subversion" type="string">(build Mar 12 2022 03:36:41) complex            parallel </i>
  <i name="platform" type="string">IFC19.0.3.199_CrayMPICH7.7.19 </i>
  <i name="date" type="string">2022 12 02 </i>
  <i name="time" type="string">04:06:37 </i>
 </generator>
 <incar>
  <i type="string" name="PREC">accurate</i>
  <i type="int" name="IALGO">    38</i>
  <i type="logical" name="ADDGRID"> T  </i>
  <i type="int" name="IBRION">     8</i>
  <i name="EDIFF">      0.00000001</i>
  <i type="logical" name="LREAL"> F  </i>
  <i type="int" name="ISMEAR">     0</i>
  <i name="SIGMA">      0.06000000</i>
  <i type="logical" name="LWAVE"> F  </i>
  <i type="logical" name="LCHARG"> F  </i>
  <v type="int" name="KPOINT_BSE">    -1     0     0     0</v>
 </incar>
 <structure name="primitive_cell" >
  <crystal>
   <varray name="basis" >
    <v>       1.81286072       0.00000000       1.79499968 </v>
    <v>      -1.81286072       0.00000000       1.79499968 </v>
    <v>       0.00000000      -1.81286072      -1.79499968 </v>
   </varray>
   <i name="volume">     11.79840365 </i>
   <varray name="rec_basis" >
    <v>       0.27580718      -0.27580718       0.27855158 </v>
    <v>      -0.27580718      -0.27580718       0.27855158 </v>
    <v>       0.00000000      -0.55161436       0.00000000 </v>
   </varray>
  </crystal>
  <varray name="positions" >
   <v>      -0.25000000       0.25000000      -0.50000000 </v>
   <v>      -0.50000000      -0.50000000       0.00000000 </v>
  </varray>
 </structure>
 <varray name="primitive_index" >
  <v type="int" >        1 </v>
  <v type="int" >       11 </v>
 </varray>
 <kpoints>
  <generation param="Gamma">
   <v type="int" name="divisions">       6        6        6 </v>
   <v name="usershift">      0.00000000       0.00000000       0.00000000 </v>
   <v name="genvec1">      0.16666667       0.00000000       0.00000000 </v>
   <v name="genvec2">      0.00000000       0.16666667       0.00000000 </v>
   <v name="genvec3">      0.00000000       0.00000000       0.16666667 </v>
   <v name="shift">      0.00000000       0.00000000       0.00000000 </v>
  </generation>
  <varray name="kpointlist" >
   <v>       0.00000000       0.00000000       0.00000000 </v>
   <v>       0.16666667       0.00000000       0.00000000 </v>
   <v>       0.33333333       0.00000000       0.00000000 </v>
   <v>       0.50000000       0.00000000       0.00000000 </v>
   <v>       0.16666667       0.16666667       0.00000000 </v>
   <v>       0.33333333       0.16666667       0.00000000 </v>
   <v>       0.50000000       0.16666667       0.00000000 </v>
   <v>       0.33333333       0.33333333       0.00000000 </v>
   <v>       0.50000000       0.33333333       0.00000000 </v>
   <v>       0.50000000       0.50000000       0.00000000 </v>
   <v>       0.00000000       0.00000000       0.16666667 </v>
   <v>       0.16666667       0.00000000       0.16666667 </v>
   <v>       0.33333333       0.00000000       0.16666667 </v>
   <v>       0.50000000       0.00000000       0.16666667 </v>
   <v>       0.16666667       0.16666667       0.16666667 </v>
   <v>       0.33333333       0.16666667       0.16666667 </v>
   <v>       0.50000000       0.16666667       0.16666667 </v>
   <v>       0.33333333       0.33333333       0.16666667 </v>
   <v>       0.50000000       0.33333333       0.16666667 </v>
   <v>       0.50000000       0.50000000       0.16666667 </v>
   <v>       0.00000000       0.00000000       0.33333333 </v>
   <v>       0.16666667       0.00000000       0.33333333 </v>
   <v>       0.33333333       0.00000000       0.33333333 </v>
   <v>       0.50000000       0.00000000       0.33333333 </v>
   <v>       0.16666667       0.16666667       0.33333333 </v>
   <v>       0.33333333       0.16666667       0.33333333 </v>
   <v>       0.50000000       0.16666667       0.33333333 </v>
   <v>       0.33333333       0.33333333       0.33333333 </v>
   <v>       0.50000000       0.33333333       0.33333333 </v>
   <v>       0.50000000       0.50000000       0.33333333 </v>
   <v>       0.00000000       0.00000000       0.50000000 </v>
   <v>       0.16666667       0.00000000       0.50000000 </v>
   <v>       0.33333333       0.00000000       0.50000000 </v>
   <v>       0.50000000       0.00000000       0.50000000 </v>
   <v>       0.16666667       0.16666667       0.50000000 </v>
   <v>       0.33333333       0.16666667       0.50000000 </v>
   <v>       0.50000000       0.16666667       0.50000000 </v>
   <v>       0.33333333       0.33333333       0.50000000 </v>
   <v>       0.50000000       0.33333333       0.50000000 </v>
   <v>       0.50000000       0.50000000       0.50000000 </v>
  </varray>
  <varray name="weights" >
   <v>       0.00462963 </v>
   <v>       0.01851852 </v>
   <v>       0.01851852 </v>
   <v>       0.00925926 </v>
   <v>       0.01851852 </v>
   <v>       0.03703704 </v>
   <v>       0.01851852 </v>
   <v>       0.01851852 </v>
   <v>       0.01851852 </v>
   <v>       0.00462963 </v>
   <v>       0.00925926 </v>
   <v>       0.03703704 </v>
   <v>       0.03703704 </v>
   <v>       0.01851852 </v>
   <v>       0.03703704 </v>
   <v>       0.07407407 </v>
   <v>       0.03703704 </v>
   <v>       0.03703704 </v>
   <v>       0.03703704 </v>
   <v>       0.00925926 </v>
   <v>       0.00925926 </v>
   <v>       0.03703704 </v>
   <v>       0.03703704 </v>
   <v>       0.01851852 </v>
   <v>       0.03703704 </v>
   <v>       0.07407407 </v>
   <v>       0.03703704 </v>
   <v>       0.03703704 </v>
   <v>       0.03703704 </v>
   <v>       0.00925926 </v>
   <v>       0.00462963 </v>
   <v>       0.01851852 </v>
   <v>       0.01851852 </v>
   <v>       0.00925926 </v>
   <v>       0.01851852 </v>
   <v>       0.03703704 </v>
   <v>       0.01851852 </v>
   <v>       0.01851852 </v>
   <v>       0.01851852 </v>
   <v>       0.00462963 </v>
  </varray>
 </kpoints>
 <parameters>
  <separator name="general" >
   <i type="string" name="SYSTEM">unknown system</i>
   <i type="logical" name="LCOMPAT"> F  </i>
  </separator>
  <separator name="electronic" >
   <i type="string" name="PREC">accura</i>
   <i name="ENMAX">    400.00000000</i>
   <i name="ENAUG">    644.87300000</i>
   <i name="EDIFF">      0.00000001</i>
   <i type="int" name="IALGO">    38</i>
   <i type="int" name="IWAVPR">    11</i>
   <i type="int" name="NBANDS">   192</i>
   <i name="NELECT">    256.00000000</i>
   <i type="int" name="TURBO">     0</i>
   <i type="int" name="IRESTART">     0</i>
   <i type="int" name="NREBOOT">     0</i>
   <i type="int" name="NMIN">     0</i>
   <i name="EREF">      0.00000000</i>
   <separator name="electronic smearing" >
    <i type="int" name="ISMEAR">     0</i>
    <i name="SIGMA">      0.06000000</i>
    <i name="KSPACING">      0.50000000</i>
    <i type="logical" name="KGAMMA"> T  </i>
   </separator>
   <separator name="electronic projectors" >
    <i type="logical" name="LREAL"> F  </i>
    <v name="ROPT">      0.00000000</v>
    <i type="int" name="LMAXPAW">  -100</i>
    <i type="int" name="LMAXMIX">     2</i>
    <i type="logical" name="NLSPLINE"> F  </i>
   </separator>
   <separator name="electronic startup" >
    <i type="int" name="ISTART">     0</i>
    <i type="int" name="ICHARG">     2</i>
    <i type="int" name="INIWAV">     1</i>
   </separator>
   <separator name="electronic spin" >
    <i type="int" name="ISPIN">     1</i>
    <i type="logical" name="LNONCOLLINEAR"> F  </i>
    <v name="MAGMOM">      1.00000000      1.00000000      1.00000000      1.00000000      1.00000000      1.00000000      1.00000000      1.00000000      1.00000000      1.00000000      1.00000000      1.00000000      1.00000000      1.00000000      1.00000000      1.00000000      1.00000000      1.00000000      1.00000000      1.00000000
      1.00000000      1.00000000      1.00000000      1.00000000      1.00000000      1.00000000      1.00000000      1.00000000      1.00000000      1.00000000      1.00000000      1.00000000      1.00000000      1.00000000      1.00000000      1.00000000      1.00000000      1.00000000      1.00000000      1.00000000
      1.00000000      1.00000000      1.00000000      1.00000000      1.00000000      1.00000000      1.00000000      1.00000000      1.00000000      1.00000000      1.00000000      1.00000000      1.00000000      1.00000000      1.00000000      1.00000000      1.00000000      1.00000000      1.00000000      1.00000000
      1.00000000      1.00000000      1.00000000      1.00000000</v>
    <i name="NUPDOWN">     -1.00000000</i>
    <i type="logical" name="LSORBIT"> F  </i>
    <v name="SAXIS">      0.00000000      0.00000000      1.00000000</v>
    <i type="logical" name="LSPIRAL"> F  </i>
    <v name="QSPIRAL">      0.00000000      0.00000000      0.00000000</v>
    <i type="logical" name="LZEROZ"> F  </i>
   </separator>
   <separator name="electronic exchange-correlation" >
    <i type="logical" name="LASPH"> F  </i>
    <i type="logical" name="LMETAGGA"> F  </i>
   </separator>
   <separator name="electronic convergence" >
    <i type="int" name="NELM">    60</i>
    <i type="int" name="NELMDL">    -5</i>
    <i type="int" name="NELMIN">     2</i>
    <i name="ENINI">    400.00000000</i>
    <separator name="electronic convergence detail" >
     <i type="logical" name="LDIAG"> T  </i>
     <i type="logical" name="LSUBROT"> F  </i>
     <i name="WEIMIN">      0.00100000</i>
     <i name="EBREAK">      0.00000000</i>
     <i name="DEPER">      0.30000000</i>
     <i type="int" name="NRMM">     4</i>
     <i name="TIME">      0.40000000</i>
    </separator>
   </separator>
   <separator name="electronic mixer" >
    <i name="AMIX">      0.40000000</i>
    <i name="BMIX">      1.00000000</i>
    <i name="AMIN">      0.10000000</i>
    <i name="AMIX_MAG">      1.60000000</i>
    <i name="BMIX_MAG">      1.00000000</i>
    <separator name="electronic mixer details" >
     <i type="int" name="IMIX">     4</i>
     <i type="logical" name="MIXFIRST"> F  </i>
     <i type="int" name="MAXMIX">   -45</i>
     <i name="WC">    100.00000000</i>
     <i type="int" name="INIMIX">     1</i>
     <i type="int" name="MIXPRE">     1</i>
     <i type="int" name="MREMOVE">     5</i>
    </separator>
   </separator>
   <separator name="electronic dipolcorrection" >
    <i type="logical" name="LDIPOL"> F  </i>
    <i type="logical" name="LMONO"> F  </i>
    <i type="int" name="IDIPOL">     0</i>
    <i name="EPSILON">      1.00000000</i>
    <v name="DIPOL">   -100.00000000   -100.00000000   -100.00000000</v>
    <i name="EFIELD">      0.00000000</i>
   </separator>
  </separator>
  <separator name="grids" >
   <i type="int" name="NGX">    48</i>
   <i type="int" name="NGY">    48</i>
   <i type="int" name="NGZ">    48</i>
   <i type="int" name="NGXF">    96</i>
   <i type="int" name="NGYF">    96</i>
   <i type="int" name="NGZF">    96</i>
   <i type="logical" name="ADDGRID"> T  </i>
  </separator>
  <separator name="ionic" >
   <i type="int" name="NSW">     1</i>
   <i type="int" name="IBRION">     8</i>
   <i type="int" name="MDALGO">     0</i>
   <i type="int" name="ISIF">     2</i>
   <i name="PSTRESS">      0.00000000</i>
   <i name="EDIFFG">      0.00000010</i>
   <i type="int" name="NFREE">     0</i>
   <i name="POTIM">      0.50000000</i>
   <i name="SMASS">     -3.00000000</i>
   <i name="SCALEE">      1.00000000</i>
  </separator>
  <separator name="ionic md" >
   <i name="TEBEG">      0.00010000</i>
   <i name="TEEND">      0.00010000</i>
   <i type="int" name="NBLOCK">     1</i>
   <i type="int" name="KBLOCK">     1</i>
   <i type="int" name="NPACO">   256</i>
   <i name="APACO">     16.00000000</i>
  </separator>
  <separator name="symmetry" >
   <i type="int" name="ISYM">     2</i>
   <i name="SYMPREC">      0.00001000</i>
  </separator>
  <separator name="dos" >
   <i type="int" name="LORBIT">     0</i>
   <v name="RWIGS">     -1.00000000</v>
   <i type="int" name="NEDOS">   301</i>
   <i name="EMIN">     10.00000000</i>
   <i name="EMAX">    -10.00000000</i>
   <i name="EFERMI">      0.00000000</i>
  </separator>
  <separator name="writing" >
   <i type="int" name="NWRITE">     2</i>
   <i type="logical" name="LWAVE"> F  </i>
   <i type="logical" name="LDOWNSAMPLE"> F  </i>
   <i type="logical" name="LCHARG"> F  </i>
   <i type="logical" name="LPARD"> F  </i>
   <i type="logical" name="LVTOT"> F  </i>
   <i type="logical" name="LVHAR"> F  </i>
   <i type="logical" name="LELF"> F  </i>
   <i type="logical" name="LOPTICS"> F  </i>
   <v name="STM">      0.00000000      0.00000000      0.00000000      0.00000000      0.00000000      0.00000000      0.00000000</v>
  </separator>
  <separator name="performance" >
   <i type="int" name="NPAR">    32</i>
   <i type="int" name="NSIM">     4</i>
   <i type="int" name="NBLK">    -1</i>
   <i type="logical" name="LPLANE"> T  </i>
   <i type="logical" name="LSCALAPACK"> T  </i>
   <i type="logical" name="LSCAAWARE"> F  </i>
   <i type="logical" name="LSCALU"> F  </i>
   <i type="logical" name="LASYNC"> F  </i>
   <i type="logical" name="LORBITALREAL"> F  </i>
  </separator>
  <separator name="miscellaneous" >
   <i type="int" name="IDIOT">     3</i>
   <i type="int" name="ISPECIAL">     0</i>
   <i type="logical" name="LMUSIC"> F  </i>
   <v name="POMASS">     12.01100000</v>
   <v name="DARWINR">      0.00000000</v>
   <v name="DARWINV">      1.00000000</v>
   <i type="logical" name="LCORR"> T  </i>
  </separator>
  <i type="logical" name="GGA_COMPAT"> T  </i>
  <i type="logical" name="LBERRY"> F  </i>
  <i type="int" name="ICORELEVEL">     0</i>
  <i type="logical" name="LDAU"> F  </i>
  <i type="int" name="I_CONSTRAINED_M">     0</i>
  <separator name="electronic exchange-correlation" >
   <i type="string" name="GGA">--</i>
   <i type="int" name="VOSKOWN">     0</i>
   <i type="logical" name="LHFCALC"> F  </i>
   <i type="string" name="PRECFOCK"></i>
   <i type="logical" name="LSYMGRAD"> F  </i>
   <i type="logical" name="LHFONE"> F  </i>
   <i type="logical" name="LRHFCALC"> F  </i>
   <i type="logical" name="LTHOMAS"> F  </i>
   <i type="logical" name="LMODELHF"> F  </i>
   <i name="ENCUT4O">     -1.00000000</i>
   <i type="int" name="EXXOEP">     0</i>
   <i type="int" name="FOURORBIT">     0</i>
   <i name="AEXX">      0.00000000</i>
   <i name="HFALPHA">      0.00000000</i>
   <i name="MCALPHA">      0.00000000</i>
   <i name="ALDAX">      1.00000000</i>
   <i name="AGGAX">      1.00000000</i>
   <i name="ALDAC">      1.00000000</i>
   <i name="AGGAC">      1.00000000</i>
   <i type="int" name="NKREDX">     1</i>
   <i type="int" name="NKREDY">     1</i>
   <i type="int" name="NKREDZ">     1</i>
   <i type="logical" name="SHIFTRED"> F  </i>
   <i type="logical" name="ODDONLY"> F  </i>
   <i type="logical" name="EVENONLY"> F  </i>
   <i type="int" name="LMAXFOCK">     0</i>
   <i type="int" name="NMAXFOCKAE">     0</i>
   <i type="logical" name="LFOCKAEDFT"> F  </i>
   <i name="HFSCREEN">      0.00000000</i>
   <i name="HFSCREENC">      0.00000000</i>
   <i type="int" name="NBANDSGWLOW">     0</i>
  </separator>
  <separator name="vdW DFT" >
   <i type="logical" name="LUSE_VDW"> F  </i>
   <i name="Zab_VDW">     -0.84910000</i>
   <i name="PARAM1">      0.12340000</i>
   <i name="PARAM2">      1.00000000</i>
   <i name="PARAM3">      0.00000000</i>
  </separator>
  <separator name="model GW" >
   <i type="int" name="MODEL_GW">     0</i>
   <i name="MODEL_EPS0">      3.53952110</i>
   <i name="MODEL_ALPHA">      1.00000000</i>
  </separator>
  <separator name="linear response parameters" >
   <i type="logical" name="LEPSILON"> F  </i>
   <i type="logical" name="LRPA"> F  </i>
   <i type="logical" name="LNABLA"> F  </i>
   <i type="logical" name="LVEL"> F  </i>
   <i type="int" name="KINTER">     0</i>
   <i name="CSHIFT">      0.10000000</i>
   <i name="OMEGAMAX">     -1.00000000</i>
   <i name="DEG_THRESHOLD">      0.00200000</i>
   <i name="RTIME">     -0.10000000</i>
   <i name="WPLASMAI">      0.00000000</i>
   <v name="DFIELD">      0.00000000      0.00000000      0.00000000</v>
   <v name="WPLASMA">      0.00000000      0.00000000      0.00000000      0.00000000      0.00000000      0.00000000      0.00000000      0.00000000      0.00000000</v>
  </separator>
  <separator name="orbital magnetization" >
   <i type="logical" name="NUCIND"> F  </i>
   <v name="MAGPOS">      0.00000000      0.00000000      0.00000000</v>
   <i type="logical" name="LNICSALL"> T  </i>
   <i type="logical" name="ORBITALMAG"> F  </i>
   <i type="logical" name="LMAGBLOCH"> F  </i>
   <i type="logical" name="LCHIMAG"> F  </i>
   <i type="logical" name="LGAUGE"> T  </i>
   <i type="int" name="MAGATOM">     0</i>
   <v name="MAGDIPOL">      0.00000000      0.00000000      0.00000000</v>
   <v name="AVECCONST">      0.00000000      0.00000000      0.00000000</v>
  </separator>
  <separator name="response functions" >
   <i type="logical" name="LADDER"> F  </i>
   <i type="logical" name="LRPAFORCE"> F  </i>
   <i type="logical" name="LFXC"> F  </i>
   <i type="logical" name="LHARTREE"> T  </i>
   <i type="int" name="IBSE">     0</i>
   <v type="int" name="KPOINT">    -1     0     0     0</v>
   <i type="logical" name="LTCTE"> F  </i>
   <i type="logical" name="LTETE"> F  </i>
   <i type="logical" name="LTRIPLET"> F  </i>
   <i type="logical" name="LFXCEPS"> F  </i>
   <i type="logical" name="LFXHEG"> F  </i>
   <i type="int" name="NATURALO">     2</i>
   <i type="logical" name="L2ORDER"> F  </i>
   <i type="logical" name="LMP2LT"> F  </i>
   <i type="logical" name="LUSEW"> F  </i>
   <i name="ENCUTGW">     -2.00000000</i>
   <i name="ENCUTGWSOFT">     -2.00000000</i>
   <i name="ENCUTLF">     -1.00000000</i>
   <i type="int" name="LMAXMP2">    -1</i>
   <i name="SCISSOR">      0.00000000</i>
   <i type="int" name="NOMEGA">     0</i>
   <i type="int" name="NOMEGAR">     0</i>
   <i type="int" name="NBANDSGW">    -1</i>
   <i type="int" name="NBANDSO">    -1</i>
   <i type="int" name="NBANDSV">    -1</i>
   <i type="int" name="NELM">     1</i>
   <i type="int" name="NELMHF">     1</i>
   <i type="int" name="DIM">     3</i>
   <i type="int" name="ANTIRES">     0</i>
   <i name="OMEGAMAX">    -30.00000000</i>
   <i name="OMEGAMIN">    -30.00000000</i>
   <i name="OMEGATL">   -200.00000000</i>
   <i type="int" name="OMEGAGRID">   140</i>
   <i name="CSHIFT">     -0.10000000</i>
   <i type="logical" name="SELFENERGY"> F  </i>
   <i type="logical" name="LSPECTRAL"> F  </i>
   <i type="logical" name="LSPECTRALGW"> F  </i>
   <i type="logical" name="LSINGLES"> F  </i>
   <i type="logical" name="LFERMIGW"> F  </i>
   <i type="logical" name="ODDONLYGW"> F  </i>
   <i type="logical" name="EVENONLYGW"> F  </i>
   <i type="int" name="NKREDLFX">     1</i>
   <i type="int" name="NKREDLFY">     1</i>
   <i type="int" name="NKREDLFZ">     1</i>
   <i type="int" name="MAXMEM">  2800</i>
   <i type="int" name="TELESCOPE">     0</i>
   <i type="int" name="TAUPAR">     1</i>
   <i type="int" name="OMEGAPAR">    -1</i>
   <i name="LAMBDA">      1.00000000</i>
  </separator>
  <separator name="External order field" >
   <i name="OFIELD_KAPPA">      0.00000000</i>
   <v name="OFIELD_K">      0.00000000      0.00000000      0.00000000</v>
   <i name="OFIELD_Q6_NEAR">      0.00000000</i>
   <i name="OFIELD_Q6_FAR">      0.00000000</i>
   <i name="OFIELD_A">      0.00000000</i>
  </separator>
 </parameters>
 <atominfo>
  <atoms>      64 </atoms>
  <types>       1 </types>
  <array name="atoms" >
   <dimension dim="1">ion</dimension>
   <field type="string">element</field>
   <field type="int">atomtype</field>
   <set>
    <rc><c>C </c><c>   1</c></rc>
    <rc><c>C </c><c>   1</c></rc>
    <rc><c>C </c><c>   1</c></rc>
    <rc><c>C </c><c>   1</c></rc>
    <rc><c>C </c><c>   1</c></rc>
    <rc><c>C </c><c>   1</c></rc>
    <rc><c>C </c><c>   1</c></rc>
    <rc><c>C </c><c>   1</c></rc>
    <rc><c>C </c><c>   1</c></rc>
    <rc><c>C </c><c>   1</c></rc>
    <rc><c>C </c><c>   1</c></rc>
    <rc><c>C </c><c>   1</c></rc>
    <rc><c>C </c><c>   1</c></rc>
    <rc><c>C </c><c>   1</c></rc>
    <rc><c>C </c><c>   1</c></rc>
    <rc><c>C </c><c>   1</c></rc>
    <rc><c>C </c><c>   1</c></rc>
    <rc><c>C </c><c>   1</c></rc>
    <rc><c>C </c><c>   1</c></rc>
    <rc><c>C </c><c>   1</c></rc>
    <rc><c>C </c><c>   1</c></rc>
    <rc><c>C </c><c>   1</c></rc>
    <rc><c>C </c><c>   1</c></rc>
    <rc><c>C </c><c>   1</c></rc>
    <rc><c>C </c><c>   1</c></rc>
    <rc><c>C </c><c>   1</c></rc>
    <rc><c>C </c><c>   1</c></rc>
    <rc><c>C </c><c>   1</c></rc>
    <rc><c>C </c><c>   1</c></rc>
    <rc><c>C </c><c>   1</c></rc>
    <rc><c>C </c><c>   1</c></rc>
    <rc><c>C </c><c>   1</c></rc>
    <rc><c>C </c><c>   1</c></rc>
    <rc><c>C </c><c>   1</c></rc>
    <rc><c>C </c><c>   1</c></rc>
    <rc><c>C </c><c>   1</c></rc>
    <rc><c>C </c><c>   1</c></rc>
    <rc><c>C </c><c>   1</c></rc>
    <rc><c>C </c><c>   1</c></rc>
    <rc><c>C </c><c>   1</c></rc>
    <rc><c>C </c><c>   1</c></rc>
    <rc><c>C </c><c>   1</c></rc>
    <rc><c>C </c><c>   1</c></rc>
    <rc><c>C </c><c>   1</c></rc>
    <rc><c>C </c><c>   1</c></rc>
    <rc><c>C </c><c>   1</c></rc>
    <rc><c>C </c><c>   1</c></rc>
    <rc><c>C </c><c>   1</c></rc>
    <rc><c>C </c><c>   1</c></rc>
    <rc><c>C </c><c>   1</c></rc>
    <rc><c>C </c><c>   1</c></rc>
    <rc><c>C </c><c>   1</c></rc>
    <rc><c>C </c><c>   1</c></rc>
    <rc><c>C </c><c>   1</c></rc>
    <rc><c>C </c><c>   1</c></rc>
    <rc><c>C </c><c>   1</c></rc>
    <rc><c>C </c><c>   1</c></rc>
    <rc><c>C </c><c>   1</c></rc>
    <rc><c>C </c><c>   1</c></rc>
    <rc><c>C </c><c>   1</c></rc>
    <rc><c>C </c><c>   1</c></rc>
    <rc><c>C </c><c>   1</c></rc>
    <rc><c>C </c><c>   1</c></rc>
    <rc><c>C </c><c>   1</c></rc>
   </set>
  </array>
  <array name="atomtypes" >
   <dimension dim="1">type</dimension>
   <field type="int">atomspertype</field>
   <field type="string">element</field>
   <field>mass</field>
   <field>valence</field>
   <field type="string">pseudopotential</field>
   <set>
    <rc><c>  64</c><c>C </c><c>     12.01100000</c><c>      4.00000000</c><c> PAW_PBE C 08Apr2002                    </c></rc>
   </set>
  </array>
 </atominfo>
 <structure name="initialpos" >
  <crystal>
   <varray name="basis" >
    <v>       7.25144289       0.00000000       0.00000000 </v>
    <v>       0.00000000       7.25144289       0.00000000 </v>
    <v>       0.00000000       0.00000000       7.17999872 </v>
   </varray>
   <i name="volume">    377.54891688 </i>
   <varray name="rec_basis" >
    <v>       0.13790359       0.00000000       0.00000000 </v>
    <v>       0.00000000       0.13790359       0.00000000 </v>
    <v>       0.00000000       0.00000000       0.13927579 </v>
   </varray>
  </crystal>
  <varray name="positions" >
   <v>       0.12500000       0.37500000       0.12500000 </v>
   <v>       0.62500000       0.37500000       0.12500000 </v>
   <v>       0.12500000       0.87500000       0.12500000 </v>
   <v>       0.62500000       0.87500000       0.12500000 </v>
   <v>       0.12500000       0.37500000       0.62500000 </v>
   <v>       0.62500000       0.37500000       0.62500000 </v>
   <v>       0.12500000       0.87500000       0.62500000 </v>
   <v>       0.62500000       0.87500000       0.62500000 </v>
   <v>       0.00000000       0.00000000       0.25000000 </v>
   <v>       0.50000000       0.00000000       0.25000000 </v>
   <v>       0.00000000       0.50000000       0.25000000 </v>
   <v>       0.50000000       0.50000000       0.25000000 </v>
   <v>       0.00000000       0.00000000       0.75000000 </v>
   <v>       0.50000000       0.00000000       0.75000000 </v>
   <v>       0.00000000       0.50000000       0.75000000 </v>
   <v>       0.50000000       0.50000000       0.75000000 </v>
   <v>       0.12500000       0.12500000       0.37500000 </v>
   <v>       0.62500000       0.12500000       0.37500000 </v>
   <v>       0.12500000       0.62500000       0.37500000 </v>
   <v>       0.62500000       0.62500000       0.37500000 </v>
   <v>       0.12500000       0.12500000       0.87500000 </v>
   <v>       0.62500000       0.12500000       0.87500000 </v>
   <v>       0.12500000       0.62500000       0.87500000 </v>
   <v>       0.62500000       0.62500000       0.87500000 </v>
   <v>       0.00000000       0.25000000       0.00000000 </v>
   <v>       0.50000000       0.25000000       0.00000000 </v>
   <v>       0.00000000       0.75000000       0.00000000 </v>
   <v>       0.50000000       0.75000000       0.00000000 </v>
   <v>       0.00000000       0.25000000       0.50000000 </v>
   <v>       0.50000000       0.25000000       0.50000000 </v>
   <v>       0.00000000       0.75000000       0.50000000 </v>
   <v>       0.50000000       0.75000000       0.50000000 </v>
   <v>       0.37500000       0.37500000       0.37500000 </v>
   <v>       0.87500000       0.37500000       0.37500000 </v>
   <v>       0.37500000       0.87500000       0.37500000 </v>
   <v>       0.87500000       0.87500000       0.37500000 </v>
   <v>       0.37500000       0.37500000       0.87500000 </v>
   <v>       0.87500000       0.37500000       0.87500000 </v>
   <v>       0.37500000       0.87500000       0.87500000 </v>
   <v>       0.87500000       0.87500000       0.87500000 </v>
   <v>       0.25000000       0.00000000       0.00000000 </v>
   <v>       0.75000000       0.00000000       0.00000000 </v>
   <v>       0.25000000       0.50000000       0.00000000 </v>
   <v>       0.75000000       0.50000000       0.00000000 </v>
   <v>       0.25000000       0.00000000       0.50000000 </v>
   <v>       0.75000000       0.00000000       0.50000000 </v>
   <v>       0.25000000       0.50000000       0.50000000 </v>
   <v>       0.75000000       0.50000000       0.50000000 </v>
   <v>       0.37500000       0.12500000       0.12500000 </v>
   <v>       0.87500000       0.12500000       0.12500000 </v>
   <v>       0.37500000       0.62500000       0.12500000 </v>
   <v>       0.87500000       0.62500000       0.12500000 </v>
   <v>       0.37500000       0.12500000       0.62500000 </v>
   <v>       0.87500000       0.12500000       0.62500000 </v>
   <v>       0.37500000       0.62500000       0.62500000 </v>
   <v>       0.87500000       0.62500000       0.62500000 </v>
   <v>       0.25000000       0.25000000       0.25000000 </v>
   <v>       0.75000000       0.25000000       0.25000000 </v>
   <v>       0.25000000       0.75000000       0.25000000 </v>
   <v>       0.75000000       0.75000000       0.25000000 </v>
   <v>       0.25000000       0.25000000       0.75000000 </v>
   <v>       0.75000000       0.25000000       0.75000000 </v>
   <v>       0.25000000       0.75000000       0.75000000 </v>
   <v>       0.75000000       0.75000000       0.75000000 </v>
  </varray>
 </structure>
 <calculation>
  <scstep>
   <time name="dav">   26.93   26.94</time>
   <time name="total">   27.05   27.07</time>
   <energy>
    <i name="alphaZ">    883.97221347 </i>
    <i name="ewald"> -10990.11478273 </i>
    <i name="hartreedc">   -591.50293987 </i>
    <i name="XCdc">    907.18080383 </i>
    <i name="pawpsdc">   2421.21235816 </i>
    <i name="pawaedc">  -2494.84305711 </i>
    <i name="eentropy">     -0.01267207 </i>
    <i name="bandstr">    949.32655635 </i>
    <i name="atom">   9416.14232778 </i>
    <i name="e_fr_energy">    501.36080779 </i>
    <i name="e_wo_entrp">    501.37347987 </i>
    <i name="e_0_energy">    501.36714383 </i>
   </energy>
  </scstep>
  <scstep>
   <time name="dav">   33.48   33.49</time>
   <time name="total">   33.49   33.49</time>
   <energy>
    <i name="e_fr_energy">   -557.13105327 </i>
    <i name="e_wo_entrp">   -557.13105327 </i>
    <i name="e_0_energy">   -557.13105327 </i>
   </energy>
  </scstep>
  <scstep>
   <time name="dav">   34.12   34.12</time>
   <time name="total">   34.12   34.13</time>
   <energy>
    <i name="e_fr_energy">   -598.78515639 </i>
    <i name="e_wo_entrp">   -598.78515639 </i>
    <i name="e_0_energy">   -598.78515639 </i>
   </energy>
  </scstep>
  <scstep>
   <time name="dav">   34.17   34.17</time>
   <time name="total">   34.18   34.18</time>
   <energy>
    <i name="e_fr_energy">   -599.25649310 </i>
    <i name="e_wo_entrp">   -599.25649310 </i>
    <i name="e_0_energy">   -599.25649310 </i>
   </energy>
  </scstep>
  <scstep>
   <time name="dav">   32.12   32.12</time>
   <time name="total">   32.89   32.89</time>
   <energy>
    <i name="e_fr_energy">   -599.26588254 </i>
    <i name="e_wo_entrp">   -599.26588254 </i>
    <i name="e_0_energy">   -599.26588254 </i>
   </energy>
  </scstep>
  <scstep>
   <time name="dav">   30.97   30.97</time>
   <time name="total">   31.86   31.86</time>
   <energy>
    <i name="e_fr_energy">   -585.83922110 </i>
    <i name="e_wo_entrp">   -585.83922110 </i>
    <i name="e_0_energy">   -585.83922110 </i>
   </energy>
  </scstep>
  <scstep>
   <time name="dav">   31.63   31.64</time>
   <time name="total">   32.50   32.50</time>
   <energy>
    <i name="e_fr_energy">   -581.29974142 </i>
    <i name="e_wo_entrp">   -581.29974142 </i>
    <i name="e_0_energy">   -581.29974142 </i>
   </energy>
  </scstep>
  <scstep>
   <time name="dav">   32.63   32.63</time>
   <time name="total">   33.51   33.51</time>
   <energy>
    <i name="e_fr_energy">   -581.35617563 </i>
    <i name="e_wo_entrp">   -581.35617563 </i>
    <i name="e_0_energy">   -581.35617563 </i>
   </energy>
  </scstep>
  <scstep>
   <time name="dav">   33.66   33.66</time>
   <time name="total">   34.55   34.55</time>
   <energy>
    <i name="e_fr_energy">   -581.35832847 </i>
    <i name="e_wo_entrp">   -581.35832847 </i>
    <i name="e_0_energy">   -581.35832847 </i>
   </energy>
  </scstep>
  <scstep>
   <time name="dav">   31.74   31.74</time>
   <time name="total">   32.60   32.61</time>
   <energy>
    <i name="e_fr_energy">   -581.35879370 </i>
    <i name="e_wo_entrp">   -581.35879370 </i>
    <i name="e_0_energy">   -581.35879370 </i>
   </energy>
  </scstep>
  <scstep>
   <time name="dav">   34.03   34.03</time>
   <time name="total">   34.90   34.90</time>
   <energy>
    <i name="e_fr_energy">   -581.35879801 </i>
    <i name="e_wo_entrp">   -581.35879801 </i>
    <i name="e_0_energy">   -581.35879801 </i>
   </energy>
  </scstep>
  <scstep>
   <time name="dav">   33.60   33.60</time>
   <time name="total">   34.47   34.47</time>
   <energy>
    <i name="e_fr_energy">   -581.35879819 </i>
    <i name="e_wo_entrp">   -581.35879819 </i>
    <i name="e_0_energy">   -581.35879819 </i>
   </energy>
  </scstep>
  <scstep>
   <time name="dav">   28.12   28.13</time>
   <time name="total">   28.99   29.00</time>
   <energy>
    <i name="e_fr_energy">   -581.35879830 </i>
    <i name="e_wo_entrp">   -581.35879830 </i>
    <i name="e_0_energy">   -581.35879830 </i>
   </energy>
  </scstep>
  <scstep>
   <time name="dav">   25.94   25.94</time>
   <time name="total">   26.81   26.81</time>
   <energy>
    <i name="e_fr_energy">   -581.35879831 </i>
    <i name="e_wo_entrp">   -581.35879831 </i>
    <i name="e_0_energy">   -581.35879831 </i>
   </energy>
  </scstep>
  <scstep>
   <time name="dav">   24.32   24.33</time>
   <time name="total">   24.43   24.43</time>
   <energy>
    <i name="alphaZ">    883.97221347 </i>
    <i name="ewald"> -10990.11478273 </i>
    <i name="hartreedc">   -861.58327253 </i>
    <i name="XCdc">    932.58342650 </i>
    <i name="pawpsdc">   4057.76265857 </i>
    <i name="pawaedc">  -4137.93931607 </i>
    <i name="eentropy">     -0.00000000 </i>
    <i name="bandstr">    117.81794669 </i>
    <i name="atom">   9416.14232778 </i>
    <i name="e_fr_energy">   -581.35879831 </i>
    <i name="e_wo_entrp">   -581.35879831 </i>
    <i name="e_0_energy">   -581.35879831 </i>
   </energy>
  </scstep>
  <structure>
   <crystal>
    <varray name="basis" >
     <v>       7.25144289       0.00000000       0.00000000 </v>
     <v>       0.00000000       7.25144289       0.00000000 </v>
     <v>       0.00000000       0.00000000       7.17999872 </v>
    </varray>
    <i name="volume">    377.54891688 </i>
    <varray name="rec_basis" >
     <v>       0.13790359       0.00000000       0.00000000 </v>
     <v>       0.00000000       0.13790359       0.00000000 </v>
     <v>       0.00000000       0.00000000       0.13927579 </v>
    </varray>
   </crystal>
   <varray name="positions" >
    <v>       0.12500000       0.37500000       0.12500000 </v>
    <v>       0.62500000       0.37500000       0.12500000 </v>
    <v>       0.12500000       0.87500000       0.12500000 </v>
    <v>       0.62500000       0.87500000       0.12500000 </v>
    <v>       0.12500000       0.37500000       0.62500000 </v>
    <v>       0.62500000       0.37500000       0.62500000 </v>
    <v>       0.12500000       0.87500000       0.62500000 </v>
    <v>       0.62500000       0.87500000       0.62500000 </v>
    <v>       0.00000000       0.00000000       0.25000000 </v>
    <v>       0.50000000       0.00000000       0.25000000 </v>
    <v>       0.00000000       0.50000000       0.25000000 </v>
    <v>       0.50000000       0.50000000       0.25000000 </v>
    <v>       0.00000000       0.00000000       0.75000000 </v>
    <v>       0.50000000       0.00000000       0.75000000 </v>
    <v>       0.00000000       0.50000000       0.75000000 </v>
    <v>       0.50000000       0.50000000       0.75000000 </v>
    <v>       0.12500000       0.12500000       0.37500000 </v>
    <v>       0.62500000       0.12500000       0.37500000 </v>
    <v>       0.12500000       0.62500000       0.37500000 </v>
    <v>       0.62500000       0.62500000       0.37500000 </v>
    <v>       0.12500000       0.12500000       0.87500000 </v>
    <v>       0.62500000       0.12500000       0.87500000 </v>
    <v>       0.12500000       0.62500000       0.87500000 </v>
    <v>       0.62500000       0.62500000       0.87500000 </v>
    <v>       0.00000000       0.25000000       0.00000000 </v>
    <v>       0.50000000       0.25000000       0.00000000 </v>
    <v>       0.00000000       0.75000000       0.00000000 </v>
    <v>       0.50000000       0.75000000       0.00000000 </v>
    <v>       0.00000000       0.25000000       0.50000000 </v>
    <v>       0.50000000       0.25000000       0.50000000 </v>
    <v>       0.00000000       0.75000000       0.50000000 </v>
    <v>       0.50000000       0.75000000       0.50000000 </v>
    <v>       0.37500000       0.37500000       0.37500000 </v>
    <v>       0.87500000       0.37500000       0.37500000 </v>
    <v>       0.37500000       0.87500000       0.37500000 </v>
    <v>       0.87500000       0.87500000       0.37500000 </v>
    <v>       0.37500000       0.37500000       0.87500000 </v>
    <v>       0.87500000       0.37500000       0.87500000 </v>
    <v>       0.37500000       0.87500000       0.87500000 </v>
    <v>       0.87500000       0.87500000       0.87500000 </v>
    <v>       0.25000000       0.00000000       0.00000000 </v>
    <v>       0.75000000       0.00000000       0.00000000 </v>
    <v>       0.25000000       0.50000000       0.00000000 </v>
    <v>       0.75000000       0.50000000       0.00000000 </v>
    <v>       0.25000000       0.00000000       0.50000000 </v>
    <v>       0.75000000       0.00000000       0.50000000 </v>
    <v>       0.25000000       0.50000000       0.50000000 </v>
    <v>       0.75000000       0.50000000       0.50000000 </v>
    <v>       0.37500000       0.12500000       0.12500000 </v>
    <v>       0.87500000       0.12500000       0.12500000 </v>
    <v>       0.37500000       0.62500000       0.12500000 </v>
    <v>       0.87500000       0.62500000       0.12500000 </v>
    <v>       0.37500000       0.12500000       0.62500000 </v>
    <v>       0.87500000       0.12500000       0.62500000 </v>
    <v>       0.37500000       0.62500000       0.62500000 </v>
    <v>       0.87500000       0.62500000       0.62500000 </v>
    <v>       0.25000000       0.25000000       0.25000000 </v>
    <v>       0.75000000       0.25000000       0.25000000 </v>
    <v>       0.25000000       0.75000000       0.25000000 </v>
    <v>       0.75000000       0.75000000       0.25000000 </v>
    <v>       0.25000000       0.25000000       0.75000000 </v>
    <v>       0.75000000       0.25000000       0.75000000 </v>
    <v>       0.25000000       0.75000000       0.75000000 </v>
    <v>       0.75000000       0.75000000       0.75000000 </v>
   </varray>
  </structure>
  <varray name="forces" >
   <v>      -0.00000000      -0.00000000      -0.00000000 </v>
   <v>      -0.00000000      -0.00000000      -0.00000000 </v>
   <v>      -0.00000000      -0.00000000       0.00000000 </v>
   <v>      -0.00000000      -0.00000000       0.00000000 </v>
   <v>       0.00000000      -0.00000000      -0.00000000 </v>
   <v>       0.00000000      -0.00000000      -0.00000000 </v>
   <v>       0.00000000      -0.00000000      -0.00000000 </v>
   <v>      -0.00000000      -0.00000000      -0.00000000 </v>
   <v>      -0.00000000       0.00000000      -0.00000000 </v>
   <v>      -0.00000000       0.00000000       0.00000000 </v>
   <v>      -0.00000000       0.00000000       0.00000000 </v>
   <v>       0.00000000       0.00000000       0.00000000 </v>
   <v>       0.00000000       0.00000000      -0.00000000 </v>
   <v>       0.00000000       0.00000000      -0.00000000 </v>
   <v>      -0.00000000       0.00000000      -0.00000000 </v>
   <v>       0.00000000       0.00000000       0.00000000 </v>
   <v>       0.00000000      -0.00000000      -0.00000000 </v>
   <v>      -0.00000000      -0.00000000       0.00000000 </v>
   <v>       0.00000000      -0.00000000      -0.00000000 </v>
   <v>      -0.00000000      -0.00000000       0.00000000 </v>
   <v>       0.00000000      -0.00000000       0.00000000 </v>
   <v>       0.00000000      -0.00000000       0.00000000 </v>
   <v>       0.00000000       0.00000000      -0.00000000 </v>
   <v>       0.00000000      -0.00000000      -0.00000000 </v>
   <v>       0.00000000       0.00000000       0.00000000 </v>
   <v>      -0.00000000       0.00000000       0.00000000 </v>
   <v>       0.00000000       0.00000000       0.00000000 </v>
   <v>       0.00000000       0.00000000       0.00000000 </v>
   <v>       0.00000000       0.00000000       0.00000000 </v>
   <v>      -0.00000000       0.00000000      -0.00000000 </v>
   <v>       0.00000000       0.00000000       0.00000000 </v>
   <v>      -0.00000000       0.00000000      -0.00000000 </v>
   <v>      -0.00000000      -0.00000000      -0.00000000 </v>
   <v>       0.00000000       0.00000000       0.00000000 </v>
   <v>      -0.00000000      -0.00000000       0.00000000 </v>
   <v>       0.00000000      -0.00000000      -0.00000000 </v>
   <v>       0.00000000       0.00000000      -0.00000000 </v>
   <v>      -0.00000000      -0.00000000      -0.00000000 </v>
   <v>      -0.00000000      -0.00000000      -0.00000000 </v>
   <v>       0.00000000      -0.00000000       0.00000000 </v>
   <v>       0.00000000       0.00000000       0.00000000 </v>
   <v>      -0.00000000      -0.00000000      -0.00000000 </v>
   <v>      -0.00000000       0.00000000      -0.00000000 </v>
   <v>       0.00000000       0.00000000      -0.00000000 </v>
   <v>      -0.00000000       0.00000000      -0.00000000 </v>
   <v>       0.00000000       0.00000000       0.00000000 </v>
   <v>       0.00000000       0.00000000       0.00000000 </v>
   <v>      -0.00000000       0.00000000      -0.00000000 </v>
   <v>      -0.00000000      -0.00000000       0.00000000 </v>
   <v>       0.00000000      -0.00000000       0.00000000 </v>
   <v>      -0.00000000      -0.00000000      -0.00000000 </v>
   <v>      -0.00000000      -0.00000000       0.00000000 </v>
   <v>       0.00000000      -0.00000000       0.00000000 </v>
   <v>      -0.00000000      -0.00000000       0.00000000 </v>
   <v>       0.00000000      -0.00000000       0.00000000 </v>
   <v>       0.00000000      -0.00000000       0.00000000 </v>
   <v>       0.00000000       0.00000000       0.00000000 </v>
   <v>      -0.00000000       0.00000000       0.00000000 </v>
   <v>       0.00000000       0.00000000       0.00000000 </v>
   <v>      -0.00000000      -0.00000000       0.00000000 </v>
   <v>      -0.00000000       0.00000000       0.00000000 </v>
   <v>      -0.00000000       0.00000000       0.00000000 </v>
   <v>       0.00000000      -0.00000000      -0.00000000 </v>
   <v>       0.00000000       0.00000000      -0.00000000 </v>
  </varray>
  <varray name="stress" >
   <v>    -208.64465969       0.00000000       0.00000000 </v>
   <v>       0.00000000    -208.64465969      -0.00000000 </v>
   <v>       0.00000000       0.00000000    -121.13492085 </v>
  </varray>
  <energy>
   <i name="e_fr_energy">   -581.35879831 </i>
   <i name="e_wo_entrp">   -581.35879831 </i>
   <i name="e_0_energy">     -0.00000000 </i>
  </energy>
  <kpoints>
   <generation param="Gamma">
    <v type="int" name="divisions">       6        6        6 </v>
    <v name="usershift">      0.00000000       0.00000000       0.00000000 </v>
    <v name="genvec1">      0.16666667       0.00000000       0.00000000 </v>
    <v name="genvec2">      0.00000000       0.16666667       0.00000000 </v>
    <v name="genvec3">      0.00000000       0.00000000       0.16666667 </v>
    <v name="shift">      0.00000000       0.00000000       0.00000000 </v>
   </generation>
   <varray name="kpointlist" >
    <v>       0.00000000       0.00000000       0.00000000 </v>
    <v>       0.16666667       0.00000000       0.00000000 </v>
    <v>       0.33333333       0.00000000       0.00000000 </v>
    <v>       0.50000000       0.00000000       0.00000000 </v>
    <v>       0.00000000       0.16666667       0.00000000 </v>
    <v>       0.16666667       0.16666667       0.00000000 </v>
    <v>       0.33333333       0.16666667       0.00000000 </v>
    <v>       0.50000000       0.16666667       0.00000000 </v>
    <v>       0.00000000       0.33333333       0.00000000 </v>
    <v>       0.16666667       0.33333333       0.00000000 </v>
    <v>       0.33333333       0.33333333       0.00000000 </v>
    <v>       0.50000000       0.33333333       0.00000000 </v>
    <v>       0.00000000       0.50000000       0.00000000 </v>
    <v>       0.16666667       0.50000000       0.00000000 </v>
    <v>       0.33333333       0.50000000       0.00000000 </v>
    <v>       0.50000000       0.50000000       0.00000000 </v>
    <v>       0.00000000       0.00000000       0.16666667 </v>
    <v>       0.16666667       0.00000000       0.16666667 </v>
    <v>       0.33333333       0.00000000       0.16666667 </v>
    <v>       0.50000000       0.00000000       0.16666667 </v>
    <v>       0.00000000       0.16666667       0.16666667 </v>
    <v>       0.16666667       0.16666667       0.16666667 </v>
    <v>       0.33333333       0.16666667       0.16666667 </v>
    <v>       0.50000000       0.16666667       0.16666667 </v>
    <v>       0.00000000       0.33333333       0.16666667 </v>
    <v>       0.16666667       0.33333333       0.16666667 </v>
    <v>       0.33333333       0.33333333       0.16666667 </v>
    <v>       0.50000000       0.33333333       0.16666667 </v>
    <v>       0.00000000       0.50000000       0.16666667 </v>
    <v>       0.16666667       0.50000000       0.16666667 </v>
    <v>       0.33333333       0.50000000       0.16666667 </v>
    <v>       0.50000000       0.50000000       0.16666667 </v>
    <v>       0.00000000      -0.33333333       0.16666667 </v>
    <v>       0.16666667      -0.33333333       0.16666667 </v>
    <v>       0.33333333      -0.33333333       0.16666667 </v>
    <v>       0.50000000      -0.33333333       0.16666667 </v>
    <v>       0.00000000      -0.16666667       0.16666667 </v>
    <v>       0.16666667      -0.16666667       0.16666667 </v>
    <v>       0.33333333      -0.16666667       0.16666667 </v>
    <v>       0.50000000      -0.16666667       0.16666667 </v>
    <v>       0.00000000       0.00000000       0.33333333 </v>
    <v>       0.16666667       0.00000000       0.33333333 </v>
    <v>       0.33333333       0.00000000       0.33333333 </v>
    <v>       0.50000000       0.00000000       0.33333333 </v>
    <v>       0.00000000       0.16666667       0.33333333 </v>
    <v>       0.16666667       0.16666667       0.33333333 </v>
    <v>       0.33333333       0.16666667       0.33333333 </v>
    <v>       0.50000000       0.16666667       0.33333333 </v>
    <v>       0.00000000       0.33333333       0.33333333 </v>
    <v>       0.16666667       0.33333333       0.33333333 </v>
    <v>       0.33333333       0.33333333       0.33333333 </v>
    <v>       0.50000000       0.33333333       0.33333333 </v>
    <v>       0.00000000       0.50000000       0.33333333 </v>
    <v>       0.16666667       0.50000000       0.33333333 </v>
    <v>       0.33333333       0.50000000       0.33333333 </v>
    <v>       0.50000000       0.50000000       0.33333333 </v>
    <v>       0.00000000      -0.33333333       0.33333333 </v>
    <v>       0.16666667      -0.33333333       0.33333333 </v>
    <v>       0.33333333      -0.33333333       0.33333333 </v>
    <v>       0.50000000      -0.33333333       0.33333333 </v>
    <v>       0.00000000      -0.16666667       0.33333333 </v>
    <v>       0.16666667      -0.16666667       0.33333333 </v>
    <v>       0.33333333      -0.16666667       0.33333333 </v>
    <v>       0.50000000      -0.16666667       0.33333333 </v>
    <v>       0.00000000       0.00000000       0.50000000 </v>
    <v>       0.16666667       0.00000000       0.50000000 </v>
    <v>       0.33333333       0.00000000       0.50000000 </v>
    <v>       0.50000000       0.00000000       0.50000000 </v>
    <v>       0.00000000       0.16666667       0.50000000 </v>
    <v>       0.16666667       0.16666667       0.50000000 </v>
    <v>       0.33333333       0.16666667       0.50000000 </v>
    <v>       0.50000000       0.16666667       0.50000000 </v>
    <v>       0.00000000       0.33333333       0.50000000 </v>
    <v>       0.16666667       0.33333333       0.50000000 </v>
    <v>       0.33333333       0.33333333       0.50000000 </v>
    <v>       0.50000000       0.33333333       0.50000000 </v>
    <v>       0.00000000       0.50000000       0.50000000 </v>
    <v>       0.16666667       0.50000000       0.50000000 </v>
    <v>       0.33333333       0.50000000       0.50000000 </v>
    <v>       0.50000000       0.50000000       0.50000000 </v>
   </varray>
   <varray name="weights" >
    <v>       0.00462963 </v>
    <v>       0.00925926 </v>
    <v>       0.00925926 </v>
    <v>       0.00462963 </v>
    <v>       0.00925926 </v>
    <v>       0.01851852 </v>
    <v>       0.01851852 </v>
    <v>       0.00925926 </v>
    <v>       0.00925926 </v>
    <v>       0.01851852 </v>
    <v>       0.01851852 </v>
    <v>       0.00925926 </v>
    <v>       0.00462963 </v>
    <v>       0.00925926 </v>
    <v>       0.00925926 </v>
    <v>       0.00462963 </v>
    <v>       0.00925926 </v>
    <v>       0.01851852 </v>
    <v>       0.01851852 </v>
    <v>       0.00925926 </v>
    <v>       0.00925926 </v>
    <v>       0.01851852 </v>
    <v>       0.01851852 </v>
    <v>       0.00925926 </v>
    <v>       0.00925926 </v>
    <v>       0.01851852 </v>
    <v>       0.01851852 </v>
    <v>       0.00925926 </v>
    <v>       0.00925926 </v>
    <v>       0.01851852 </v>
    <v>       0.01851852 </v>
    <v>       0.00925926 </v>
    <v>       0.00925926 </v>
    <v>       0.01851852 </v>
    <v>       0.01851852 </v>
    <v>       0.00925926 </v>
    <v>       0.00925926 </v>
    <v>       0.01851852 </v>
    <v>       0.01851852 </v>
    <v>       0.00925926 </v>
    <v>       0.00925926 </v>
    <v>       0.01851852 </v>
    <v>       0.01851852 </v>
    <v>       0.00925926 </v>
    <v>       0.00925926 </v>
    <v>       0.01851852 </v>
    <v>       0.01851852 </v>
    <v>       0.00925926 </v>
    <v>       0.00925926 </v>
    <v>       0.01851852 </v>
    <v>       0.01851852 </v>
    <v>       0.00925926 </v>
    <v>       0.00925926 </v>
    <v>       0.01851852 </v>
    <v>       0.01851852 </v>
    <v>       0.00925926 </v>
    <v>       0.00925926 </v>
    <v>       0.01851852 </v>
    <v>       0.01851852 </v>
    <v>       0.00925926 </v>
    <v>       0.00925926 </v>
    <v>       0.01851852 </v>
    <v>       0.01851852 </v>
    <v>       0.00925926 </v>
    <v>       0.00462963 </v>
    <v>       0.00925926 </v>
    <v>       0.00925926 </v>
    <v>       0.00462963 </v>
    <v>       0.00925926 </v>
    <v>       0.01851852 </v>
    <v>       0.01851852 </v>
    <v>       0.00925926 </v>
    <v>       0.00925926 </v>
    <v>       0.01851852 </v>
    <v>       0.01851852 </v>
    <v>       0.00925926 </v>
    <v>       0.00462963 </v>
    <v>       0.00925926 </v>
    <v>       0.00925926 </v>
    <v>       0.00462963 </v>
   </varray>
  </kpoints>
  <scstep>
   <time name="total">   66.59   66.60</time>
   <energy>
    <i name="e_fr_energy">   -358.65614675 </i>
    <i name="e_wo_entrp">   -358.65614675 </i>
    <i name="e_0_energy">   -358.65614675 </i>
   </energy>
  </scstep>
  <scstep>
   <time name="total">   49.59   49.60</time>
   <energy>
    <i name="e_fr_energy">   -306.55218566 </i>
    <i name="e_wo_entrp">   -306.55218566 </i>
    <i name="e_0_energy">   -306.55218566 </i>
   </energy>
  </scstep>
  <scstep>
   <time name="total">   50.96   50.97</time>
   <energy>
    <i name="e_fr_energy">   -306.24097777 </i>
    <i name="e_wo_entrp">   -306.24097777 </i>
    <i name="e_0_energy">   -306.24097777 </i>
   </energy>
  </scstep>
  <scstep>
   <time name="total">   51.14   51.15</time>
   <energy>
    <i name="e_fr_energy">   -306.84171718 </i>
    <i name="e_wo_entrp">   -306.84171718 </i>
    <i name="e_0_energy">   -306.84171718 </i>
   </energy>
  </scstep>
  <scstep>
   <time name="total">   51.54   51.54</time>
   <energy>
    <i name="e_fr_energy">   -307.03033550 </i>
    <i name="e_wo_entrp">   -307.03033550 </i>
    <i name="e_0_energy">   -307.03033550 </i>
   </energy>
  </scstep>
  <scstep>
   <time name="total">   51.72   51.73</time>
   <energy>
    <i name="e_fr_energy">   -306.98738843 </i>
    <i name="e_wo_entrp">   -306.98738843 </i>
    <i name="e_0_energy">   -306.98738843 </i>
   </energy>
  </scstep>
  <scstep>
   <time name="total">   52.37   52.37</time>
   <energy>
    <i name="e_fr_energy">   -306.96585726 </i>
    <i name="e_wo_entrp">   -306.96585726 </i>
    <i name="e_0_energy">   -306.96585726 </i>
   </energy>
  </scstep>
  <scstep>
   <time name="total">   53.40   53.40</time>
   <energy>
    <i name="e_fr_energy">   -306.96443397 </i>
    <i name="e_wo_entrp">   -306.96443397 </i>
    <i name="e_0_energy">   -306.96443397 </i>
   </energy>
  </scstep>
  <scstep>
   <time name="total">   55.03   55.04</time>
   <energy>
    <i name="e_fr_energy">   -306.96384929 </i>
    <i name="e_wo_entrp">   -306.96384929 </i>
    <i name="e_0_energy">   -306.96384929 </i>
   </energy>
  </scstep>
  <scstep>
   <time name="total">   56.12   56.13</time>
   <energy>
    <i name="e_fr_energy">   -306.96423544 </i>
    <i name="e_wo_entrp">   -306.96423544 </i>
    <i name="e_0_energy">   -306.96423544 </i>
   </energy>
  </scstep>
  <scstep>
   <time name="total">   56.31   56.31</time>
   <energy>
    <i name="e_fr_energy">   -306.96421669 </i>
    <i name="e_wo_entrp">   -306.96421669 </i>
    <i name="e_0_energy">   -306.96421669 </i>
   </energy>
  </scstep>
  <kpoints>
   <generation param="Gamma">
    <v type="int" name="divisions">       6        6        6 </v>
    <v name="usershift">      0.00000000       0.00000000       0.00000000 </v>
    <v name="genvec1">      0.16666667       0.00000000       0.00000000 </v>
    <v name="genvec2">      0.00000000       0.16666667       0.00000000 </v>
    <v name="genvec3">      0.00000000       0.00000000       0.16666667 </v>
    <v name="shift">      0.00000000       0.00000000       0.00000000 </v>
   </generation>
   <varray name="kpointlist" >
    <v>       0.00000000       0.00000000       0.00000000 </v>
    <v>       0.16666667       0.00000000       0.00000000 </v>
    <v>       0.33333333       0.00000000       0.00000000 </v>
    <v>       0.50000000       0.00000000       0.00000000 </v>
    <v>       0.16666667       0.16666667       0.00000000 </v>
    <v>       0.33333333       0.16666667       0.00000000 </v>
    <v>       0.50000000       0.16666667       0.00000000 </v>
    <v>      -0.33333333       0.16666667       0.00000000 </v>
    <v>      -0.16666667       0.16666667       0.00000000 </v>
    <v>       0.33333333       0.33333333       0.00000000 </v>
    <v>       0.50000000       0.33333333       0.00000000 </v>
    <v>      -0.33333333       0.33333333       0.00000000 </v>
    <v>       0.50000000       0.50000000       0.00000000 </v>
    <v>       0.00000000       0.00000000       0.16666667 </v>
    <v>       0.16666667       0.00000000       0.16666667 </v>
    <v>       0.33333333       0.00000000       0.16666667 </v>
    <v>       0.50000000       0.00000000       0.16666667 </v>
    <v>       0.16666667       0.16666667       0.16666667 </v>
    <v>       0.33333333       0.16666667       0.16666667 </v>
    <v>       0.50000000       0.16666667       0.16666667 </v>
    <v>      -0.33333333       0.16666667       0.16666667 </v>
    <v>      -0.16666667       0.16666667       0.16666667 </v>
    <v>       0.33333333       0.33333333       0.16666667 </v>
    <v>       0.50000000       0.33333333       0.16666667 </v>
    <v>      -0.33333333       0.33333333       0.16666667 </v>
    <v>       0.50000000       0.50000000       0.16666667 </v>
    <v>       0.00000000       0.00000000       0.33333333 </v>
    <v>       0.16666667       0.00000000       0.33333333 </v>
    <v>       0.33333333       0.00000000       0.33333333 </v>
    <v>       0.50000000       0.00000000       0.33333333 </v>
    <v>       0.16666667       0.16666667       0.33333333 </v>
    <v>       0.33333333       0.16666667       0.33333333 </v>
    <v>       0.50000000       0.16666667       0.33333333 </v>
    <v>      -0.33333333       0.16666667       0.33333333 </v>
    <v>      -0.16666667       0.16666667       0.33333333 </v>
    <v>       0.33333333       0.33333333       0.33333333 </v>
    <v>       0.50000000       0.33333333       0.33333333 </v>
    <v>      -0.33333333       0.33333333       0.33333333 </v>
    <v>       0.50000000       0.50000000       0.33333333 </v>
    <v>       0.00000000       0.00000000       0.50000000 </v>
    <v>       0.16666667       0.00000000       0.50000000 </v>
    <v>       0.33333333       0.00000000       0.50000000 </v>
    <v>       0.50000000       0.00000000       0.50000000 </v>
    <v>       0.16666667       0.16666667       0.50000000 </v>
    <v>       0.33333333       0.16666667       0.50000000 </v>
    <v>       0.50000000       0.16666667       0.50000000 </v>
    <v>      -0.33333333       0.16666667       0.50000000 </v>
    <v>      -0.16666667       0.16666667       0.50000000 </v>
    <v>       0.33333333       0.33333333       0.50000000 </v>
    <v>       0.50000000       0.33333333       0.50000000 </v>
    <v>      -0.33333333       0.33333333       0.50000000 </v>
    <v>       0.50000000       0.50000000       0.50000000 </v>
   </varray>
   <varray name="weights" >
    <v>       0.00462963 </v>
    <v>       0.01851852 </v>
    <v>       0.01851852 </v>
    <v>       0.00925926 </v>
    <v>       0.00925926 </v>
    <v>       0.01851852 </v>
    <v>       0.01851852 </v>
    <v>       0.01851852 </v>
    <v>       0.00925926 </v>
    <v>       0.00925926 </v>
    <v>       0.01851852 </v>
    <v>       0.00925926 </v>
    <v>       0.00462963 </v>
    <v>       0.00925926 </v>
    <v>       0.03703704 </v>
    <v>       0.03703704 </v>
    <v>       0.01851852 </v>
    <v>       0.01851852 </v>
    <v>       0.03703704 </v>
    <v>       0.03703704 </v>
    <v>       0.03703704 </v>
    <v>       0.01851852 </v>
    <v>       0.01851852 </v>
    <v>       0.03703704 </v>
    <v>       0.01851852 </v>
    <v>       0.00925926 </v>
    <v>       0.00925926 </v>
    <v>       0.03703704 </v>
    <v>       0.03703704 </v>
    <v>       0.01851852 </v>
    <v>       0.01851852 </v>
    <v>       0.03703704 </v>
    <v>       0.03703704 </v>
    <v>       0.03703704 </v>
    <v>       0.01851852 </v>
    <v>       0.01851852 </v>
    <v>       0.03703704 </v>
    <v>       0.01851852 </v>
    <v>       0.00925926 </v>
    <v>       0.00462963 </v>
    <v>       0.01851852 </v>
    <v>       0.01851852 </v>
    <v>       0.00925926 </v>
    <v>       0.00925926 </v>
    <v>       0.01851852 </v>
    <v>       0.01851852 </v>
    <v>       0.01851852 </v>
    <v>       0.00925926 </v>
    <v>       0.00925926 </v>
    <v>       0.01851852 </v>
    <v>       0.00925926 </v>
    <v>       0.00462963 </v>
   </varray>
  </kpoints>
  <scstep>
   <time name="total">   43.75   43.76</time>
   <energy>
    <i name="e_fr_energy">   -357.97565025 </i>
    <i name="e_wo_entrp">   -357.97565025 </i>
    <i name="e_0_energy">   -357.97565025 </i>
   </energy>
  </scstep>
  <scstep>
   <time name="total">   32.60   32.61</time>
   <energy>
    <i name="e_fr_energy">   -306.63854297 </i>
    <i name="e_wo_entrp">   -306.63854297 </i>
    <i name="e_0_energy">   -306.63854297 </i>
   </energy>
  </scstep>
  <scstep>
   <time name="total">   33.37   33.37</time>
   <energy>
    <i name="e_fr_energy">   -306.37666715 </i>
    <i name="e_wo_entrp">   -306.37666715 </i>
    <i name="e_0_energy">   -306.37666715 </i>
   </energy>
  </scstep>
  <scstep>
   <time name="total">   33.40   33.40</time>
   <energy>
    <i name="e_fr_energy">   -306.98113927 </i>
    <i name="e_wo_entrp">   -306.98113927 </i>
    <i name="e_0_energy">   -306.98113927 </i>
   </energy>
  </scstep>
  <scstep>
   <time name="total">   33.83   33.87</time>
   <energy>
    <i name="e_fr_energy">   -307.16572199 </i>
    <i name="e_wo_entrp">   -307.16572199 </i>
    <i name="e_0_energy">   -307.16572199 </i>
   </energy>
  </scstep>
  <scstep>
   <time name="total">   33.98   33.98</time>
   <energy>
    <i name="e_fr_energy">   -307.12244577 </i>
    <i name="e_wo_entrp">   -307.12244577 </i>
    <i name="e_0_energy">   -307.12244577 </i>
   </energy>
  </scstep>
  <scstep>
   <time name="total">   34.30   34.30</time>
   <energy>
    <i name="e_fr_energy">   -307.10155544 </i>
    <i name="e_wo_entrp">   -307.10155544 </i>
    <i name="e_0_energy">   -307.10155544 </i>
   </energy>
  </scstep>
  <scstep>
   <time name="total">   35.00   35.00</time>
   <energy>
    <i name="e_fr_energy">   -307.10013960 </i>
    <i name="e_wo_entrp">   -307.10013960 </i>
    <i name="e_0_energy">   -307.10013960 </i>
   </energy>
  </scstep>
  <scstep>
   <time name="total">   35.57   35.58</time>
   <energy>
    <i name="e_fr_energy">   -307.09960805 </i>
    <i name="e_wo_entrp">   -307.09960805 </i>
    <i name="e_0_energy">   -307.09960805 </i>
   </energy>
  </scstep>
  <scstep>
   <time name="total">   36.23   36.23</time>
   <energy>
    <i name="e_fr_energy">   -307.09990146 </i>
    <i name="e_wo_entrp">   -307.09990146 </i>
    <i name="e_0_energy">   -307.09990146 </i>
   </energy>
  </scstep>
  <scstep>
   <time name="total">   36.38   36.38</time>
   <energy>
    <i name="e_fr_energy">   -307.09987957 </i>
    <i name="e_wo_entrp">   -307.09987957 </i>
    <i name="e_0_energy">   -307.09987957 </i>
   </energy>
  </scstep>
  <kpoints>
   <generation param="Gamma">
    <v type="int" name="divisions">       6        6        6 </v>
    <v name="usershift">      0.00000000       0.00000000       0.00000000 </v>
    <v name="genvec1">      0.16666667       0.00000000       0.00000000 </v>
    <v name="genvec2">      0.00000000       0.16666667       0.00000000 </v>
    <v name="genvec3">      0.00000000       0.00000000       0.16666667 </v>
    <v name="shift">      0.00000000       0.00000000       0.00000000 </v>
   </generation>
   <varray name="kpointlist" >
    <v>       0.00000000       0.00000000       0.00000000 </v>
    <v>       0.16666667       0.00000000       0.00000000 </v>
    <v>       0.33333333       0.00000000       0.00000000 </v>
    <v>       0.50000000       0.00000000       0.00000000 </v>
    <v>       0.16666667       0.16666667       0.00000000 </v>
    <v>       0.33333333       0.16666667       0.00000000 </v>
    <v>       0.50000000       0.16666667       0.00000000 </v>
    <v>       0.33333333       0.33333333       0.00000000 </v>
    <v>       0.50000000       0.33333333       0.00000000 </v>
    <v>       0.50000000       0.50000000       0.00000000 </v>
    <v>       0.00000000       0.00000000       0.16666667 </v>
    <v>       0.16666667       0.00000000       0.16666667 </v>
    <v>       0.33333333       0.00000000       0.16666667 </v>
    <v>       0.50000000       0.00000000       0.16666667 </v>
    <v>       0.16666667       0.16666667       0.16666667 </v>
    <v>       0.33333333       0.16666667       0.16666667 </v>
    <v>       0.50000000       0.16666667       0.16666667 </v>
    <v>       0.33333333       0.33333333       0.16666667 </v>
    <v>       0.50000000       0.33333333       0.16666667 </v>
    <v>       0.50000000       0.50000000       0.16666667 </v>
    <v>       0.00000000       0.00000000       0.33333333 </v>
    <v>       0.16666667       0.00000000       0.33333333 </v>
    <v>       0.33333333       0.00000000       0.33333333 </v>
    <v>       0.50000000       0.00000000       0.33333333 </v>
    <v>       0.16666667       0.16666667       0.33333333 </v>
    <v>       0.33333333       0.16666667       0.33333333 </v>
    <v>       0.50000000       0.16666667       0.33333333 </v>
    <v>       0.33333333       0.33333333       0.33333333 </v>
    <v>       0.50000000       0.33333333       0.33333333 </v>
    <v>       0.50000000       0.50000000       0.33333333 </v>
    <v>       0.00000000       0.00000000       0.50000000 </v>
    <v>       0.16666667       0.00000000       0.50000000 </v>
    <v>       0.33333333       0.00000000       0.50000000 </v>
    <v>       0.50000000       0.00000000       0.50000000 </v>
    <v>       0.16666667       0.16666667       0.50000000 </v>
    <v>       0.33333333       0.16666667       0.50000000 </v>
    <v>       0.50000000       0.16666667       0.50000000 </v>
    <v>       0.33333333       0.33333333       0.50000000 </v>
    <v>       0.50000000       0.33333333       0.50000000 </v>
    <v>       0.50000000       0.50000000       0.50000000 </v>
   </varray>
   <varray name="weights" >
    <v>       0.00462963 </v>
    <v>       0.01851852 </v>
    <v>       0.01851852 </v>
    <v>       0.00925926 </v>
    <v>       0.01851852 </v>
    <v>       0.03703704 </v>
    <v>       0.01851852 </v>
    <v>       0.01851852 </v>
    <v>       0.01851852 </v>
    <v>       0.00462963 </v>
    <v>       0.00925926 </v>
    <v>       0.03703704 </v>
    <v>       0.03703704 </v>
    <v>       0.01851852 </v>
    <v>       0.03703704 </v>
    <v>       0.07407407 </v>
    <v>       0.03703704 </v>
    <v>       0.03703704 </v>
    <v>       0.03703704 </v>
    <v>       0.00925926 </v>
    <v>       0.00925926 </v>
    <v>       0.03703704 </v>
    <v>       0.03703704 </v>
    <v>       0.01851852 </v>
    <v>       0.03703704 </v>
    <v>       0.07407407 </v>
    <v>       0.03703704 </v>
    <v>       0.03703704 </v>
    <v>       0.03703704 </v>
    <v>       0.00925926 </v>
    <v>       0.00462963 </v>
    <v>       0.01851852 </v>
    <v>       0.01851852 </v>
    <v>       0.00925926 </v>
    <v>       0.01851852 </v>
    <v>       0.03703704 </v>
    <v>       0.01851852 </v>
    <v>       0.01851852 </v>
    <v>       0.01851852 </v>
    <v>       0.00462963 </v>
   </varray>
  </kpoints>
  <dynmat>
   <varray name="hessian" >
    <v>      -3.40513615       0.00000000       0.00000000       0.01300920      -0.00000000      -0.00000000       0.00757943       0.00000000       0.00000000       0.00872939       0.00000000      -0.00000000       0.00734902       0.00000000      -0.00000000       0.00901802       0.00000000      -0.00000000      -0.04662085       0.00000000       0.00000000       0.00412657       0.00000000      -0.00000000      -0.01262778      -0.00784339       0.00178278       0.00571769      -0.00721057      -0.01709493       0.70621680      -0.13178179      -0.12912699      -0.00570956      -0.00784339      -0.00792128       0.02801766      -0.01728725      -0.01703722      -0.00270669      -0.00265480      -0.00256476      -0.01251190       0.00123465      -0.00723673       0.00662291      -0.01728725      -0.00847779      -0.11157539       0.05632552      -0.05733480      -0.00426696       0.00304117      -0.00299615      -0.11157539       0.05632552       0.05733480      -0.00426696       0.00304117       0.00299615      -0.11157539      -0.05632552      -0.05733480      -0.00426696      -0.00304117      -0.00299615      -0.11157539      -0.05632552       0.05733480      -0.00426696      -0.00304117       0.00299615       0.70621680       0.13178179       0.12912699      -0.00570956       0.00784339       0.00792128      -0.01262778       0.00784339      -0.00178278       0.00571769       0.00721057       0.01709493      -0.01251190      -0.00123465       0.00723673       0.00662291       0.01728725       0.00847779       0.02801766       0.01728725       0.01703722      -0.00270669       0.00265480       0.00256476       0.12148293      -0.05632552       0.12589902       0.12148293      -0.05632552      -0.12589902       0.00669609      -0.00304117      -0.00627486       0.00669609      -0.00304117       0.00627486       0.12148293       0.05632552      -0.12589902       0.12148293       0.05632552       0.12589902       0.00669609       0.00304117       0.00627486       0.00669609       0.00304117      -0.00627486      -0.01262778       0.00784339       0.00178278       0.00571769       0.00721057      -0.01709493       0.70621680       0.13178179      -0.12912699      -0.00570956       0.00784339      -0.00792128       0.02801766       0.01728725      -0.01703722      -0.00270669       0.00265480      -0.00256476      -0.01251190      -0.00123465      -0.00723673       0.00662291       0.01728725      -0.00847779       0.11832871      -0.12161913       0.05677915       0.11832871       0.12161913       0.05677915       0.11832871       0.12161913      -0.05677915       0.11832871      -0.12161913      -0.05677915       0.00680183       0.00646656       0.00294057       0.00680183      -0.00646656       0.00294057       0.00680183      -0.00646656      -0.00294057       0.00680183       0.00646656      -0.00294057       0.70621680      -0.13178179       0.12912699      -0.00570956      -0.00784339       0.00792128      -0.01262778      -0.00784339      -0.00178278       0.00571769      -0.00721057       0.01709493      -0.01251190       0.00123465       0.00723673       0.00662291      -0.01728725       0.00847779       0.02801766      -0.01728725       0.01703722      -0.00270669      -0.00265480       0.00256476 </v>
    <v>       0.00000000      -3.40513615      -0.00000000      -0.00000000       0.00757943      -0.00000000       0.00000000       0.01300920       0.00000000       0.00000000       0.00872939      -0.00000000       0.00000000       0.00734902       0.00000000       0.00000000      -0.04662085       0.00000000       0.00000000       0.00901802       0.00000000       0.00000000       0.00412657       0.00000000      -0.00784339      -0.00570956       0.00792128      -0.00721057       0.00571769       0.01709493      -0.13178179       0.70621680       0.12912699      -0.00784339      -0.01262778      -0.00178278      -0.01728725       0.00662291       0.00847779      -0.00265480      -0.00270669       0.00256476       0.00123465      -0.01251190       0.00723673      -0.01728725       0.02801766       0.01703722      -0.05632552       0.12148293      -0.12589902      -0.00304117       0.00669609       0.00627486      -0.05632552       0.12148293       0.12589902      -0.00304117       0.00669609      -0.00627486       0.05632552       0.12148293       0.12589902       0.00304117       0.00669609      -0.00627486       0.05632552       0.12148293      -0.12589902       0.00304117       0.00669609       0.00627486       0.13178179       0.70621680       0.12912699       0.00784339      -0.01262778      -0.00178278       0.00784339      -0.00570956       0.00792128       0.00721057       0.00571769       0.01709493      -0.00123465      -0.01251190       0.00723673       0.01728725       0.02801766       0.01703722       0.01728725       0.00662291       0.00847779       0.00265480      -0.00270669       0.00256476       0.05632552      -0.11157539       0.05733480       0.05632552      -0.11157539      -0.05733480       0.00304117      -0.00426696       0.00299615       0.00304117      -0.00426696      -0.00299615      -0.05632552      -0.11157539       0.05733480      -0.05632552      -0.11157539      -0.05733480      -0.00304117      -0.00426696       0.00299615      -0.00304117      -0.00426696      -0.00299615       0.00784339      -0.00570956      -0.00792128       0.00721057       0.00571769      -0.01709493       0.13178179       0.70621680      -0.12912699       0.00784339      -0.01262778       0.00178278       0.01728725       0.00662291      -0.00847779       0.00265480      -0.00270669      -0.00256476      -0.00123465      -0.01251190      -0.00723673       0.01728725       0.02801766      -0.01703722      -0.12161913       0.11832871      -0.05677915       0.12161913       0.11832871       0.05677915       0.12161913       0.11832871      -0.05677915      -0.12161913       0.11832871       0.05677915       0.00646656       0.00680183      -0.00294057      -0.00646656       0.00680183       0.00294057      -0.00646656       0.00680183      -0.00294057       0.00646656       0.00680183       0.00294057      -0.13178179       0.70621680      -0.12912699      -0.00784339      -0.01262778       0.00178278      -0.00784339      -0.00570956      -0.00792128      -0.00721057       0.00571769      -0.01709493       0.00123465      -0.01251190      -0.00723673      -0.01728725       0.02801766      -0.01703722      -0.01728725       0.00662291      -0.00847779      -0.00265480      -0.00270669      -0.00256476 </v>
    <v>       0.00000000      -0.00000000      -3.43511971      -0.00000000      -0.00000000       0.00807540       0.00000000       0.00000000       0.00807540      -0.00000000      -0.00000000      -0.04752730      -0.00000000       0.00000000       0.01272333      -0.00000000       0.00000000       0.00919074       0.00000000       0.00000000       0.00919074      -0.00000000       0.00000000       0.00416990       0.00178278       0.00792128      -0.01304636      -0.01709493       0.01709493       0.02882722      -0.12912699       0.12912699       0.71293330      -0.00792128      -0.00178278      -0.01304636      -0.01703722       0.00847779       0.00689368      -0.00256476       0.00256476      -0.00277017      -0.00723673       0.00723673      -0.00476644      -0.00847779       0.01703722       0.00689368       0.05733480      -0.12589902       0.12011915       0.00299615       0.00627486       0.00666915      -0.05733480       0.12589902       0.12011915      -0.00299615      -0.00627486       0.00666915       0.05733480       0.12589902       0.12011915       0.00299615      -0.00627486       0.00666915      -0.05733480      -0.12589902       0.12011915      -0.00299615       0.00627486       0.00666915       0.12912699       0.12912699       0.71293330       0.00792128      -0.00178278      -0.01304636      -0.00178278       0.00792128      -0.01304636       0.01709493       0.01709493       0.02882722       0.00723673       0.00723673      -0.00476644       0.00847779       0.01703722       0.00689368       0.01703722       0.00847779       0.00689368       0.00256476       0.00256476      -0.00277017       0.12589902      -0.05733480       0.12011915      -0.12589902       0.05733480       0.12011915      -0.00627486      -0.00299615       0.00666915       0.00627486       0.00299615       0.00666915      -0.12589902      -0.05733480       0.12011915       0.12589902       0.05733480       0.12011915       0.00627486      -0.00299615       0.00666915      -0.00627486       0.00299615       0.00666915       0.00178278      -0.00792128      -0.01304636      -0.01709493      -0.01709493       0.02882722      -0.12912699      -0.12912699       0.71293330      -0.00792128       0.00178278      -0.01304636      -0.01703722      -0.00847779       0.00689368      -0.00256476      -0.00256476      -0.00277017      -0.00723673      -0.00723673      -0.00476644      -0.00847779      -0.01703722       0.00689368      -0.05677915       0.05677915      -0.11300726      -0.05677915      -0.05677915      -0.11300726       0.05677915       0.05677915      -0.11300726       0.05677915      -0.05677915      -0.11300726      -0.00294057       0.00294057      -0.00468253      -0.00294057      -0.00294057      -0.00468253       0.00294057       0.00294057      -0.00468253       0.00294057      -0.00294057      -0.00468253       0.12912699      -0.12912699       0.71293330       0.00792128       0.00178278      -0.01304636      -0.00178278      -0.00792128      -0.01304636       0.01709493      -0.01709493       0.02882722       0.00723673      -0.00723673      -0.00476644       0.00847779      -0.01703722       0.00689368       0.01703722      -0.00847779       0.00689368       0.00256476      -0.00256476      -0.00277017 </v>
    <v>       0.01300920      -0.00000000      -0.00000000      -3.40513615       0.00000000       0.00000000       0.00872939       0.00000000      -0.00000000       0.00757943       0.00000000       0.00000000       0.00901802       0.00000000      -0.00000000       0.00734902       0.00000000      -0.00000000       0.00412657       0.00000000      -0.00000000      -0.04662085       0.00000000       0.00000000       0.00571769      -0.00721057      -0.01709493      -0.01262778      -0.00784339       0.00178278      -0.00570956      -0.00784339      -0.00792128       0.70621680      -0.13178179      -0.12912699      -0.00270669      -0.00265480      -0.00256476       0.02801766      -0.01728725      -0.01703722       0.00662291      -0.01728725      -0.00847779      -0.01251190       0.00123465      -0.00723673      -0.00426696       0.00304117      -0.00299615      -0.11157539       0.05632552      -0.05733480      -0.00426696       0.00304117       0.00299615      -0.11157539       0.05632552       0.05733480      -0.00426696      -0.00304117      -0.00299615      -0.11157539      -0.05632552      -0.05733480      -0.00426696      -0.00304117       0.00299615      -0.11157539      -0.05632552       0.05733480      -0.00570956       0.00784339       0.00792128       0.70621680       0.13178179       0.12912699       0.00571769       0.00721057       0.01709493      -0.01262778       0.00784339      -0.00178278       0.00662291       0.01728725       0.00847779      -0.01251190      -0.00123465       0.00723673      -0.00270669       0.00265480       0.00256476       0.02801766       0.01728725       0.01703722       0.12148293      -0.05632552      -0.12589902       0.12148293      -0.05632552       0.12589902       0.00669609      -0.00304117       0.00627486       0.00669609      -0.00304117      -0.00627486       0.12148293       0.05632552       0.12589902       0.12148293       0.05632552      -0.12589902       0.00669609       0.00304117      -0.00627486       0.00669609       0.00304117       0.00627486       0.00571769       0.00721057      -0.01709493      -0.01262778       0.00784339       0.00178278      -0.00570956       0.00784339      -0.00792128       0.70621680       0.13178179      -0.12912699      -0.00270669       0.00265480      -0.00256476       0.02801766       0.01728725      -0.01703722       0.00662291       0.01728725      -0.00847779      -0.01251190      -0.00123465      -0.00723673       0.11832871       0.12161913       0.05677915       0.11832871      -0.12161913       0.05677915       0.11832871      -0.12161913      -0.05677915       0.11832871       0.12161913      -0.05677915       0.00680183      -0.00646656       0.00294057       0.00680183       0.00646656       0.00294057       0.00680183       0.00646656      -0.00294057       0.00680183      -0.00646656      -0.00294057      -0.00570956      -0.00784339       0.00792128       0.70621680      -0.13178179       0.12912699       0.00571769      -0.00721057       0.01709493      -0.01262778      -0.00784339      -0.00178278       0.00662291      -0.01728725       0.00847779      -0.01251190       0.00123465       0.00723673      -0.00270669      -0.00265480       0.00256476       0.02801766      -0.01728725       0.01703722 </v>
[...]
      </set>
     </set>
    </set>
   </array>
  </eigenvalues>
  <separator name="orbital magnetization" >
   <v name="MAGDIPOLOUT">      0.00000000      0.00000000      0.00000000</v>
  </separator>
  <dos>
   <i name="efermi">      9.58501702 </i>
   <total>
    <array>
     <dimension dim="1">gridpoints</dimension>
     <dimension dim="2">spin</dimension>
     <field>energy</field>
     <field>total</field>
     <field>integrated</field>
     <set>
      <set comment="spin 1">
       <r>   -13.3846     0.0000     0.0000 </r>
       <r>   -13.2657     0.0000     0.0000 </r>
       <r>   -13.1467     0.0000     0.0000 </r>
       <r>   -13.0277     0.0000     0.0000 </r>
       <r>   -12.9087     0.0000     0.0000 </r>
       <r>   -12.7898     0.0000     0.0000 </r>
       <r>   -12.6708     0.0000     0.0000 </r>
       <r>   -12.5518     0.0000     0.0000 </r>
       <r>   -12.4328     0.0000     0.0000 </r>
       <r>   -12.3139     0.0000     0.0000 </r>
       <r>   -12.1949     0.0000     0.0000 </r>
       <r>   -12.0759     0.0000     0.0000 </r>
       <r>   -11.9569     0.0000     0.0000 </r>
       <r>   -11.8380     0.0032     0.0004 </r>
       <r>   -11.7190     0.2405     0.0290 </r>
       <r>   -11.6000     1.2374     0.1762 </r>
       <r>   -11.4810     1.4407     0.3476 </r>
       <r>   -11.3621     2.8563     0.6875 </r>
       <r>   -11.2431     1.5721     0.8745 </r>
       <r>   -11.1241     3.6069     1.3036 </r>
       <r>   -11.0051     2.8724     1.6454 </r>
       <r>   -10.8862     3.9461     2.1149 </r>
       <r>   -10.7672     2.2933     2.3877 </r>
       <r>   -10.6482     4.7884     2.9574 </r>
       <r>   -10.5292     4.3683     3.4771 </r>
       <r>   -10.4103     5.0734     4.0807 </r>
       <r>   -10.2913     2.3518     4.3605 </r>
       <r>   -10.1723     4.9889     4.9541 </r>
       <r>   -10.0533     6.1587     5.6868 </r>
       <r>    -9.9344     5.9124     6.3903 </r>
       <r>    -9.8154     4.0658     6.8740 </r>
       <r>    -9.6964     4.5162     7.4113 </r>
       <r>    -9.5774     6.8971     8.2319 </r>
       <r>    -9.4585     5.2240     8.8534 </r>
       <r>    -9.3395     5.3405     9.4888 </r>
       <r>    -9.2205     7.4393    10.3739 </r>
       <r>    -9.1015     6.9964    11.2063 </r>
       <r>    -8.9826     6.5437    11.9848 </r>
       <r>    -8.8636     4.8959    12.5673 </r>
       <r>    -8.7446     4.7126    13.1280 </r>
       <r>    -8.6256     9.1063    14.2114 </r>
       <r>    -8.5067     8.0633    15.1708 </r>
       <r>    -8.3877     8.6221    16.1966 </r>
       <r>    -8.2687     6.2479    16.9399 </r>
       <r>    -8.1497     6.4985    17.7131 </r>
       <r>    -8.0308     7.8640    18.6487 </r>
       <r>    -7.9118     6.9517    19.4758 </r>
       <r>    -7.7928     8.1039    20.4400 </r>
       <r>    -7.6738     9.9379    21.6223 </r>
       <r>    -7.5549    10.0808    22.8217 </r>
       <r>    -7.4359     5.1128    23.4300 </r>
       <r>    -7.3169     9.1460    24.5181 </r>
       <r>    -7.1979    12.6896    26.0279 </r>
       <r>    -7.0790     8.3573    27.0222 </r>
       <r>    -6.9600     5.4177    27.6668 </r>
       <r>    -6.8410     9.6944    28.8202 </r>
       <r>    -6.7220    10.2105    30.0350 </r>
       <r>    -6.6031    11.0894    31.3543 </r>
       <r>    -6.4841    12.8548    32.8837 </r>
       <r>    -6.3651    11.1390    34.2090 </r>
       <r>    -6.2461    12.7257    35.7230 </r>
       <r>    -6.1272    10.1293    36.9282 </r>
       <r>    -6.0082     9.2766    38.0319 </r>
       <r>    -5.8892    12.9354    39.5708 </r>
       <r>    -5.7702    15.7347    41.4429 </r>
       <r>    -5.6513    11.0592    42.7587 </r>
       <r>    -5.5323     8.9634    43.8251 </r>
       <r>    -5.4133    13.0801    45.3813 </r>
       <r>    -5.2943    11.4077    46.7385 </r>
       <r>    -5.1754    13.5652    48.3524 </r>
       <r>    -5.0564     6.1567    49.0849 </r>
       <r>    -4.9374    11.7199    50.4793 </r>
       <r>    -4.8184     9.8295    51.6488 </r>
       <r>    -4.6995     6.5327    52.4260 </r>
       <r>    -4.5805     7.5660    53.3262 </r>
       <r>    -4.4615    13.1089    54.8858 </r>
       <r>    -4.3425     6.2623    55.6309 </r>
       <r>    -4.2235     5.4879    56.2838 </r>
       <r>    -4.1046    12.6250    57.7858 </r>
       <r>    -3.9856     8.6417    58.8140 </r>
       <r>    -3.8666    10.5205    60.0657 </r>
       <r>    -3.7476     3.4699    60.4785 </r>
       <r>    -3.6287     5.3187    61.1113 </r>
       <r>    -3.5097     6.3536    61.8672 </r>
       <r>    -3.3907     5.8231    62.5600 </r>
       <r>    -3.2717    10.1512    63.7678 </r>
       <r>    -3.1528     8.7376    64.8073 </r>
       <r>    -3.0338    10.8245    66.0952 </r>
       <r>    -2.9148    10.2182    67.3109 </r>
       <r>    -2.7958    10.0593    68.5077 </r>
       <r>    -2.6769     7.3697    69.3845 </r>
       <r>    -2.5579     9.3901    70.5017 </r>
       <r>    -2.4389    12.0721    71.9380 </r>
       <r>    -2.3199     9.5838    73.0782 </r>
       <r>    -2.2010    11.7730    74.4789 </r>
       <r>    -2.0820    12.1465    75.9240 </r>
       <r>    -1.9630    28.5620    79.3222 </r>
       <r>    -1.8440    30.5603    82.9581 </r>
       <r>    -1.7251    19.1762    85.2396 </r>
       <r>    -1.6061    13.4356    86.8381 </r>
       <r>    -1.4871    13.2483    88.4144 </r>
       <r>    -1.3681    11.5257    89.7856 </r>
       <r>    -1.2492     6.2799    90.5328 </r>
       <r>    -1.1302    12.6009    92.0320 </r>
       <r>    -1.0112    13.7445    93.6672 </r>
       <r>    -0.8922     8.4905    94.6774 </r>
       <r>    -0.7733     9.2232    95.7747 </r>
       <r>    -0.6543    13.0816    97.3311 </r>
       <r>    -0.5353    15.5809    99.1849 </r>
       <r>    -0.4163    12.1000   100.6244 </r>
       <r>    -0.2974     5.8663   101.3224 </r>
       <r>    -0.1784     3.8190   101.7768 </r>
       <r>    -0.0594     2.5349   102.0784 </r>
       <r>     0.0596    12.9691   103.6213 </r>
       <r>     0.1785    13.4384   105.2202 </r>
       <r>     0.2975     6.9257   106.0442 </r>
       <r>     0.4165    11.3596   107.3957 </r>
       <r>     0.5355     7.4038   108.2766 </r>
       <r>     0.6544    17.1353   110.3152 </r>
       <r>     0.7734    25.8024   113.3851 </r>
       <r>     0.8924    18.7554   115.6165 </r>
       <r>     1.0114    12.5331   117.1076 </r>
       <r>     1.1303    12.3159   118.5729 </r>
       <r>     1.2493    14.4130   120.2877 </r>
       <r>     1.3683    15.4677   122.1280 </r>
       <r>     1.4873    21.7931   124.7208 </r>
       <r>     1.6062    24.9464   127.6888 </r>
       <r>     1.7252    13.1947   129.2587 </r>
       <r>     1.8442     9.1575   130.3482 </r>
       <r>     1.9632    17.1635   132.3902 </r>
       <r>     2.0821    23.1804   135.1481 </r>
       <r>     2.2011    22.6790   137.8464 </r>
       <r>     2.3201    17.3635   139.9122 </r>
       <r>     2.4391    14.1355   141.5940 </r>
       <r>     2.5580    16.1259   143.5125 </r>
       <r>     2.6770    22.1130   146.1434 </r>
       <r>     2.7960    20.0275   148.5262 </r>
       <r>     2.9150    22.7479   151.2327 </r>
       <r>     3.0339    26.5247   154.3884 </r>
       <r>     3.1529    29.9224   157.9485 </r>
       <r>     3.2719    22.8417   160.6661 </r>
       <r>     3.3909    19.2529   162.9567 </r>
       <r>     3.5098    17.9321   165.0902 </r>
       <r>     3.6288    29.6648   168.6196 </r>
       <r>     3.7478    29.9955   172.1883 </r>
       <r>     3.8668    38.2720   176.7417 </r>
       <r>     3.9857    19.8832   179.1073 </r>
       <r>     4.1047    15.6625   180.9708 </r>
       <r>     4.2237    25.9011   184.0523 </r>
       <r>     4.3427    24.9607   187.0221 </r>
       <r>     4.4616    20.5392   189.4657 </r>
       <r>     4.5806    23.6908   192.2843 </r>
       <r>     4.6996    30.9568   195.9674 </r>
       <r>     4.8186    24.6019   198.8945 </r>
       <r>     4.9375    18.6912   201.1182 </r>
       <r>     5.0565    23.6715   203.9346 </r>
       <r>     5.1755    21.0589   206.4401 </r>
       <r>     5.2945    23.9938   209.2947 </r>
       <r>     5.4134    24.8495   212.2512 </r>
       <r>     5.5324    15.1304   214.0513 </r>
       <r>     5.6514    23.5087   216.8483 </r>
       <r>     5.7704    23.7620   219.6754 </r>
       <r>     5.8893    24.1956   222.5541 </r>
       <r>     6.0083    24.1650   225.4291 </r>
       <r>     6.1273    20.0913   227.8195 </r>
       <r>     6.2463    14.5701   229.5529 </r>
       <r>     6.3652    16.0696   231.4648 </r>
       <r>     6.4842    24.0087   234.3213 </r>
       <r>     6.6032    27.1303   237.5491 </r>
       <r>     6.7222    16.0211   239.4552 </r>
       <r>     6.8412     7.8303   240.3868 </r>
       <r>     6.9601    12.0718   241.8231 </r>
       <r>     7.0791    13.2048   243.3941 </r>
       <r>     7.1981    10.1467   244.6013 </r>
       <r>     7.3171    13.5466   246.2130 </r>
       <r>     7.4360     9.9566   247.3976 </r>
       <r>     7.5550     7.6249   248.3048 </r>
       <r>     7.6740     7.6783   249.2183 </r>
       <r>     7.7930     6.9268   250.0424 </r>
       <r>     7.9119     7.7161   250.9604 </r>
       <r>     8.0309     7.0745   251.8021 </r>
       <r>     8.1499     5.3110   252.4340 </r>
       <r>     8.2689     4.1713   252.9303 </r>
       <r>     8.3878     6.7008   253.7275 </r>
       <r>     8.5068     4.8728   254.3073 </r>
       <r>     8.6258     2.7846   254.6386 </r>
       <r>     8.7448     2.5536   254.9424 </r>
       <r>     8.8637     3.4988   255.3587 </r>
       <r>     8.9827     3.1523   255.7337 </r>
       <r>     9.1017     1.0836   255.8626 </r>
       <r>     9.2207     0.9515   255.9758 </r>
       <r>     9.3396     0.1764   255.9968 </r>
       <r>     9.4586     0.0268   256.0000 </r>
       <r>     9.5776     0.0001   256.0000 </r>
       <r>     9.6966     0.0000   256.0000 </r>
       <r>     9.8155     0.0000   256.0000 </r>
       <r>     9.9345     0.0000   256.0000 </r>
       <r>    10.0535     0.0000   256.0000 </r>
       <r>    10.1725     0.0000   256.0000 </r>
       <r>    10.2914     0.0000   256.0000 </r>
       <r>    10.4104     0.0000   256.0000 </r>
       <r>    10.5294     0.0000   256.0000 </r>
       <r>    10.6484     0.0000   256.0000 </r>
       <r>    10.7673     0.0000   256.0000 </r>
       <r>    10.8863     0.0000   256.0000 </r>
       <r>    11.0053     0.0000   256.0000 </r>
       <r>    11.1243     0.0000   256.0000 </r>
       <r>    11.2432     0.0000   256.0000 </r>
       <r>    11.3622     0.0000   256.0000 </r>
       <r>    11.4812     0.0000   256.0000 </r>
       <r>    11.6002     0.0000   256.0000 </r>
       <r>    11.7191     0.0000   256.0000 </r>
       <r>    11.8381     0.0000   256.0000 </r>
       <r>    11.9571     0.0000   256.0000 </r>
       <r>    12.0761     0.0000   256.0000 </r>
       <r>    12.1950     0.0000   256.0000 </r>
       <r>    12.3140     0.0000   256.0000 </r>
       <r>    12.4330     0.0000   256.0000 </r>
       <r>    12.5520     0.0000   256.0000 </r>
       <r>    12.6709     0.0000   256.0000 </r>
       <r>    12.7899     0.0000   256.0000 </r>
       <r>    12.9089     0.0000   256.0000 </r>
       <r>    13.0279     0.0126   256.0015 </r>
       <r>    13.1468     0.2891   256.0359 </r>
       <r>    13.2658     0.3378   256.0761 </r>
       <r>    13.3848     1.5731   256.2632 </r>
       <r>    13.5038     2.2134   256.5266 </r>
       <r>    13.6227     4.1828   257.0242 </r>
       <r>    13.7417     5.6068   257.6913 </r>
       <r>    13.8607     5.2228   258.3127 </r>
       <r>    13.9797     6.1046   259.0390 </r>
       <r>    14.0986     4.1298   259.5303 </r>
       <r>    14.2176    10.3359   260.7601 </r>
       <r>    14.3366     7.9998   261.7118 </r>
       <r>    14.4556    18.5878   263.9233 </r>
       <r>    14.5745     9.6384   265.0701 </r>
       <r>    14.6935    11.8467   266.4795 </r>
       <r>    14.8125    11.3534   267.8303 </r>
       <r>    14.9315    13.8044   269.4727 </r>
       <r>    15.0504    14.5572   271.2046 </r>
       <r>    15.1694    14.8036   272.9659 </r>
       <r>    15.2884    19.2761   275.2593 </r>
       <r>    15.4074    18.8154   277.4978 </r>
       <r>    15.5263    18.3485   279.6808 </r>
       <r>    15.6453    15.7044   281.5493 </r>
       <r>    15.7643    18.0563   283.6975 </r>
       <r>    15.8833    21.7333   286.2832 </r>
       <r>    16.0022    22.2660   288.9323 </r>
       <r>    16.1212    21.0539   291.4372 </r>
       <r>    16.2402    17.8686   293.5632 </r>
       <r>    16.3592    21.3465   296.1029 </r>
       <r>    16.4781    22.2002   298.7441 </r>
       <r>    16.5971    16.1818   300.6694 </r>
       <r>    16.7161    27.0293   303.8852 </r>
       <r>    16.8351    34.7316   308.0174 </r>
       <r>    16.9540    44.2979   313.2878 </r>
       <r>    17.0730    29.3117   316.7751 </r>
       <r>    17.1920    27.9743   320.1034 </r>
       <r>    17.3110    28.0176   323.4368 </r>
       <r>    17.4299    31.5775   327.1937 </r>
       <r>    17.5489    37.4413   331.6483 </r>
       <r>    17.6679    37.9361   336.1618 </r>
       <r>    17.7869    37.4242   340.6143 </r>
       <r>    17.9058    35.4080   344.8270 </r>
       <r>    18.0248    33.3503   348.7948 </r>
       <r>    18.1438    30.1007   352.3761 </r>
       <r>    18.2628    34.0336   356.4252 </r>
       <r>    18.3818    24.3207   359.3188 </r>
       <r>    18.5007    18.0556   361.4670 </r>
       <r>    18.6197    22.0041   364.0849 </r>
       <r>    18.7387    26.0847   367.1883 </r>
       <r>    18.8577    31.1347   370.8926 </r>
       <r>    18.9766    28.9820   374.3407 </r>
       <r>    19.0956    23.5586   377.1436 </r>
       <r>    19.2146    16.8478   379.1481 </r>
       <r>    19.3336    12.3550   380.6180 </r>
       <r>    19.4525     5.5866   381.2827 </r>
       <r>    19.5715     3.4170   381.6892 </r>
       <r>    19.6905     5.8345   382.3834 </r>
       <r>    19.8095     4.7814   382.9523 </r>
       <r>    19.9284     2.5258   383.2528 </r>
       <r>    20.0474     1.0240   383.3746 </r>
       <r>    20.1664     2.2537   383.6427 </r>
       <r>    20.2854     0.5107   383.7035 </r>
       <r>    20.4043     0.7861   383.7970 </r>
       <r>    20.5233     1.0625   383.9234 </r>
       <r>    20.6423     0.1905   383.9461 </r>
       <r>    20.7613     0.4408   383.9985 </r>
       <r>    20.8802     0.0122   384.0000 </r>
       <r>    20.9992     0.0000   384.0000 </r>
       <r>    21.1182     0.0000   384.0000 </r>
       <r>    21.2372     0.0000   384.0000 </r>
       <r>    21.3561     0.0000   384.0000 </r>
       <r>    21.4751     0.0000   384.0000 </r>
       <r>    21.5941     0.0000   384.0000 </r>
       <r>    21.7131     0.0000   384.0000 </r>
       <r>    21.8320     0.0000   384.0000 </r>
       <r>    21.9510     0.0000   384.0000 </r>
       <r>    22.0700     0.0000   384.0000 </r>
       <r>    22.1890     0.0000   384.0000 </r>
       <r>    22.3079     0.0000   384.0000 </r>
      </set>
     </set>
    </array>
   </total>
  </dos>
 </calculation>
 <structure name="finalpos" >
  <crystal>
   <varray name="basis" >
    <v>       7.25144289       0.00000000       0.00000000 </v>
    <v>       0.00000000       7.25144289       0.00000000 </v>
    <v>       0.00000000       0.00000000       7.17999872 </v>
   </varray>
   <i name="volume">    377.54891688 </i>
   <varray name="rec_basis" >
    <v>       0.13790359       0.00000000       0.00000000 </v>
    <v>       0.00000000       0.13790359       0.00000000 </v>
    <v>       0.00000000       0.00000000       0.13927579 </v>
   </varray>
  </crystal>
  <varray name="positions" >
   <v>       0.12500000       0.37500000       0.12500000 </v>
   <v>       0.62500000       0.37500000       0.12500000 </v>
   <v>       0.12500000       0.87500000       0.12500000 </v>
   <v>       0.62500000       0.87500000       0.12500000 </v>
   <v>       0.12500000       0.37500000       0.62500000 </v>
   <v>       0.62500000       0.37500000       0.62500000 </v>
   <v>       0.12500000       0.87500000       0.62500000 </v>
   <v>       0.62500000       0.87500000       0.62500000 </v>
   <v>       0.00000000       0.00000000       0.25000000 </v>
   <v>       0.50000000       0.00000000       0.25000000 </v>
   <v>       0.00000000       0.50000000       0.25000000 </v>
   <v>       0.50000000       0.50000000       0.25000000 </v>
   <v>       0.00000000       0.00000000       0.75000000 </v>
   <v>       0.50000000       0.00000000       0.75000000 </v>
   <v>       0.00000000       0.50000000       0.75000000 </v>
   <v>       0.50000000       0.50000000       0.75000000 </v>
   <v>       0.12500000       0.12500000       0.37500000 </v>
   <v>       0.62500000       0.12500000       0.37500000 </v>
   <v>       0.12500000       0.62500000       0.37500000 </v>
   <v>       0.62500000       0.62500000       0.37500000 </v>
   <v>       0.12500000       0.12500000       0.87500000 </v>
   <v>       0.62500000       0.12500000       0.87500000 </v>
   <v>       0.12500000       0.62500000       0.87500000 </v>
   <v>       0.62500000       0.62500000       0.87500000 </v>
   <v>       0.00000000       0.25000000       0.00000000 </v>
   <v>       0.50000000       0.25000000       0.00000000 </v>
   <v>       0.00000000       0.75000000       0.00000000 </v>
   <v>       0.50000000       0.75000000       0.00000000 </v>
   <v>       0.00000000       0.25000000       0.50000000 </v>
   <v>       0.50000000       0.25000000       0.50000000 </v>
   <v>       0.00000000       0.75000000       0.50000000 </v>
   <v>       0.50000000       0.75000000       0.50000000 </v>
   <v>       0.37500000       0.37500000       0.37500000 </v>
   <v>       0.87500000       0.37500000       0.37500000 </v>
   <v>       0.37500000       0.87500000       0.37500000 </v>
   <v>       0.87500000       0.87500000       0.37500000 </v>
   <v>       0.37500000       0.37500000       0.87500000 </v>
   <v>       0.87500000       0.37500000       0.87500000 </v>
   <v>       0.37500000       0.87500000       0.87500000 </v>
   <v>       0.87500000       0.87500000       0.87500000 </v>
   <v>       0.25000000       0.00000000       0.00000000 </v>
   <v>       0.75000000       0.00000000       0.00000000 </v>
   <v>       0.25000000       0.50000000       0.00000000 </v>
   <v>       0.75000000       0.50000000       0.00000000 </v>
   <v>       0.25000000       0.00000000       0.50000000 </v>
   <v>       0.75000000       0.00000000       0.50000000 </v>
   <v>       0.25000000       0.50000000       0.50000000 </v>
   <v>       0.75000000       0.50000000       0.50000000 </v>
   <v>       0.37500000       0.12500000       0.12500000 </v>
   <v>       0.87500000       0.12500000       0.12500000 </v>
   <v>       0.37500000       0.62500000       0.12500000 </v>
   <v>       0.87500000       0.62500000       0.12500000 </v>
   <v>       0.37500000       0.12500000       0.62500000 </v>
   <v>       0.87500000       0.12500000       0.62500000 </v>
   <v>       0.37500000       0.62500000       0.62500000 </v>
   <v>       0.87500000       0.62500000       0.62500000 </v>
   <v>       0.25000000       0.25000000       0.25000000 </v>
   <v>       0.75000000       0.25000000       0.25000000 </v>
   <v>       0.25000000       0.75000000       0.25000000 </v>
   <v>       0.75000000       0.75000000       0.25000000 </v>
   <v>       0.25000000       0.25000000       0.75000000 </v>
   <v>       0.75000000       0.25000000       0.75000000 </v>
   <v>       0.25000000       0.75000000       0.75000000 </v>
   <v>       0.75000000       0.75000000       0.75000000 </v>
  </varray>
 </structure>
</modeling>
