  64  64   0   0
  0.5775874E+01  0.7179999E-09  0.7179998E-09  0.7179999E-09  0.5000000E-15
  1.000000000000000E-004
  CAR 
 unknown system                          
     23.13624030    -13.41145417  301      9.86485875      1.00000000
    -13.411  0.0000E+00  0.0000E+00
    -13.290  0.0000E+00  0.0000E+00
    -13.168  0.0000E+00  0.0000E+00
    -13.046  0.0000E+00  0.0000E+00
    -12.924  0.0000E+00  0.0000E+00
    -12.802  0.0000E+00  0.0000E+00
    -12.681  0.0000E+00  0.0000E+00
    -12.559  0.0000E+00  0.0000E+00
    -12.437  0.0000E+00  0.0000E+00
    -12.315  0.0000E+00  0.0000E+00
    -12.193  0.0000E+00  0.0000E+00
    -12.071  0.1418E-14  0.1727E-15
    -11.950  0.9961E-07  0.1214E-07
    -11.828  0.2777E-02  0.3383E-03
    -11.706  0.2355E+00  0.2903E-01
    -11.584  0.1227E+01  0.1785E+00
    -11.462  0.1444E+01  0.3544E+00
    -11.340  0.2786E+01  0.6938E+00
    -11.219  0.1615E+01  0.8905E+00
    -11.097  0.3579E+01  0.1327E+01
    -10.975  0.2822E+01  0.1670E+01
    -10.853  0.3798E+01  0.2133E+01
    -10.731  0.2438E+01  0.2430E+01
    -10.609  0.4802E+01  0.3015E+01
    -10.488  0.4393E+01  0.3550E+01
    -10.366  0.4468E+01  0.4095E+01
    -10.244  0.2716E+01  0.4425E+01
    -10.122  0.5184E+01  0.5057E+01
    -10.000  0.6112E+01  0.5802E+01
     -9.879  0.5145E+01  0.6428E+01
     -9.757  0.4828E+01  0.7017E+01
     -9.635  0.4418E+01  0.7555E+01
     -9.513  0.5959E+01  0.8281E+01
     -9.391  0.5761E+01  0.8982E+01
     -9.269  0.6298E+01  0.9750E+01
     -9.148  0.6398E+01  0.1053E+02
     -9.026  0.6755E+01  0.1135E+02
     -8.904  0.5858E+01  0.1207E+02
     -8.782  0.5733E+01  0.1276E+02
     -8.660  0.4774E+01  0.1335E+02
     -8.538  0.9693E+01  0.1453E+02
     -8.417  0.7333E+01  0.1542E+02
     -8.295  0.7859E+01  0.1638E+02
     -8.173  0.6578E+01  0.1718E+02
     -8.051  0.7172E+01  0.1805E+02
     -7.929  0.6579E+01  0.1885E+02
     -7.807  0.8191E+01  0.1985E+02
     -7.686  0.7442E+01  0.2076E+02
     -7.564  0.9197E+01  0.2188E+02
     -7.442  0.9778E+01  0.2307E+02
     -7.320  0.9458E+01  0.2422E+02
     -7.198  0.6891E+01  0.2506E+02
     -7.077  0.8335E+01  0.2608E+02
     -6.955  0.1059E+02  0.2737E+02
     -6.833  0.7083E+01  0.2823E+02
     -6.711  0.9630E+01  0.2940E+02
     -6.589  0.1199E+02  0.3086E+02
     -6.467  0.1077E+02  0.3218E+02
     -6.346  0.1134E+02  0.3356E+02
     -6.224  0.1011E+02  0.3479E+02
     -6.102  0.1062E+02  0.3608E+02
     -5.980  0.1293E+02  0.3766E+02
     -5.858  0.9643E+01  0.3883E+02
     -5.736  0.8623E+01  0.3988E+02
     -5.615  0.1233E+02  0.4139E+02
     -5.493  0.1439E+02  0.4314E+02
     -5.371  0.1170E+02  0.4457E+02
     -5.249  0.1089E+02  0.4589E+02
     -5.127  0.1136E+02  0.4728E+02
     -5.005  0.1123E+02  0.4864E+02
     -4.884  0.9067E+01  0.4975E+02
     -4.762  0.7494E+01  0.5066E+02
     -4.640  0.7901E+01  0.5162E+02
     -4.518  0.1011E+02  0.5286E+02
     -4.396  0.9171E+01  0.5397E+02
     -4.275  0.7855E+01  0.5493E+02
     -4.153  0.1174E+02  0.5636E+02
     -4.031  0.8749E+01  0.5743E+02
     -3.909  0.4459E+01  0.5797E+02
     -3.787  0.9068E+01  0.5907E+02
     -3.665  0.7983E+01  0.6005E+02
     -3.544  0.6483E+01  0.6084E+02
     -3.422  0.6345E+01  0.6161E+02
     -3.300  0.7945E+01  0.6258E+02
     -3.178  0.1084E+02  0.6390E+02
     -3.056  0.5552E+01  0.6457E+02
     -2.934  0.7258E+01  0.6546E+02
     -2.813  0.1264E+02  0.6700E+02
     -2.691  0.1157E+02  0.6841E+02
     -2.569  0.6536E+01  0.6920E+02
     -2.447  0.8026E+01  0.7018E+02
     -2.325  0.1191E+02  0.7163E+02
     -2.203  0.9867E+01  0.7283E+02
     -2.082  0.1285E+02  0.7440E+02
     -1.960  0.1579E+02  0.7632E+02
     -1.838  0.2395E+02  0.7924E+02
     -1.716  0.1973E+02  0.8165E+02
     -1.594  0.1598E+02  0.8359E+02
     -1.473  0.1687E+02  0.8565E+02
     -1.351  0.1761E+02  0.8779E+02
     -1.229  0.1317E+02  0.8940E+02
     -1.107  0.1005E+02  0.9062E+02
     -0.985  0.1052E+02  0.9190E+02
     -0.863  0.1091E+02  0.9323E+02
     -0.742  0.1027E+02  0.9448E+02
     -0.620  0.1011E+02  0.9572E+02
     -0.498  0.1049E+02  0.9699E+02
     -0.376  0.1387E+02  0.9868E+02
     -0.254  0.1000E+02  0.9990E+02
     -0.132  0.1022E+02  0.1011E+03
     -0.011  0.6515E+01  0.1019E+03
      0.111  0.7224E+01  0.1028E+03
      0.233  0.6469E+01  0.1036E+03
      0.355  0.9796E+01  0.1048E+03
      0.477  0.1295E+02  0.1064E+03
      0.598  0.8774E+01  0.1074E+03
      0.720  0.1275E+02  0.1090E+03
      0.842  0.2089E+02  0.1115E+03
      0.964  0.1945E+02  0.1139E+03
      1.086  0.1541E+02  0.1158E+03
      1.208  0.1620E+02  0.1178E+03
      1.329  0.1360E+02  0.1194E+03
      1.451  0.1403E+02  0.1211E+03
      1.573  0.1684E+02  0.1232E+03
      1.695  0.1920E+02  0.1255E+03
      1.817  0.1808E+02  0.1277E+03
      1.939  0.1591E+02  0.1297E+03
      2.060  0.1514E+02  0.1315E+03
      2.182  0.1980E+02  0.1339E+03
      2.304  0.1925E+02  0.1363E+03
      2.426  0.1571E+02  0.1382E+03
      2.548  0.1655E+02  0.1402E+03
      2.670  0.2049E+02  0.1427E+03
      2.791  0.2059E+02  0.1452E+03
      2.913  0.1659E+02  0.1472E+03
      3.035  0.2470E+02  0.1502E+03
      3.157  0.2510E+02  0.1533E+03
      3.279  0.2279E+02  0.1561E+03
      3.400  0.2055E+02  0.1586E+03
      3.522  0.2237E+02  0.1613E+03
      3.644  0.2477E+02  0.1643E+03
      3.766  0.2892E+02  0.1678E+03
      3.888  0.2236E+02  0.1706E+03
      4.010  0.2470E+02  0.1736E+03
      4.131  0.2594E+02  0.1767E+03
      4.253  0.2891E+02  0.1802E+03
      4.375  0.2086E+02  0.1828E+03
      4.497  0.2211E+02  0.1855E+03
      4.619  0.2458E+02  0.1885E+03
      4.741  0.2270E+02  0.1912E+03
      4.862  0.2207E+02  0.1939E+03
      4.984  0.2400E+02  0.1969E+03
      5.106  0.2623E+02  0.2000E+03
      5.228  0.2077E+02  0.2026E+03
      5.350  0.2420E+02  0.2055E+03
      5.472  0.2378E+02  0.2084E+03
      5.593  0.1895E+02  0.2107E+03
      5.715  0.1872E+02  0.2130E+03
      5.837  0.1969E+02  0.2154E+03
      5.959  0.2614E+02  0.2186E+03
      6.081  0.2420E+02  0.2215E+03
      6.202  0.2169E+02  0.2242E+03
      6.324  0.2074E+02  0.2267E+03
      6.446  0.1675E+02  0.2288E+03
      6.568  0.1751E+02  0.2309E+03
      6.690  0.1953E+02  0.2333E+03
      6.812  0.2328E+02  0.2361E+03
      6.933  0.1653E+02  0.2381E+03
      7.055  0.1245E+02  0.2396E+03
      7.177  0.1458E+02  0.2414E+03
      7.299  0.1292E+02  0.2430E+03
      7.421  0.8180E+01  0.2440E+03
      7.543  0.1087E+02  0.2453E+03
      7.664  0.1297E+02  0.2469E+03
      7.786  0.1020E+02  0.2481E+03
      7.908  0.6738E+01  0.2489E+03
      8.030  0.6095E+01  0.2497E+03
      8.152  0.7174E+01  0.2506E+03
      8.274  0.8545E+01  0.2516E+03
      8.395  0.4756E+01  0.2522E+03
      8.517  0.5337E+01  0.2528E+03
      8.639  0.5944E+01  0.2536E+03
      8.761  0.4492E+01  0.2541E+03
      8.883  0.3978E+01  0.2546E+03
      9.004  0.2318E+01  0.2549E+03
      9.126  0.3261E+01  0.2553E+03
      9.248  0.3505E+01  0.2557E+03
      9.370  0.1233E+01  0.2558E+03
      9.492  0.9960E+00  0.2560E+03
      9.614  0.2340E+00  0.2560E+03
      9.735  0.5291E-02  0.2560E+03
      9.857  0.2075E-06  0.2560E+03
      9.979  0.3021E-14  0.2560E+03
     10.101  0.0000E+00  0.2560E+03
     10.223  0.0000E+00  0.2560E+03
     10.345  0.0000E+00  0.2560E+03
     10.466  0.0000E+00  0.2560E+03
     10.588  0.0000E+00  0.2560E+03
     10.710  0.0000E+00  0.2560E+03
     10.832  0.0000E+00  0.2560E+03
     10.954  0.0000E+00  0.2560E+03
     11.076  0.0000E+00  0.2560E+03
     11.197  0.0000E+00  0.2560E+03
     11.319  0.0000E+00  0.2560E+03
     11.441  0.0000E+00  0.2560E+03
     11.563  0.0000E+00  0.2560E+03
     11.685  0.0000E+00  0.2560E+03
     11.806  0.0000E+00  0.2560E+03
     11.928  0.0000E+00  0.2560E+03
     12.050  0.0000E+00  0.2560E+03
     12.172  0.0000E+00  0.2560E+03
     12.294  0.0000E+00  0.2560E+03
     12.416  0.0000E+00  0.2560E+03
     12.537  0.0000E+00  0.2560E+03
     12.659  0.0000E+00  0.2560E+03
     12.781  0.0000E+00  0.2560E+03
     12.903  0.0000E+00  0.2560E+03
     13.025  0.0000E+00  0.2560E+03
     13.147  0.0000E+00  0.2560E+03
     13.268  0.4938E-08  0.2560E+03
     13.390  0.1679E-02  0.2560E+03
     13.512  0.4686E+00  0.2561E+03
     13.634  0.1308E+01  0.2562E+03
     13.756  0.3007E+01  0.2566E+03
     13.877  0.6972E+01  0.2574E+03
     13.999  0.4808E+01  0.2580E+03
     14.121  0.4827E+01  0.2586E+03
     14.243  0.7419E+01  0.2595E+03
     14.365  0.6610E+01  0.2603E+03
     14.487  0.7444E+01  0.2612E+03
     14.608  0.1150E+02  0.2626E+03
     14.730  0.1249E+02  0.2641E+03
     14.852  0.8823E+01  0.2652E+03
     14.974  0.1189E+02  0.2667E+03
     15.096  0.1597E+02  0.2686E+03
     15.218  0.1116E+02  0.2700E+03
     15.339  0.1134E+02  0.2714E+03
     15.461  0.9701E+01  0.2725E+03
     15.583  0.1434E+02  0.2743E+03
     15.705  0.1841E+02  0.2765E+03
     15.827  0.2382E+02  0.2794E+03
     15.949  0.1862E+02  0.2817E+03
     16.070  0.1906E+02  0.2840E+03
     16.192  0.1736E+02  0.2861E+03
     16.314  0.1719E+02  0.2882E+03
     16.436  0.1594E+02  0.2902E+03
     16.558  0.1988E+02  0.2926E+03
     16.679  0.2671E+02  0.2958E+03
     16.801  0.2391E+02  0.2988E+03
     16.923  0.2945E+02  0.3023E+03
     17.045  0.3233E+02  0.3063E+03
     17.167  0.3367E+02  0.3104E+03
     17.289  0.2555E+02  0.3135E+03
     17.410  0.1999E+02  0.3159E+03
     17.532  0.2984E+02  0.3196E+03
     17.654  0.2647E+02  0.3228E+03
     17.776  0.1998E+02  0.3252E+03
     17.898  0.1854E+02  0.3275E+03
     18.020  0.2677E+02  0.3307E+03
     18.141  0.3236E+02  0.3347E+03
     18.263  0.3978E+02  0.3395E+03
     18.385  0.4023E+02  0.3444E+03
     18.507  0.4058E+02  0.3494E+03
     18.629  0.3104E+02  0.3532E+03
     18.751  0.2435E+02  0.3561E+03
     18.872  0.2730E+02  0.3595E+03
     18.994  0.2844E+02  0.3629E+03
     19.116  0.2354E+02  0.3658E+03
     19.238  0.2300E+02  0.3686E+03
     19.360  0.1887E+02  0.3709E+03
     19.481  0.2258E+02  0.3736E+03
     19.603  0.2900E+02  0.3772E+03
     19.725  0.2542E+02  0.3803E+03
     19.847  0.1152E+02  0.3817E+03
     19.969  0.5639E+01  0.3824E+03
     20.091  0.2982E+01  0.3827E+03
     20.212  0.2035E+01  0.3830E+03
     20.334  0.1440E+01  0.3831E+03
     20.456  0.3581E+01  0.3836E+03
     20.578  0.9722E+00  0.3837E+03
     20.700  0.8659E+00  0.3838E+03
     20.822  0.9870E+00  0.3839E+03
     20.943  0.3112E+00  0.3840E+03
     21.065  0.3319E-02  0.3840E+03
     21.187  0.2437E-07  0.3840E+03
     21.309  0.3016E-04  0.3840E+03
     21.431  0.5874E-01  0.3840E+03
     21.553  0.2381E+00  0.3840E+03
     21.674  0.7127E-02  0.3840E+03
     21.796  0.1980E-06  0.3840E+03
     21.918  0.2194E-14  0.3840E+03
     22.040  0.0000E+00  0.3840E+03
     22.162  0.0000E+00  0.3840E+03
     22.283  0.0000E+00  0.3840E+03
     22.405  0.0000E+00  0.3840E+03
     22.527  0.0000E+00  0.3840E+03
     22.649  0.0000E+00  0.3840E+03
     22.771  0.0000E+00  0.3840E+03
     22.893  0.0000E+00  0.3840E+03
     23.014  0.0000E+00  0.3840E+03
     23.136  0.0000E+00  0.3840E+03
