   64   64    1    1
  0.5775874E+01  0.7179999E-09  0.7179998E-09  0.7179999E-09  0.5000000E-15
  1.000000000000000E-004
  CAR 
 unknown system                          
    256     32    192
 
  0.0000000E+00  0.0000000E+00  0.0000000E+00  0.4629630E-02
    1      -11.750195   1.000000
    2       -9.494844   1.000000
    3       -9.494844   1.000000
    4       -9.494844   1.000000
    5       -9.494844   1.000000
    6       -9.494844   1.000000
    7       -9.494844   1.000000
    8       -7.500767   1.000000
    9       -7.500767   1.000000
   10       -7.500767   1.000000
   11       -7.500767   1.000000
   12       -7.500766   1.000000
   13       -7.500766   1.000000
   14       -7.190283   1.000000
   15       -7.190283   1.000000
   16       -7.190282   1.000000
   17       -7.190282   1.000000
   18       -7.190281   1.000000
   19       -7.190281   1.000000
   20       -6.684921   1.000000
   21       -5.870675   1.000000
   22       -5.870673   1.000000
   23       -5.870672   1.000000
   24       -3.701211   1.000000
   25       -3.701211   1.000000
   26       -3.701210   1.000000
   27       -3.630489   1.000000
   28       -3.311396   1.000000
   29       -3.311395   1.000000
   30       -3.311393   1.000000
   31       -2.997182   1.000000
   32       -2.997181   1.000000
   33       -2.997180   1.000000
   34       -2.765988   1.000000
   35       -2.765988   1.000000
   36       -2.765987   1.000000
   37       -2.765987   1.000000
   38       -2.765986   1.000000
   39       -2.765986   1.000000
   40       -2.006891   1.000000
   41       -2.006891   1.000000
   42       -2.006890   1.000000
   43       -2.006890   1.000000
   44       -2.006890   1.000000
   45       -2.006890   1.000000
   46        0.792831   1.000000
   47        0.792831   1.000000
   48        0.792832   1.000000
   49        0.792832   1.000000
   50        0.792833   1.000000
   51        0.792833   1.000000
   52        0.910034   1.000000
   53        0.910034   1.000000
   54        0.910035   1.000000
   55        0.910035   1.000000
   56        0.910035   1.000000
   57        0.910035   1.000000
   58        1.330320   1.000000
   59        1.330320   1.000000
   60        1.330320   1.000000
   61        1.330320   1.000000
   62        1.330320   1.000000
   63        1.330320   1.000000
   64        1.344788   1.000000
   65        1.344788   1.000000
   66        1.344789   1.000000
   67        1.344789   1.000000
   68        1.344789   1.000000
   69        1.344789   1.000000
   70        1.996483   1.000000
   71        1.996483   1.000000
   72        1.996484   1.000000
   73        1.996484   1.000000
   74        1.996486   1.000000
   75        1.996486   1.000000
   76        2.097270   1.000000
   77        2.097270   1.000000
   78        2.097271   1.000000
   79        2.097271   1.000000
   80        2.097272   1.000000
   81        2.097272   1.000000
   82        3.048692   1.000000
   83        3.048693   1.000000
   84        3.048694   1.000000
   85        3.597353   1.000000
   86        3.597355   1.000000
   87        3.597356   1.000000
   88        4.960887   1.000000
   89        4.960887   1.000000
   90        4.960887   1.000000
   91        4.960887   1.000000
   92        4.960889   1.000000
   93        4.960889   1.000000
   94        5.232046   1.000000
   95        5.232046   1.000000
   96        5.232046   1.000000
   97        5.232046   1.000000
   98        5.232047   1.000000
   99        5.232047   1.000000
  100        5.692192   1.000000
  101        5.692192   1.000000
  102        5.692193   1.000000
  103        5.692193   1.000000
  104        5.692194   1.000000
  105        5.692194   1.000000
  106        6.454871   1.000000
  107        6.454871   1.000000
  108        6.454873   1.000000
  109        6.454873   1.000000
  110        6.454873   1.000000
  111        6.454873   1.000000
  112        6.570335   1.000000
  113        6.570337   1.000000
  114        6.570338   1.000000
  115        6.655047   1.000000
  116        6.655047   1.000000
  117        6.655049   1.000000
  118        6.655049   1.000000
  119        6.655049   1.000000
  120        6.655049   1.000000
  121        6.681293   1.000000
  122        6.681294   1.000000
  123        6.681295   1.000000
  124        7.139233   1.000000
  125        7.139235   1.000000
  126        9.443129   1.000000
  127        9.536430   1.000000
  128        9.536431   1.000000
  129       13.669042   0.000000
  130       13.669043   0.000000
  131       13.669045   0.000000
  132       13.884566   0.000000
  133       13.884566   0.000000
  134       13.884568   0.000000
  135       13.884568   0.000000
  136       13.884569   0.000000
  137       13.884569   0.000000
  138       14.050234   0.000000
  139       14.795257   0.000000
  140       14.795260   0.000000
  141       14.795263   0.000000
  142       15.498047   0.000000
  143       15.498049   0.000000
  144       16.924565   0.000000
  145       16.924566   0.000000
  146       16.924569   0.000000
  147       16.940787   0.000000
  148       16.940787   0.000000
  149       16.940789   0.000000
  150       16.940789   0.000000
  151       16.940790   0.000000
  152       16.940790   0.000000
  153       17.667131   0.000000
  154       17.667131   0.000000
  155       17.667134   0.000000
  156       17.667134   0.000000
  157       17.667135   0.000000
  158       17.667135   0.000000
  159       18.130857   0.000000
  160       18.130861   0.000000
  161       18.206699   0.000000
  162       18.206702   0.000000
  163       18.206705   0.000000
  164       18.277452   0.000000
  165       18.277453   0.000000
  166       18.277454   0.000000
  167       19.003775   0.000000
  168       19.003775   0.000000
  169       19.003776   0.000000
  170       19.003776   0.000000
  171       19.003776   0.000000
  172       19.003776   0.000000
  173       19.100138   0.000000
  174       19.553819   0.000000
  175       19.553819   0.000000
  176       19.553820   0.000000
  177       19.553821   0.000000
  178       19.553821   0.000000
  179       19.553827   0.000000
  180       19.636551   0.000000
  181       19.636553   0.000000
  182       19.636554   0.000000
  183       19.636562   0.000000
  184       19.636567   0.000000
  185       19.636655   0.000000
  186       19.673267   0.000000
  187       19.673268   0.000000
  188       19.673268   0.000000
  189       19.673272   0.000000
  190       19.673279   0.000000
  191       19.673298   0.000000
  192       20.087018   0.000000
 
  0.1666667E+00  0.1190628E-18  0.2220220E-19  0.2777778E-01
    1      -11.686849   1.000000
    2      -10.178161   1.000000
    3       -9.458617   1.000000
    4       -9.458617   1.000000
    5       -9.408674   1.000000
    6       -9.408674   1.000000
    7       -8.694665   1.000000
    8       -8.116979   1.000000
    9       -8.116978   1.000000
   10       -7.861405   1.000000
   11       -7.861405   1.000000
   12       -7.508052   1.000000
   13       -7.387034   1.000000
   14       -7.134988   1.000000
   15       -7.134988   1.000000
   16       -6.787636   1.000000
   17       -6.787635   1.000000
   18       -6.781503   1.000000
   19       -6.419601   1.000000
   20       -6.419600   1.000000
   21       -6.065721   1.000000
   22       -6.036211   1.000000
   23       -6.036211   1.000000
   24       -4.445540   1.000000
   25       -3.452446   1.000000
   26       -3.452446   1.000000
   27       -3.426410   1.000000
   28       -3.426410   1.000000
   29       -3.419717   1.000000
   30       -3.395898   1.000000
   31       -3.284759   1.000000
   32       -3.284757   1.000000
   33       -2.944220   1.000000
   34       -2.944218   1.000000
   35       -2.887958   1.000000
   36       -2.887958   1.000000
   37       -2.814517   1.000000
   38       -2.814517   1.000000
   39       -2.097573   1.000000
   40       -2.097572   1.000000
   41       -1.997977   1.000000
   42       -1.997976   1.000000
   43       -1.803972   1.000000
   44       -1.498207   1.000000
   45       -1.498206   1.000000
   46       -0.059907   1.000000
   47        0.115221   1.000000
   48        0.115221   1.000000
   49        0.151327   1.000000
   50        0.151328   1.000000
   51        0.328468   1.000000
   52        0.328469   1.000000
   53        0.405818   1.000000
   54        0.868705   1.000000
   55        0.868705   1.000000
   56        0.870391   1.000000
   57        0.870392   1.000000
   58        1.411903   1.000000
   59        1.411903   1.000000
   60        1.448825   1.000000
   61        1.448827   1.000000
   62        1.482817   1.000000
   63        1.482818   1.000000
   64        1.536720   1.000000
   65        1.536722   1.000000
   66        1.540140   1.000000
   67        1.540141   1.000000
   68        1.561856   1.000000
   69        1.561857   1.000000
   70        2.074868   1.000000
   71        2.074868   1.000000
   72        2.139953   1.000000
   73        2.139953   1.000000
   74        2.493878   1.000000
   75        2.641267   1.000000
   76        2.641269   1.000000
   77        2.755908   1.000000
   78        2.755910   1.000000
   79        2.796328   1.000000
   80        2.796328   1.000000
   81        2.920853   1.000000
   82        2.920855   1.000000
   83        3.044355   1.000000
   84        3.110297   1.000000
   85        3.447623   1.000000
   86        3.447625   1.000000
   87        3.656367   1.000000
   88        3.692401   1.000000
   89        4.393573   1.000000
   90        4.393574   1.000000
   91        4.527350   1.000000
   92        4.527351   1.000000
   93        4.572908   1.000000
   94        5.071597   1.000000
   95        5.167959   1.000000
   96        5.167960   1.000000
   97        5.357046   1.000000
   98        5.357048   1.000000
   99        5.861370   1.000000
  100        5.861372   1.000000
  101        5.876048   1.000000
  102        5.876049   1.000000
  103        5.904115   1.000000
  104        5.904116   1.000000
  105        5.936876   1.000000
  106        6.088581   1.000000
  107        6.088582   1.000000
  108        6.188896   1.000000
  109        6.371865   1.000000
  110        6.371866   1.000000
  111        6.398179   1.000000
  112        6.429130   1.000000
  113        6.468249   1.000000
  114        6.468249   1.000000
  115        6.565205   1.000000
  116        6.598404   1.000000
  117        6.651582   1.000000
  118        6.651583   1.000000
  119        6.734066   1.000000
  120        6.766069   1.000000
  121        6.766071   1.000000
  122        6.908340   1.000000
  123        6.908342   1.000000
  124        6.912343   1.000000
  125        7.114570   1.000000
  126        9.173562   1.000000
  127        9.304962   1.000000
  128        9.358180   1.000000
  129       13.611941   0.000000
  130       13.690805   0.000000
  131       13.922385   0.000000
  132       13.922388   0.000000
  133       14.049525   0.000000
  134       14.049528   0.000000
  135       14.117998   0.000000
  136       14.258494   0.000000
  137       14.258496   0.000000
  138       14.277868   0.000000
  139       15.001246   0.000000
  140       15.062408   0.000000
  141       15.062411   0.000000
  142       15.571982   0.000000
  143       15.777912   0.000000
  144       16.766892   0.000000
  145       16.766895   0.000000
  146       16.968423   0.000000
  147       16.968424   0.000000
  148       16.969091   0.000000
  149       16.969095   0.000000
  150       17.105369   0.000000
  151       17.293253   0.000000
  152       17.293255   0.000000
  153       17.527435   0.000000
  154       17.527439   0.000000
  155       17.653316   0.000000
  156       17.734866   0.000000
  157       18.142607   0.000000
  158       18.142610   0.000000
  159       18.144176   0.000000
  160       18.211712   0.000000
  161       18.226562   0.000000
  162       18.262206   0.000000
  163       18.262208   0.000000
  164       18.297735   0.000000
  165       18.297735   0.000000
  166       18.355803   0.000000
  167       18.381253   0.000000
  168       18.381255   0.000000
  169       18.386673   0.000000
  170       18.469488   0.000000
  171       18.469490   0.000000
  172       18.733115   0.000000
  173       18.733117   0.000000
  174       18.848894   0.000000
  175       18.848898   0.000000
  176       18.897571   0.000000
  177       18.897571   0.000000
  178       19.235110   0.000000
  179       19.320665   0.000000
  180       19.424751   0.000000
  181       19.424754   0.000000
  182       19.553490   0.000000
  183       19.564753   0.000000
  184       19.611638   0.000000
  185       19.611833   0.000000
  186       19.617221   0.000000
  187       19.617360   0.000000
  188       19.660083   0.000000
  189       19.660196   0.000000
  190       19.790693   0.000000
  191       19.796339   0.000000
  192       19.876442   0.000000
 
  0.3333333E+00  0.1090302E-17 -0.1087599E-17  0.2777778E-01
    1      -11.497019   1.000000
    2      -10.741199   1.000000
    3       -9.300583   1.000000
    4       -9.300583   1.000000
    5       -9.200443   1.000000
    6       -9.200442   1.000000
    7       -8.626304   1.000000
    8       -8.626303   1.000000
    9       -8.423732   1.000000
   10       -8.423731   1.000000
   11       -7.782214   1.000000
   12       -7.414617   1.000000
   13       -7.167489   1.000000
   14       -7.001690   1.000000
   15       -6.971749   1.000000
   16       -6.971749   1.000000
   17       -6.458967   1.000000
   18       -6.375047   1.000000
   19       -6.375047   1.000000
   20       -5.993247   1.000000
   21       -5.993247   1.000000
   22       -5.647215   1.000000
   23       -5.564636   1.000000
   24       -5.564635   1.000000
   25       -4.275654   1.000000
   26       -4.275654   1.000000
   27       -3.726066   1.000000
   28       -3.726066   1.000000
   29       -3.205214   1.000000
   30       -3.205212   1.000000
   31       -2.936047   1.000000
   32       -2.936045   1.000000
   33       -2.858076   1.000000
   34       -2.794830   1.000000
   35       -2.794828   1.000000
   36       -2.761915   1.000000
   37       -2.761915   1.000000
   38       -2.674777   1.000000
   39       -2.317297   1.000000
   40       -2.317295   1.000000
   41       -1.495465   1.000000
   42       -1.495464   1.000000
   43       -1.110034   1.000000
   44       -1.058518   1.000000
   45       -1.058517   1.000000
   46       -0.908833   1.000000
   47       -0.908833   1.000000
   48       -0.693753   1.000000
   49       -0.438224   1.000000
   50       -0.438222   1.000000
   51       -0.428237   1.000000
   52       -0.183800   1.000000
   53       -0.183799   1.000000
   54        0.692146   1.000000
   55        0.692147   1.000000
   56        0.716467   1.000000
   57        0.716468   1.000000
   58        1.025896   1.000000
   59        1.025897   1.000000
   60        1.099767   1.000000
   61        1.099769   1.000000
   62        1.713586   1.000000
   63        1.713588   1.000000
   64        1.968367   1.000000
   65        1.968369   1.000000
   66        2.209735   1.000000
   67        2.209736   1.000000
   68        2.273528   1.000000
   69        2.273529   1.000000
   70        2.348814   1.000000
   71        2.582450   1.000000
   72        2.582452   1.000000
   73        3.017457   1.000000
   74        3.017457   1.000000
   75        3.047768   1.000000
   76        3.047770   1.000000
   77        3.149987   1.000000
   78        3.149988   1.000000
   79        3.295872   1.000000
   80        3.347252   1.000000
   81        3.347254   1.000000
   82        3.479811   1.000000
   83        3.479813   1.000000
   84        3.644302   1.000000
   85        3.694173   1.000000
   86        3.694174   1.000000
   87        3.790788   1.000000
   88        3.790789   1.000000
   89        3.838802   1.000000
   90        3.873101   1.000000
   91        3.873101   1.000000
   92        4.030942   1.000000
   93        4.228157   1.000000
   94        4.550340   1.000000
   95        4.725341   1.000000
   96        4.725343   1.000000
   97        4.887612   1.000000
   98        4.887614   1.000000
   99        5.027363   1.000000
  100        5.027364   1.000000
  101        5.249294   1.000000
  102        5.249295   1.000000
  103        5.747075   1.000000
  104        5.781788   1.000000
  105        5.781788   1.000000
  106        6.275717   1.000000
  107        6.298142   1.000000
  108        6.298143   1.000000
  109        6.341992   1.000000
  110        6.341993   1.000000
  111        6.502123   1.000000
  112        6.502123   1.000000
  113        6.558235   1.000000
  114        6.563855   1.000000
  115        6.607917   1.000000
  116        6.607918   1.000000
  117        6.768172   1.000000
  118        6.821666   1.000000
  119        6.821668   1.000000
  120        6.836301   1.000000
  121        6.888371   1.000000
  122        6.888373   1.000000
  123        7.045159   1.000000
  124        7.169373   1.000000
  125        7.251037   1.000000
  126        8.481196   1.000000
  127        8.720913   1.000000
  128        8.885649   1.000000
  129       13.529511   0.000000
  130       13.560435   0.000000
  131       14.350990   0.000000
  132       14.569558   0.000000
  133       14.637476   0.000000
  134       14.637479   0.000000
  135       14.695616   0.000000
  136       14.695619   0.000000
  137       15.082489   0.000000
  138       15.082491   0.000000
  139       15.531372   0.000000
  140       15.810968   0.000000
  141       15.810971   0.000000
  142       16.008533   0.000000
  143       16.518354   0.000000
  144       16.768352   0.000000
  145       16.768354   0.000000
  146       16.909057   0.000000
  147       16.909061   0.000000
  148       17.028968   0.000000
  149       17.028971   0.000000
  150       17.037307   0.000000
  151       17.037308   0.000000
  152       17.057830   0.000000
  153       17.057833   0.000000
  154       17.256964   0.000000
  155       17.474954   0.000000
  156       17.474956   0.000000
  157       17.491479   0.000000
  158       17.671765   0.000000
  159       17.738566   0.000000
  160       17.738570   0.000000
  161       17.845180   0.000000
  162       18.018692   0.000000
  163       18.018696   0.000000
  164       18.096706   0.000000
  165       18.113651   0.000000
  166       18.258548   0.000000
  167       18.258549   0.000000
  168       18.271664   0.000000
  169       18.271667   0.000000
  170       18.327390   0.000000
  171       18.404206   0.000000
  172       18.404209   0.000000
  173       18.483902   0.000000
  174       18.578511   0.000000
  175       18.642557   0.000000
  176       18.642557   0.000000
  177       18.660249   0.000000
  178       18.847800   0.000000
  179       18.847803   0.000000
  180       18.855990   0.000000
  181       18.855992   0.000000
  182       18.954829   0.000000
  183       18.954833   0.000000
  184       19.245903   0.000000
  185       19.265821   0.000000
  186       19.618677   0.000000
  187       19.618842   0.000000
  188       19.662490   0.000000
  189       19.725872   0.000000
  190       19.727522   0.000000
  191       19.734344   0.000000
  192       19.853836   0.000000
 
  0.5000000E+00  0.2076726E-17 -0.1980350E-18  0.1388889E-01
    1      -11.181409   1.000000
    2      -11.181409   1.000000
    3       -9.022247   1.000000
    4       -9.022247   1.000000
    5       -9.022247   1.000000
    6       -9.022247   1.000000
    7       -8.871344   1.000000
    8       -8.871344   1.000000
    9       -8.871343   1.000000
   10       -8.871343   1.000000
   11       -7.235116   1.000000
   12       -7.235116   1.000000
   13       -6.850114   1.000000
   14       -6.850114   1.000000
   15       -6.763576   1.000000
   16       -6.763576   1.000000
   17       -6.710092   1.000000
   18       -6.710092   1.000000
   19       -6.710092   1.000000
   20       -6.710092   1.000000
   21       -5.142569   1.000000
   22       -5.142569   1.000000
   23       -5.142569   1.000000
   24       -5.142569   1.000000
   25       -4.651166   1.000000
   26       -4.651166   1.000000
   27       -4.651166   1.000000
   28       -4.651166   1.000000
   29       -3.080632   1.000000
   30       -3.080632   1.000000
   31       -3.080631   1.000000
   32       -3.080631   1.000000
   33       -2.572324   1.000000
   34       -2.572324   1.000000
   35       -2.572322   1.000000
   36       -2.572322   1.000000
   37       -2.061969   1.000000
   38       -2.061969   1.000000
   39       -1.893470   1.000000
   40       -1.893470   1.000000
   41       -1.893470   1.000000
   42       -1.893470   1.000000
   43       -1.744388   1.000000
   44       -1.744388   1.000000
   45       -0.981031   1.000000
   46       -0.981031   1.000000
   47       -0.981030   1.000000
   48       -0.981030   1.000000
   49       -0.637265   1.000000
   50       -0.637265   1.000000
   51       -0.637263   1.000000
   52       -0.637263   1.000000
   53        0.760413   1.000000
   54        0.760413   1.000000
   55        0.760414   1.000000
   56        0.760414   1.000000
   57        0.813202   1.000000
   58        0.813202   1.000000
   59        0.813203   1.000000
   60        0.813203   1.000000
   61        0.965632   1.000000
   62        0.965632   1.000000
   63        2.140230   1.000000
   64        2.140230   1.000000
   65        2.140231   1.000000
   66        2.140231   1.000000
   67        2.512482   1.000000
   68        2.512482   1.000000
   69        2.512484   1.000000
   70        2.512484   1.000000
   71        2.955255   1.000000
   72        2.955255   1.000000
   73        2.955255   1.000000
   74        2.955255   1.000000
   75        3.025597   1.000000
   76        3.025597   1.000000
   77        3.025598   1.000000
   78        3.025598   1.000000
   79        3.603419   1.000000
   80        3.603419   1.000000
   81        4.041023   1.000000
   82        4.041023   1.000000
   83        4.041024   1.000000
   84        4.041024   1.000000
   85        4.067792   1.000000
   86        4.067792   1.000000
   87        4.067793   1.000000
   88        4.067793   1.000000
   89        4.137411   1.000000
   90        4.137411   1.000000
   91        4.217699   1.000000
   92        4.217699   1.000000
   93        4.217701   1.000000
   94        4.217701   1.000000
   95        4.230359   1.000000
   96        4.230359   1.000000
   97        4.230360   1.000000
   98        4.230360   1.000000
   99        4.771305   1.000000
  100        4.771305   1.000000
  101        4.909633   1.000000
  102        4.909633   1.000000
  103        4.909634   1.000000
  104        4.909634   1.000000
  105        5.338391   1.000000
  106        5.338391   1.000000
  107        6.554325   1.000000
  108        6.554325   1.000000
  109        6.554357   1.000000
  110        6.554357   1.000000
  111        6.554357   1.000000
  112        6.554357   1.000000
  113        6.662229   1.000000
  114        6.662229   1.000000
  115        6.662231   1.000000
  116        6.662231   1.000000
  117        6.666974   1.000000
  118        6.666974   1.000000
  119        6.666976   1.000000
  120        6.666976   1.000000
  121        6.945677   1.000000
  122        6.945677   1.000000
  123        7.632580   1.000000
  124        7.632580   1.000000
  125        7.965762   1.000000
  126        7.965762   1.000000
  127        8.165681   1.000000
  128        8.165681   1.000000
  129       13.506135   0.000000
  130       13.506135   0.000000
  131       14.541702   0.000000
  132       14.541702   0.000000
  133       15.671166   0.000000
  134       15.671166   0.000000
  135       15.671168   0.000000
  136       15.671168   0.000000
  137       15.711657   0.000000
  138       15.711657   0.000000
  139       15.711660   0.000000
  140       15.711660   0.000000
  141       16.202185   0.000000
  142       16.202185   0.000000
  143       16.202188   0.000000
  144       16.202188   0.000000
  145       16.293497   0.000000
  146       16.293497   0.000000
  147       16.925905   0.000000
  148       16.925905   0.000000
  149       16.925908   0.000000
  150       16.925908   0.000000
  151       16.946000   0.000000
  152       16.946000   0.000000
  153       17.088724   0.000000
  154       17.088724   0.000000
  155       17.088726   0.000000
  156       17.088726   0.000000
  157       17.345265   0.000000
  158       17.345265   0.000000
  159       17.345269   0.000000
  160       17.345269   0.000000
  161       17.522359   0.000000
  162       17.522359   0.000000
  163       17.679614   0.000000
  164       17.679614   0.000000
  165       17.980621   0.000000
  166       17.980621   0.000000
  167       18.248620   0.000000
  168       18.248620   0.000000
  169       18.248625   0.000000
  170       18.248625   0.000000
  171       18.382515   0.000000
  172       18.382515   0.000000
  173       18.382515   0.000000
  174       18.382515   0.000000
  175       18.852017   0.000000
  176       18.852017   0.000000
  177       18.869677   0.000000
  178       18.869677   0.000000
  179       18.909060   0.000000
  180       18.909060   0.000000
  181       19.137931   0.000000
  182       19.137932   0.000000
  183       19.137934   0.000000
  184       19.137937   0.000000
  185       19.553527   0.000000
  186       19.553766   0.000000
  187       19.555070   0.000000
  188       19.558633   0.000000
  189       19.621435   0.000000
  190       19.621951   0.000000
  191       19.625636   0.000000
  192       19.628467   0.000000
 
  0.1666667E+00  0.1666667E+00 -0.2039859E-17  0.2777778E-01
    1      -11.627602   1.000000
    2      -10.095567   1.000000
    3      -10.095566   1.000000
    4       -9.427066   1.000000
    5       -9.326873   1.000000
    6       -8.753240   1.000000
    7       -8.664038   1.000000
    8       -8.664037   1.000000
    9       -8.008428   1.000000
   10       -8.008428   1.000000
   11       -7.807334   1.000000
   12       -7.807333   1.000000
   13       -7.121082   1.000000
   14       -7.073257   1.000000
   15       -7.073257   1.000000
   16       -6.813105   1.000000
   17       -6.813105   1.000000
   18       -6.494247   1.000000
   19       -6.373147   1.000000
   20       -6.373145   1.000000
   21       -6.115163   1.000000
   22       -5.763987   1.000000
   23       -5.763985   1.000000
   24       -4.347248   1.000000
   25       -4.347246   1.000000
   26       -3.694748   1.000000
   27       -3.694747   1.000000
   28       -3.590223   1.000000
   29       -3.590222   1.000000
   30       -3.377305   1.000000
   31       -3.377303   1.000000
   32       -3.316668   1.000000
   33       -2.977969   1.000000
   34       -2.876317   1.000000
   35       -2.853608   1.000000
   36       -2.732462   1.000000
   37       -2.732460   1.000000
   38       -2.208382   1.000000
   39       -2.208380   1.000000
   40       -1.843875   1.000000
   41       -1.843873   1.000000
   42       -1.806651   1.000000
   43       -1.806650   1.000000
   44       -1.324720   1.000000
   45       -1.324720   1.000000
   46       -0.592511   1.000000
   47       -0.592511   1.000000
   48       -0.466529   1.000000
   49       -0.466527   1.000000
   50       -0.224874   1.000000
   51        0.788678   1.000000
   52        0.788678   1.000000
   53        0.823197   1.000000
   54        0.823198   1.000000
   55        0.866830   1.000000
   56        0.866831   1.000000
   57        0.932586   1.000000
   58        1.047218   1.000000
   59        1.047219   1.000000
   60        1.113086   1.000000
   61        1.113087   1.000000
   62        1.190141   1.000000
   63        1.190142   1.000000
   64        2.028731   1.000000
   65        2.028732   1.000000
   66        2.175127   1.000000
   67        2.175128   1.000000
   68        2.177717   1.000000
   69        2.177717   1.000000
   70        2.242484   1.000000
   71        2.278494   1.000000
   72        2.278494   1.000000
   73        2.341245   1.000000
   74        2.341245   1.000000
   75        2.467915   1.000000
   76        2.467917   1.000000
   77        2.470007   1.000000
   78        3.020208   1.000000
   79        3.020209   1.000000
   80        3.075303   1.000000
   81        3.075304   1.000000
   82        3.304831   1.000000
   83        3.366220   1.000000
   84        3.366221   1.000000
   85        3.506337   1.000000
   86        3.506340   1.000000
   87        3.541850   1.000000
   88        3.541852   1.000000
   89        3.697296   1.000000
   90        3.811151   1.000000
   91        3.821585   1.000000
   92        4.417476   1.000000
   93        4.417478   1.000000
   94        5.087882   1.000000
   95        5.087883   1.000000
   96        5.367033   1.000000
   97        5.367034   1.000000
   98        5.697678   1.000000
   99        5.716923   1.000000
  100        5.820969   1.000000
  101        5.846068   1.000000
  102        5.906722   1.000000
  103        5.906724   1.000000
  104        5.938174   1.000000
  105        5.938175   1.000000
  106        5.952915   1.000000
  107        6.088083   1.000000
  108        6.088084   1.000000
  109        6.115450   1.000000
  110        6.115452   1.000000
  111        6.178637   1.000000
  112        6.178640   1.000000
  113        6.375243   1.000000
  114        6.375243   1.000000
  115        6.490042   1.000000
  116        6.645183   1.000000
  117        6.769926   1.000000
  118        6.769927   1.000000
  119        6.827864   1.000000
  120        6.827864   1.000000
  121        6.830279   1.000000
  122        6.830281   1.000000
  123        7.034235   1.000000
  124        7.066334   1.000000
  125        7.459298   1.000000