  64   64
1 1
    42.801915076260002    -2.693715137480000    -2.616367660560000
    -2.693715137480000    42.963598150009993    -2.539013217260000
    -2.616367660560000    -2.539013217260000    43.111576912979999
1 2
    -0.162256238670000    -0.003288371580000    -0.003193965120000
    -0.003288371580000    -0.092639401680000     0.000837166700000
    -0.003193965120000     0.000837166700000    -0.092688286450000
1 3
    -0.092899319720000    -0.005369997990000     0.000741078700000
    -0.005369997990000    -0.161996320630000    -0.003217626790000
     0.000741078700000    -0.003217626790000    -0.092688286450000
1 4
    -0.113597275470000     0.017456547180000     0.005033689990000
     0.017456547180000    -0.114645115110000     0.004884993810000
     0.005033689990000     0.004884993810000     0.564087967080000
1 5
    -0.092899319720000     0.000584335150000    -0.005389335700000
     0.000584335150000    -0.092934391840000    -0.005229949730000
    -0.005389335700000    -0.005229949730000    -0.161750215240000
1 6
    -0.113597275470000     0.005540073750000     0.017302446050000
     0.005540073750000     0.563796460110000    -0.014883911090000
     0.017302446050000    -0.014883911090000    -0.114353728250000
1 7
     0.563519246230000    -0.014782538250000    -0.014358069510000
    -0.014782538250000    -0.113319821370000     0.017741207880000
    -0.014358069510000     0.017741207880000    -0.114353728250000
1 8
    -0.052604937030000    -0.003908259290000    -0.003796076550000
    -0.003908259290000    -0.052370362200000    -0.003683773700000
    -0.003796076550000    -0.003683773700000    -0.052155605520000
1 9
     0.137665517820000     0.070929639290000    -0.011092638940000
     0.070929639290000     0.044151715340000    -0.083064232480000
    -0.011092638940000    -0.083064232480000     0.180193706290000
1 10
    -0.092039091900000     0.133238743660000     0.219331669900000
     0.133238743660000    -0.113729396470000    -0.230857425500000
     0.219331669900000    -0.230857425500000    -0.355761616150000
1 11
    -9.187936721980000     2.463402410830000     2.392668070400000
     2.463402410830000    -9.558176277419999    -2.580181400200000
     2.392668070400000    -2.580181400200000    -9.407813090729999
1 12
     0.100771569340000     0.107440436870000     0.104355291410000
     0.107440436870000     0.148296934360000     0.039622367240000
     0.104355291410000     0.039622367240000     0.145987819610000
1 13
    -0.295315658100000     0.214986810760000     0.208813637200000
     0.214986810760000    -0.043157324650000    -0.074095498670000
     0.208813637200000    -0.074095498670000    -0.038839250040000
1 14
     0.032549810000000     0.033224948310000     0.032270914580000
     0.033224948310000     0.035268139520000    -0.027384119120000
     0.032270914580000    -0.027384119120000     0.036864041090000
1 15
     0.137665517820000    -0.009022062650000     0.071222587580000
    -0.009022062650000     0.175241570990000    -0.086883970700000
     0.071222587580000    -0.086883970700000     0.049103730530000
1 16
    -0.092039091900000     0.223119338750000     0.126794001390000
     0.223119338750000    -0.368998578920000    -0.223419253420000
     0.126794001390000    -0.223419253420000    -0.100492433700000
1 17
     1.413546364150000    -0.754716229620000     0.737771831480000
     0.715476652950000    -1.550537464320000     1.653143353580000
    -0.775884776350000     1.705081079560000    -1.648391922090000
1 18
     0.058852698900000    -0.039925164550000     0.029932132660000
     0.028756495980000    -0.083788736000000    -0.080246331770000
    -0.040779987420000    -0.080790309960000    -0.079096398630000
1 19
     1.319485700840000    -0.761477221520000    -0.739612156900000
     0.560410318990000    -1.429498173250000    -1.425912649530000
     0.544318581740000    -1.425912649530000    -1.346400309970000
1 20
     0.048492010300000    -0.047919325820000    -0.046543345660000
     0.032322441770000    -0.081600692130000     0.069479190930000
     0.031394351800000     0.069479190930000    -0.085649840450000
1 21
     1.319485700840000     0.560410318990000     0.544318581740000
    -0.761477221520000    -1.429498173250000    -1.425912649530000
    -0.739612156900000    -1.425912649530000    -1.346400309970000
1 22
     0.048492010300000     0.032322441770000     0.031394351800000
    -0.047919325820000    -0.081600692130000     0.069479190930000
    -0.046543345660000     0.069479190930000    -0.085649840450000
1 23
     1.413546364150000     0.715476652950000    -0.775884776350000
    -0.754716229620000    -1.550537464320000     1.705081079560000
     0.737771831480000     1.653143353580000    -1.648391922090000
1 24
     0.058852698900000     0.028756495980000    -0.040779987420000
    -0.039925164550000    -0.083788736000000    -0.080790309960000
     0.029932132660000    -0.080246331770000    -0.079096398630000
1 25
    -7.452733735959999    -0.332481175290000    -0.322934352050000
    -0.332481175290000    -7.432774096380000    -0.313388369580000
    -0.322934352050000    -0.313388369580000    -7.414512692089999
1 26
     0.063075646390000    -0.107840643390000    -0.104744087480000
    -0.107840643390000     0.154942980990000     0.033626235820000
    -0.104744087480000     0.033626235820000     0.152983386340000
1 27
     0.148392782140000    -0.110401268480000     0.030468784140000
    -0.110401268480000     0.069625845240000    -0.105705688140000
     0.030468784140000    -0.105705688140000     0.152983386340000
1 28
    -0.085609363380000    -0.079027095160000    -0.191506146530000
    -0.079027095160000    -0.080865618930000    -0.185844641570000
    -0.191506146530000    -0.185844641570000    -0.334385879670000
1 29
     0.148392782140000     0.027240227340000    -0.111241918370000
     0.027240227340000     0.146757604600000    -0.107953186460000
    -0.111241918370000    -0.107953186460000     0.075851626980000
1 30
    -0.085609363380000    -0.193726620100000    -0.073415676070000
    -0.193726620100000    -0.344992073110000    -0.178148353100000
    -0.073415676070000    -0.178148353100000    -0.070259305380000
1 31
    -0.356377059790000    -0.185599977500000    -0.180270696800000
    -0.185599977500000    -0.074224376700000    -0.068038231260000
    -0.180270696800000    -0.068038231260000    -0.070259305380000
1 32
     0.026149148100000    -0.031666641170000    -0.030757288360000
    -0.031666641170000     0.028050008960000    -0.029848055660000
    -0.030757288360000    -0.029848055660000     0.029789441980000
1 33
    -1.433053429250000     0.643023057980000    -1.447459182430000
    -0.678864242310000     1.323040596510000    -0.696502155590000
    -1.408941346750000     0.586850613730000    -1.346400309970000
1 34
    -1.549047379660000     0.804394566390000     1.674532782600000
    -0.665798556400000     1.412054958280000     0.687845347450000
     1.681037699980000    -0.826687943270000    -1.648391922090000
1 35
    -0.081951413330000     0.036237547330000     0.068051683580000
    -0.044004220260000     0.048842611390000    -0.048606715350000
     0.070389744840000     0.029295909990000    -0.085649840450000
1 36
    -0.083995325200000     0.033043822430000    -0.079312236300000
    -0.035637838100000     0.059059167990000     0.032326045070000
    -0.081977357090000    -0.038337910900000    -0.079096398630000
1 37
    -1.549047379660000    -0.665798556400000     1.681037699980000
     0.804394566390000     1.412054958280000    -0.826687943270000
     1.674532782600000     0.687845347450000    -1.648391922090000
1 38
    -1.433053429250000    -0.678864242310000    -1.408941346750000
     0.643023057980000     1.323040596510000     0.586850613730000
    -1.447459182430000    -0.696502155590000    -1.346400309970000
1 39
    -0.083995325200000    -0.035637838100000    -0.081977357090000
     0.033043822430000     0.059059167990000    -0.038337910900000
    -0.079312236300000     0.032326045070000    -0.079096398630000
1 40
    -0.081951413330000    -0.044004220260000     0.070389744840000
     0.036237547330000     0.048842611390000     0.029295909990000
     0.068051683580000    -0.048606715350000    -0.085649840450000
1 41
     0.174666724530000    -0.084967375430000    -0.007660976130000
    -0.084967375430000     0.053476455190000     0.076266967360000
    -0.007660976130000     0.076266967360000     0.133867759730000
1 42
    -0.030490884380000    -0.061738701980000     0.208925339500000
    -0.061738701980000    -0.026784890330000     0.202748802860000
     0.208925339500000     0.202748802860000    -0.320036458080000
1 43
    -9.410107792280000    -2.434231295130000     2.542048757289999
    -2.434231295130000    -9.263985329359999     2.466896170510000
     2.542048757289999     2.466896170510000    -9.479831767389999
1 44
     0.048489728210000    -0.081180427240000     0.076002845470000
    -0.081180427240000     0.179653451510000    -0.009945588440000
     0.076002845470000    -0.009945588440000     0.133867759730000
1 45
    -0.355368255900000    -0.212692949980000     0.237318382620000
    -0.212692949980000    -0.092726961870000     0.133062302070000
     0.237318382620000     0.133062302070000    -0.113434886750000
1 46
     0.037258242110000    -0.025428968540000     0.033838710410000
    -0.025428968540000     0.038784720100000     0.032838314220000
     0.033838710410000     0.032838314220000     0.028638908290000
1 47
     0.154697596260000     0.045799144100000     0.104532333550000
     0.045799144100000     0.151948518580000     0.101442023360000
     0.104532333550000     0.101442023360000     0.088410208470000
1 48
    -0.105719140460000    -0.220185772110000     0.140122007540000
    -0.220185772110000    -0.342375957200000     0.233219628870000
     0.140122007540000     0.233219628870000    -0.113434886750000
1 49
    -1.549047379660000     1.660932006640000    -0.714478538850000
     1.697251108660000    -1.649837445940000     0.777064736990000
     0.755280506400000    -0.737468553730000     1.413501322900000
1 50
    -1.433053429250000    -1.428116187590000    -0.637539075600000
    -1.428115947370000    -1.347327679280000    -0.618691174180000
     0.684909498720000     0.664661475030000     1.323968806590000
1 51
    -1.433053429250000    -1.428115947370000     0.684909498720000
    -1.428116187590000    -1.347327679280000     0.664661475030000
    -0.637539075600000    -0.618691174180000     1.323968806590000
1 52
    -1.549047379660000     1.697251108660000     0.755280506400000
     1.660932006640000    -1.649837445940000    -0.737468553730000
    -0.714478538850000     0.777064736990000     1.413501322900000
1 53
    -0.083995325200000    -0.082980515810000    -0.033235037550000
    -0.078316164070000    -0.079154171540000     0.036353333370000
     0.035339965300000    -0.034310622600000     0.059117061010000
1 54
    -0.081951413330000     0.069078263750000    -0.046035760800000
     0.069078263750000    -0.086097970860000    -0.044674794390000
     0.034240118030000     0.033227830950000     0.049290741800000
1 55
    -0.081951413330000     0.069078263750000     0.034240118030000
     0.069078263750000    -0.086097970860000     0.033227830950000
    -0.046035760800000    -0.044674794390000     0.049290741800000
1 56
    -0.083995325200000    -0.078316164070000     0.035339965300000
    -0.082980515810000    -0.079154171540000    -0.034310622600000
    -0.033235037550000     0.036353333370000     0.059117061010000
1 57
    -9.410107792280000     2.470069837040000    -2.507239197750000
     2.470069837040000    -9.336004006020000     2.468994732430000
    -2.507239197750000     2.468994732430000    -9.407813090729999
1 58
     0.048489728210000     0.073606050420000    -0.083359703080000
     0.073606050420000     0.133327384840000    -0.008595672150000
    -0.083359703080000    -0.008595672150000     0.180193706290000
1 59
     0.154697596260000     0.105821834510000     0.042735138000000
     0.105821834510000     0.094370907440000     0.103119719840000
     0.042735138000000     0.103119719840000     0.145987819610000
1 60
    -0.105719140460000     0.133649279640000    -0.224173664330000
     0.133649279640000    -0.100049227800000     0.226158602190000
    -0.224173664330000     0.226158602190000    -0.355761616150000
1 61
     0.174666724530000    -0.010132599710000    -0.084708298160000
    -0.010132599710000     0.138240364280000     0.073797025320000
    -0.084708298160000     0.073797025320000     0.049103730530000
1 62
    -0.030490884380000     0.207038411400000    -0.067797771040000
     0.207038411400000    -0.307981978260000     0.210942466840000
    -0.067797771040000     0.210942466840000    -0.038839250040000
1 63
    -0.355368255900000     0.231022696860000    -0.219514957760000
     0.231022696860000    -0.105669294810000     0.133439447470000
    -0.219514957760000     0.133439447470000    -0.100492433700000
1 64
     0.037258242110000     0.033083698950000    -0.026403781300000
     0.033083698950000     0.030559587300000     0.033077933670000
    -0.026403781300000     0.033077933670000     0.036864041090000
2 1
    -0.162256238670000    -0.003288371580000    -0.003193965120000
    -0.003288371580000    -0.092639401680000     0.000837166700000
    -0.003193965120000     0.000837166700000    -0.092688286450000
2 2
    42.801915076260002    -2.693715137480000    -2.616367660560000
    -2.693715137480000    42.963598150009993    -2.539013217260000
    -2.616367660560000    -2.539013217260000    43.111576912979999
2 3
    -0.113597275470000     0.017456547180000     0.005033689990000
     0.017456547180000    -0.114645115110000     0.004884993810000
     0.005033689990000     0.004884993810000     0.564087967080000
2 4
    -0.092899319720000    -0.005369997990000     0.000741078700000
    -0.005369997990000    -0.161996320630000    -0.003217626790000
     0.000741078700000    -0.003217626790000    -0.092688286450000
2 5
    -0.113597275470000     0.005540073750000     0.017302446050000
     0.005540073750000     0.563796460110000    -0.014883911090000
     0.017302446050000    -0.014883911090000    -0.114353728250000
2 6
    -0.092899319720000     0.000584335150000    -0.005389335700000
     0.000584335150000    -0.092934391840000    -0.005229949730000
    -0.005389335700000    -0.005229949730000    -0.161750215240000
2 7
    -0.052604937030000    -0.003908259290000    -0.003796076550000
    -0.003908259290000    -0.052370362200000    -0.003683773700000
    -0.003796076550000    -0.003683773700000    -0.052155605520000
2 8
     0.563519246230000    -0.014782538250000    -0.014358069510000
    -0.014782538250000    -0.113319821370000     0.017741207880000
    -0.014358069510000     0.017741207880000    -0.114353728250000
2 9
    -0.092039091900000     0.133238743660000     0.219331669900000
     0.133238743660000    -0.113729396470000    -0.230857425500000
     0.219331669900000    -0.230857425500000    -0.355761616150000
2 10
     0.137665517820000     0.070929639290000    -0.011092638940000
     0.070929639290000     0.044151715340000    -0.083064232480000
    -0.011092638940000    -0.083064232480000     0.180193706290000
2 11
     0.100771569340000     0.107440436870000     0.104355291410000
     0.107440436870000     0.148296934360000     0.039622367240000
     0.104355291410000     0.039622367240000     0.145987819610000
2 12
    -9.187936721980000     2.463402410830000     2.392668070400000
     2.463402410830000    -9.558176277419999    -2.580181400200000
     2.392668070400000    -2.580181400200000    -9.407813090729999
2 13
     0.032549810000000     0.033224948310000     0.032270914580000
     0.033224948310000     0.035268139520000    -0.027384119120000
     0.032270914580000    -0.027384119120000     0.036864041090000
2 14
    -0.295315658100000     0.214986810760000     0.208813637200000
     0.214986810760000    -0.043157324650000    -0.074095498670000
     0.208813637200000    -0.074095498670000    -0.038839250040000
2 15
    -0.092039091900000     0.223119338750000     0.126794001390000
     0.223119338750000    -0.368998578920000    -0.223419253420000
     0.126794001390000    -0.223419253420000    -0.100492433700000
2 16
     0.137665517820000    -0.009022062650000     0.071222587580000
    -0.009022062650000     0.175241570990000    -0.086883970700000
     0.071222587580000    -0.086883970700000     0.049103730530000
2 17
     0.058852698900000    -0.039925164550000     0.029932132660000
     0.028756495980000    -0.083788736000000    -0.080246331770000
    -0.040779987420000    -0.080790309960000    -0.079096398630000
2 18
     1.413546364150000    -0.754716229620000     0.737771831480000
     0.715476652950000    -1.550537464320000     1.653143353580000
    -0.775884776350000     1.705081079560000    -1.648391922090000
2 19
     0.048492010300000    -0.047919325820000    -0.046543345660000
     0.032322441770000    -0.081600692130000     0.069479190930000
     0.031394351800000     0.069479190930000    -0.085649840450000
2 20
     1.319485700840000    -0.761477221520000    -0.739612156900000
     0.560410318990000    -1.429498173250000    -1.425912649530000
     0.544318581740000    -1.425912649530000    -1.346400309970000
2 21
     0.048492010300000     0.032322441770000     0.031394351800000
    -0.047919325820000    -0.081600692130000     0.069479190930000
    -0.046543345660000     0.069479190930000    -0.085649840450000
2 22
     1.319485700840000     0.560410318990000     0.544318581740000
    -0.761477221520000    -1.429498173250000    -1.425912649530000
    -0.739612156900000    -1.425912649530000    -1.346400309970000
2 23
     0.058852698900000     0.028756495980000    -0.040779987420000
    -0.039925164550000    -0.083788736000000    -0.080790309960000
     0.029932132660000    -0.080246331770000    -0.079096398630000
2 24
     1.413546364150000     0.715476652950000    -0.775884776350000
    -0.754716229620000    -1.550537464320000     1.705081079560000
     0.737771831480000     1.653143353580000    -1.648391922090000
2 25
     0.063075646390000    -0.107840643390000    -0.104744087480000
    -0.107840643390000     0.154942980990000     0.033626235820000
    -0.104744087480000     0.033626235820000     0.152983386340000
2 26
    -7.452733735959999    -0.332481175290000    -0.322934352050000
    -0.332481175290000    -7.432774096380000    -0.313388369580000
    -0.322934352050000    -0.313388369580000    -7.414512692089999
2 27
    -0.085609363380000    -0.079027095160000    -0.191506146530000
    -0.079027095160000    -0.080865618930000    -0.185844641570000
    -0.191506146530000    -0.185844641570000    -0.334385879670000
2 28
     0.148392782140000    -0.110401268480000     0.030468784140000
    -0.110401268480000     0.069625845240000    -0.105705688140000
     0.030468784140000    -0.105705688140000     0.152983386340000
2 29
    -0.085609363380000    -0.193726620100000    -0.073415676070000
    -0.193726620100000    -0.344992073110000    -0.178148353100000
    -0.073415676070000    -0.178148353100000    -0.070259305380000
2 30
     0.148392782140000     0.027240227340000    -0.111241918370000
     0.027240227340000     0.146757604600000    -0.107953186460000
    -0.111241918370000    -0.107953186460000     0.075851626980000
2 31
     0.026149148100000    -0.031666641170000    -0.030757288360000
    -0.031666641170000     0.028050008960000    -0.029848055660000
    -0.030757288360000    -0.029848055660000     0.029789441980000
2 32
    -0.356377059790000    -0.185599977500000    -0.180270696800000
    -0.185599977500000    -0.074224376700000    -0.068038231260000
    -0.180270696800000    -0.068038231260000    -0.070259305380000
2 33
    -1.549047379660000     0.804394566390000     1.674532782600000
    -0.665798556400000     1.412054958280000     0.687845347450000
     1.681037699980000    -0.826687943270000    -1.648391922090000
2 34
    -1.433053429250000     0.643023057980000    -1.447459182430000
    -0.678864242310000     1.323040596510000    -0.696502155590000
    -1.408941346750000     0.586850613730000    -1.346400309970000
2 35
    -0.083995325200000     0.033043822430000    -0.079312236300000
    -0.035637838100000     0.059059167990000     0.032326045070000
    -0.081977357090000    -0.038337910900000    -0.079096398630000
2 36
    -0.081951413330000     0.036237547330000     0.068051683580000
    -0.044004220260000     0.048842611390000    -0.048606715350000
     0.070389744840000     0.029295909990000    -0.085649840450000
2 37
    -1.433053429250000    -0.678864242310000    -1.408941346750000
     0.643023057980000     1.323040596510000     0.586850613730000
    -1.447459182430000    -0.696502155590000    -1.346400309970000
2 38
    -1.549047379660000    -0.665798556400000     1.681037699980000
     0.804394566390000     1.412054958280000    -0.826687943270000
     1.674532782600000     0.687845347450000    -1.648391922090000
2 39
    -0.081951413330000    -0.044004220260000     0.070389744840000
     0.036237547330000     0.048842611390000     0.029295909990000
     0.068051683580000    -0.048606715350000    -0.085649840450000
2 40
    -0.083995325200000    -0.035637838100000    -0.081977357090000
     0.033043822430000     0.059059167990000    -0.038337910900000
    -0.079312236300000     0.032326045070000    -0.079096398630000
2 41
    -0.030490884380000    -0.061738701980000     0.208925339500000
    -0.061738701980000    -0.026784890330000     0.202748802860000
     0.208925339500000     0.202748802860000    -0.320036458080000
2 42
     0.174666724530000    -0.084967375430000    -0.007660976130000
    -0.084967375430000     0.053476455190000     0.076266967360000
    -0.007660976130000     0.076266967360000     0.133867759730000
2 43
     0.048489728210000    -0.081180427240000     0.076002845470000
    -0.081180427240000     0.179653451510000    -0.009945588440000
     0.076002845470000    -0.009945588440000     0.133867759730000
2 44
    -9.410107792280000    -2.434231295130000     2.542048757289999
    -2.434231295130000    -9.263985329359999     2.466896170510000
     2.542048757289999     2.466896170510000    -9.479831767389999
2 45
     0.037258242110000    -0.025428968540000     0.033838710410000
    -0.025428968540000     0.038784720100000     0.032838314220000
     0.033838710410000     0.032838314220000     0.028638908290000
2 46
    -0.355368255900000    -0.212692949980000     0.237318382620000
    -0.212692949980000    -0.092726961870000     0.133062302070000
     0.237318382620000     0.133062302070000    -0.113434886750000
2 47
    -0.105719140460000    -0.220185772110000     0.140122007540000
    -0.220185772110000    -0.342375957200000     0.233219628870000
     0.140122007540000     0.233219628870000    -0.113434886750000
2 48
     0.154697596260000     0.045799144100000     0.104532333550000
     0.045799144100000     0.151948518580000     0.101442023360000
     0.104532333550000     0.101442023360000     0.088410208470000
2 49
    -1.433053429250000    -1.428116187590000    -0.637539075600000
    -1.428115947370000    -1.347327679280000    -0.618691174180000
     0.684909498720000     0.664661475030000     1.323968806590000
2 50
    -1.549047379660000     1.660932006640000    -0.714478538850000
     1.697251108660000    -1.649837445940000     0.777064736990000
     0.755280506400000    -0.737468553730000     1.413501322900000
2 51
    -1.549047379660000     1.697251108660000     0.755280506400000
     1.660932006640000    -1.649837445940000    -0.737468553730000
    -0.714478538850000     0.777064736990000     1.413501322900000
2 52
    -1.433053429250000    -1.428115947370000     0.684909498720000
    -1.428116187590000    -1.347327679280000     0.664661475030000
    -0.637539075600000    -0.618691174180000     1.323968806590000
2 53
    -0.081951413330000     0.069078263750000    -0.046035760800000
     0.069078263750000    -0.086097970860000    -0.044674794390000
     0.034240118030000     0.033227830950000     0.049290741800000
2 54
    -0.083995325200000    -0.082980515810000    -0.033235037550000
    -0.078316164070000    -0.079154171540000     0.036353333370000
     0.035339965300000    -0.034310622600000     0.059117061010000
2 55
    -0.083995325200000    -0.078316164070000     0.035339965300000
    -0.082980515810000    -0.079154171540000    -0.034310622600000
    -0.033235037550000     0.036353333370000     0.059117061010000
2 56
    -0.081951413330000     0.069078263750000     0.034240118030000
     0.069078263750000    -0.086097970860000     0.033227830950000
    -0.046035760800000    -0.044674794390000     0.049290741800000
2 57
     0.048489728210000     0.073606050420000    -0.083359703080000
     0.073606050420000     0.133327384840000    -0.008595672150000
    -0.083359703080000    -0.008595672150000     0.180193706290000
2 58
    -9.410107792280000     2.470069837040000    -2.507239197750000
     2.470069837040000    -9.336004006020000     2.468994732430000
    -2.507239197750000     2.468994732430000    -9.407813090729999
2 59
    -0.105719140460000     0.133649279640000    -0.224173664330000
     0.133649279640000    -0.100049227800000     0.226158602190000
    -0.224173664330000     0.226158602190000    -0.355761616150000
2 60
     0.154697596260000     0.105821834510000     0.042735138000000
     0.105821834510000     0.094370907440000     0.103119719840000
     0.042735138000000     0.103119719840000     0.145987819610000
2 61
    -0.030490884380000     0.207038411400000    -0.067797771040000
     0.207038411400000    -0.307981978260000     0.210942466840000
    -0.067797771040000     0.210942466840000    -0.038839250040000
2 62
     0.174666724530000    -0.010132599710000    -0.084708298160000
    -0.010132599710000     0.138240364280000     0.073797025320000
    -0.084708298160000     0.073797025320000     0.049103730530000
2 63
     0.037258242110000     0.033083698950000    -0.026403781300000
     0.033083698950000     0.030559587300000     0.033077933670000
    -0.026403781300000     0.033077933670000     0.036864041090000
2 64
    -0.355368255900000     0.231022696860000    -0.219514957760000
     0.231022696860000    -0.105669294810000     0.133439447470000
    -0.219514957760000     0.133439447470000    -0.100492433700000
3 1
    -0.092899319720000    -0.005369997990000     0.000741078700000
    -0.005369997990000    -0.161996320630000    -0.003217626790000
     0.000741078700000    -0.003217626790000    -0.092688286450000
3 2
    -0.113597275470000     0.017456547180000     0.005033689990000
     0.017456547180000    -0.114645115110000     0.004884993810000
     0.005033689990000     0.004884993810000     0.564087967080000
3 3
    42.801915076260002    -2.693715137480000    -2.616367660560000
    -2.693715137480000    42.963598150009993    -2.539013217260000
    -2.616367660560000    -2.539013217260000    43.111576912979999
3 4
    -0.162256238670000    -0.003288371580000    -0.003193965120000
    -0.003288371580000    -0.092639401680000     0.000837166700000
    -0.003193965120000     0.000837166700000    -0.092688286450000
3 5
     0.563519246230000    -0.014782538250000    -0.014358069510000
    -0.014782538250000    -0.113319821370000     0.017741207880000
    -0.014358069510000     0.017741207880000    -0.114353728250000
3 6
    -0.052604937030000    -0.003908259290000    -0.003796076550000
    -0.003908259290000    -0.052370362200000    -0.003683773700000
    -0.003796076550000    -0.003683773700000    -0.052155605520000
3 7
    -0.092899319720000     0.000584335150000    -0.005389335700000
     0.000584335150000    -0.092934391840000    -0.005229949730000
    -0.005389335700000    -0.005229949730000    -0.161750215240000
3 8
    -0.113597275470000     0.005540073750000     0.017302446050000
     0.005540073750000     0.563796460110000    -0.014883911090000
     0.017302446050000    -0.014883911090000    -0.114353728250000
3 9
    -9.187936721980000     2.463402410830000     2.392668070400000
     2.463402410830000    -9.558176277419999    -2.580181400200000
     2.392668070400000    -2.580181400200000    -9.407813090729999
3 10
     0.100771569340000     0.107440436870000     0.104355291410000
     0.107440436870000     0.148296934360000     0.039622367240000
     0.104355291410000     0.039622367240000     0.145987819610000
3 11
     0.137665517820000     0.070929639290000    -0.011092638940000
     0.070929639290000     0.044151715340000    -0.083064232480000
    -0.011092638940000    -0.083064232480000     0.180193706290000
3 12
    -0.092039091900000     0.133238743660000     0.219331669900000
     0.133238743660000    -0.113729396470000    -0.230857425500000
     0.219331669900000    -0.230857425500000    -0.355761616150000
3 13
     0.137665517820000    -0.009022062650000     0.071222587580000
    -0.009022062650000     0.175241570990000    -0.086883970700000
     0.071222587580000    -0.086883970700000     0.049103730530000
3 14
    -0.092039091900000     0.223119338750000     0.126794001390000
     0.223119338750000    -0.368998578920000    -0.223419253420000
     0.126794001390000    -0.223419253420000    -0.100492433700000
3 15
    -0.295315658100000     0.214986810760000     0.208813637200000
     0.214986810760000    -0.043157324650000    -0.074095498670000
     0.208813637200000    -0.074095498670000    -0.038839250040000
3 16
     0.032549810000000     0.033224948310000     0.032270914580000
     0.033224948310000     0.035268139520000    -0.027384119120000
     0.032270914580000    -0.027384119120000     0.036864041090000
3 17
     1.319485700840000    -0.761477221520000    -0.739612156900000
     0.560410318990000    -1.429498173250000    -1.425912649530000
     0.544318581740000    -1.425912649530000    -1.346400309970000
3 18
     0.048492010300000    -0.047919325820000    -0.046543345660000
     0.032322441770000    -0.081600692130000     0.069479190930000