       N       E                     dE             d eps       ncg     rms          rms(c)
DAV:   1     0.507662086845E+03    0.50766E+03   -0.11360E+05 12288   0.106E+03
DAV:   2    -0.557687501723E+03   -0.10653E+04   -0.10146E+04 16224   0.230E+02
DAV:   3    -0.599258375721E+03   -0.41571E+02   -0.41322E+02 16352   0.427E+01
DAV:   4    -0.599715647649E+03   -0.45727E+00   -0.45631E+00 16192   0.494E+00
DAV:   5    -0.599725497121E+03   -0.98495E-02   -0.98451E-02 15328   0.670E-01    0.264E+01
DAV:   6    -0.585150609154E+03    0.14575E+02   -0.97274E+00 14464   0.628E+00    0.145E+01
DAV:   7    -0.580239546233E+03    0.49111E+01   -0.11246E+01 15200   0.696E+00    0.196E+00
DAV:   8    -0.580301333058E+03   -0.61787E-01   -0.29090E-01 15360   0.109E+00    0.216E-01
DAV:   9    -0.580303594021E+03   -0.22610E-02   -0.40167E-03 16000   0.152E-01    0.877E-02
DAV:  10    -0.580304075483E+03   -0.48146E-03   -0.37332E-04 14784   0.506E-02    0.101E-02
DAV:  11    -0.580304088723E+03   -0.13240E-04   -0.14653E-05 16128   0.953E-03    0.312E-03
DAV:  12    -0.580304088941E+03   -0.21850E-06   -0.45286E-07 15712   0.162E-03    0.382E-04
DAV:  13    -0.580304088991E+03   -0.49726E-07   -0.84790E-09 11904   0.228E-04    0.194E-04
DAV:  14    -0.580304089030E+03   -0.39090E-07   -0.27107E-09 10912   0.150E-04    0.152E-04
DAV:  15    -0.580304089032E+03   -0.16153E-08   -0.37222E-10  9568   0.466E-05
   1 F= -.58030409E+03 E0= -.58030409E+03  d E =-.908431E-17
 Linear response reoptimize wavefunctions
DAV:   1    -0.580304089032E+03   -0.12551E-09   -0.69027E-11  9312   0.207E-05
DAV:   2    -0.580304089032E+03   -0.94587E-10   -0.14731E-11  9216   0.972E-06
 Linear response DOF=           1
 Linear response progress:
  Degree of freedom:   1/  1
       N       E                     dE             d eps       ncg     rms          rms(c)
RMM:   1    -0.145094604486E+00   -0.14509E+00    0.37238E-03 73335   0.735E-01
RMM:   2    -0.123505866567E+00    0.21589E-01   -0.71847E-03 44155   0.191E-01    0.178E-01
RMM:   3    -0.123358214547E+00    0.14765E-03   -0.88491E-04 46703   0.501E-02    0.904E-02
RMM:   4    -0.123616434303E+00   -0.25822E-03   -0.24226E-04 46851   0.273E-02    0.275E-02
RMM:   5    -0.123698856207E+00   -0.82422E-04   -0.16230E-05 47376   0.768E-03    0.657E-03
RMM:   6    -0.123681665661E+00    0.17191E-04   -0.91321E-07 47994   0.198E-03    0.137E-03
RMM:   7    -0.123673184489E+00    0.84812E-05    0.19022E-08 48982   0.633E-04    0.384E-04
RMM:   8    -0.123672663057E+00    0.52143E-06    0.49623E-08 50677   0.297E-04    0.875E-05
RMM:   9    -0.123672413528E+00    0.24953E-06    0.40957E-08 52140   0.213E-04    0.381E-05
RMM:  10    -0.123672488571E+00   -0.75043E-07    0.39528E-08 53204   0.206E-04    0.118E-05
RMM:  11    -0.123672490697E+00   -0.21257E-08    0.67209E-08 53308   0.203E-04    0.439E-06
 Linear response finished
