 vasp.5.4.4.18Apr17-6-g9f103f2a35 (build Mar 12 2022 03:36:41) complex          
  
 executed on IFC19.0.3.199_CrayMP date 2022.12.02  03:24:37
 running on   32 total cores
 distrk:  each k-point on   32 cores,    1 groups
 distr:  one band on NCORES_PER_BAND=   1 cores,   32 groups


--------------------------------------------------------------------------------------------------------


 INCAR:
 POTCAR:   PAW_PBE C 08Apr2002                    

 ----------------------------------------------------------------------------- 
|                                                                             |
|           W    W    AA    RRRRR   N    N  II  N    N   GGGG   !!!           |
|           W    W   A  A   R    R  NN   N  II  NN   N  G    G  !!!           |
|           W    W  A    A  R    R  N N  N  II  N N  N  G       !!!           |
|           W WW W  AAAAAA  RRRRR   N  N N  II  N  N N  G  GGG   !            |
|           WW  WW  A    A  R   R   N   NN  II  N   NN  G    G                |
|           W    W  A    A  R    R  N    N  II  N    N   GGGG   !!!           |
|                                                                             |
|      For optimal performance we recommend to set                            |
|        NCORE= 4 - approx SQRT( number of cores)                             |
|      NCORE specifies how many cores store one orbital (NPAR=cpu/NCORE).     |
|      This setting can  greatly improve the performance of VASP for DFT.     |
|      The default,   NCORE=1            might be grossly inefficient         |
|      on modern multi-core architectures or massively parallel machines.     |
|      Do your own testing !!!!                                               |
|      Unfortunately you need to use the default for GW and RPA calculations. |
|      (for HF NCORE is supported but not extensively tested yet)             |
|                                                                             |
 ----------------------------------------------------------------------------- 

 POTCAR:   PAW_PBE C 08Apr2002                    
   VRHFIN =C: s2p2                                                              
   LEXCH  = PE                                                                  
   EATOM  =   147.1560 eV,   10.8157 Ry                                         
                                                                                
   TITEL  = PAW_PBE C 08Apr2002                                                 
   LULTRA =        F    use ultrasoft PP ?                                      
   IUNSCR =        0    unscreen: 0-lin 1-nonlin 2-no                           
   RPACOR =     .000    partial core radius                                     
   POMASS =   12.011; ZVAL   =    4.000    mass and valenz                      
   RCORE  =    1.500    outmost cutoff radius                                   
   RWIGS  =    1.630; RWIGS  =     .863    wigner-seitz radius (au A)           
   ENMAX  =  400.000; ENMIN  =  300.000 eV                                      
   ICORE  =        2    local potential                                         
   LCOR   =        T    correct aug charges                                     
   LPAW   =        T    paw PP                                                  
   EAUG   =  644.873                                                            
   DEXC   =     .000                                                            
   RMAX   =    2.266    core radius for proj-oper                               
   RAUG   =    1.300    factor for augmentation sphere                          
   RDEP   =    1.501    radius for radial grids                                 
   RDEPT  =    1.300    core radius for aug-charge                              
   QCUT   =   -5.516; QGAM   =   11.032    optimization parameters              
                                                                                
   Description                                                                  
     l     E      TYP  RCUT    TYP  RCUT                                        
     0   .000     23  1.200                                                     
     0   .000     23  1.200                                                     
     1   .000     23  1.500                                                     
     1  2.500     23  1.500                                                     
     2   .000      7  1.500                                                     
  local pseudopotential read in
  atomic valenz-charges read in
  non local Contribution for L=           0  read in
    real space projection operators read in
  non local Contribution for L=           0  read in
    real space projection operators read in
  non local Contribution for L=           1  read in
    real space projection operators read in
  non local Contribution for L=           1  read in
    real space projection operators read in
    PAW grid and wavefunctions read in
 
   number of l-projection  operators is LMAX  =           4
   number of lm-projection operators is LMMAX =           8
 

 ----------------------------------------------------------------------------- 
|                                                                             |
|  ADVICE TO THIS USER RUNNING 'VASP/VAMP'   (HEAR YOUR MASTER'S VOICE ...):  |
|                                                                             |
|      You have a (more or less) 'large supercell' and for larger cells       |
|      it might be more efficient to use real space projection operators      |
|      So try LREAL= Auto  in the INCAR   file.                               |
|      Mind: If you want to do a very accurate calculations keep the          |
|      reciprocal projection scheme          (i.e. LREAL=.FALSE.)             |
|                                                                             |
 ----------------------------------------------------------------------------- 

 PAW_PBE C 08Apr2002                    :
 energy of atom  1       EATOM= -147.1560
 kinetic energy error for atom=    0.0288 (will be added to EATOM!!)
 
 
 POSCAR: generated by phonopy                    
  positions in direct lattice
  No initial velocities read in
 exchange correlation table for  LEXCH =        8
   RHO(1)=    0.500       N(1)  =     2000
   RHO(2)=  100.500       N(2)  =     4000
 


--------------------------------------------------------------------------------------------------------


 ion  position               nearest neighbor table
   1  0.125  0.375  0.125-  43 1.54  57 1.54  11 1.54  25 1.60
   2  0.625  0.375  0.125-  44 1.54  58 1.54  12 1.54  26 1.60
   3  0.125  0.875  0.125-  41 1.54  59 1.54   9 1.54  27 1.60
   4  0.625  0.875  0.125-  42 1.54  60 1.54  10 1.54  28 1.60
   5  0.125  0.375  0.625-  47 1.54  61 1.54  15 1.54  29 1.60
   6  0.625  0.375  0.625-  48 1.54  62 1.54  16 1.54  30 1.60
   7  0.125  0.875  0.625-  45 1.54  63 1.54  13 1.54  31 1.60
   8  0.625  0.875  0.625-  46 1.54  64 1.54  14 1.54  32 1.60
   9  0.000  0.000  0.250-  36 1.54  50 1.54   3 1.54  17 1.60
  10  0.500  0.000  0.250-  35 1.54  49 1.54   4 1.54  18 1.60
  11  0.000  0.500  0.250-  34 1.54  52 1.54   1 1.54  19 1.60
  12  0.500  0.500  0.250-  33 1.54  51 1.54   2 1.54  20 1.60
  13  0.000  0.000  0.750-  40 1.54  54 1.54   7 1.54  21 1.60
  14  0.500  0.000  0.750-  39 1.54  53 1.54   8 1.54  22 1.60
  15  0.000  0.500  0.750-  38 1.54  56 1.54   5 1.54  23 1.60
  16  0.500  0.500  0.750-  37 1.54  55 1.54   6 1.54  24 1.60
  17  0.125  0.125  0.375-  45 1.54  57 1.54  29 1.54   9 1.60
  18  0.625  0.125  0.375-  46 1.54  58 1.54  30 1.54  10 1.60
  19  0.125  0.625  0.375-  47 1.54  59 1.54  31 1.54  11 1.60
  20  0.625  0.625  0.375-  48 1.54  60 1.54  32 1.54  12 1.60
  21  0.125  0.125  0.875-  41 1.54  61 1.54  25 1.54  13 1.60
  22  0.625  0.125  0.875-  42 1.54  62 1.54  26 1.54  14 1.60
  23  0.125  0.625  0.875-  43 1.54  63 1.54  27 1.54  15 1.60
  24  0.625  0.625  0.875-  44 1.54  64 1.54  28 1.54  16 1.60
  25  0.000  0.250  0.000-  38 1.54  50 1.54  21 1.54   1 1.60
  26  0.500  0.250  0.000-  37 1.54  49 1.54  22 1.54   2 1.60
  27  0.000  0.750  0.000-  40 1.54  52 1.54  23 1.54   3 1.60
  28  0.500  0.750  0.000-  39 1.54  51 1.54  24 1.54   4 1.60
  29  0.000  0.250  0.500-  34 1.54  54 1.54  17 1.54   5 1.60
  30  0.500  0.250  0.500-  33 1.54  53 1.54  18 1.54   6 1.60
  31  0.000  0.750  0.500-  36 1.54  56 1.54  19 1.54   7 1.60
  32  0.500  0.750  0.500-  35 1.54  55 1.54  20 1.54   8 1.60
  33  0.375  0.375  0.375-  12 1.54  30 1.54  47 1.54  57 1.60
  34  0.875  0.375  0.375-  11 1.54  29 1.54  48 1.54  58 1.60
  35  0.375  0.875  0.375-  10 1.54  32 1.54  45 1.54  59 1.60
  36  0.875  0.875  0.375-   9 1.54  31 1.54  46 1.54  60 1.60
  37  0.375  0.375  0.875-  16 1.54  26 1.54  43 1.54  61 1.60
  38  0.875  0.375  0.875-  15 1.54  25 1.54  44 1.54  62 1.60
  39  0.375  0.875  0.875-  14 1.54  28 1.54  41 1.54  63 1.60
  40  0.875  0.875  0.875-  13 1.54  27 1.54  42 1.54  64 1.60
  41  0.250  0.000  0.000-   3 1.54  21 1.54  39 1.54  49 1.60
  42  0.750  0.000  0.000-   4 1.54  22 1.54  40 1.54  50 1.60
  43  0.250  0.500  0.000-   1 1.54  23 1.54  37 1.54  51 1.60
  44  0.750  0.500  0.000-   2 1.54  24 1.54  38 1.54  52 1.60
  45  0.250  0.000  0.500-   7 1.54  17 1.54  35 1.54  53 1.60
  46  0.750  0.000  0.500-   8 1.54  18 1.54  36 1.54  54 1.60
  47  0.250  0.500  0.500-   5 1.54  19 1.54  33 1.54  55 1.60
  48  0.750  0.500  0.500-   6 1.54  20 1.54  34 1.54  56 1.60
  49  0.375  0.125  0.125-  10 1.54  26 1.54  57 1.54  41 1.60
  50  0.875  0.125  0.125-   9 1.54  25 1.54  58 1.54  42 1.60
  51  0.375  0.625  0.125-  12 1.54  28 1.54  59 1.54  43 1.60
  52  0.875  0.625  0.125-  11 1.54  27 1.54  60 1.54  44 1.60
  53  0.375  0.125  0.625-  14 1.54  30 1.54  61 1.54  45 1.60
  54  0.875  0.125  0.625-  13 1.54  29 1.54  62 1.54  46 1.60
  55  0.375  0.625  0.625-  16 1.54  32 1.54  63 1.54  47 1.60
  56  0.875  0.625  0.625-  15 1.54  31 1.54  64 1.54  48 1.60
  57  0.250  0.250  0.250-   1 1.54  17 1.54  49 1.54  33 1.60
  58  0.750  0.250  0.250-   2 1.54  18 1.54  50 1.54  34 1.60
  59  0.250  0.750  0.250-   3 1.54  19 1.54  51 1.54  35 1.60
  60  0.750  0.750  0.250-   4 1.54  20 1.54  52 1.54  36 1.60
  61  0.250  0.250  0.750-   5 1.54  21 1.54  53 1.54  37 1.60
  62  0.750  0.250  0.750-   6 1.54  22 1.54  54 1.54  38 1.60
  63  0.250  0.750  0.750-   7 1.54  23 1.54  55 1.54  39 1.60
  64  0.750  0.750  0.750-   8 1.54  24 1.54  56 1.54  40 1.60
 
  LATTYP: Found a trigonal (rhomboedric) cell.
 ALAT       =     7.1799977590
 COS(alpha) =     0.0299999201
  
  Lattice vectors:
  
 A1 = (   7.1799987179,   0.0000000000,   0.0000000000)
 A2 = (   0.2153993588,   7.1767660499,   0.0000000000)
 A3 = (   0.2153993588,   0.2090324695,   7.1737222389)


Analysis of symmetry for initial positions (statically):
=====================================================================
 Subroutine PRICEL returns following result:
 
  LATTYP: Found a trigonal (rhomboedric) cell.
 ALAT       =     2.5763091098
 COS(alpha) =     0.5291261024
  
  Lattice vectors:
  
 A1 = (  -0.1076996794,  -1.8464496299,  -1.7934305597)
 A2 = (  -1.8488495192,  -1.7941915125,   0.0000000000)
 A3 = (  -1.8488495192,  -0.0522581174,  -1.7934305597)
 
  32 primitive cells build up your supercell.
 

 Routine SETGRP: Setting up the symmetry group for a 
 trigonal (rhombohedral) supercell.


 Subroutine GETGRP returns: Found 12 space group operations
 (whereof  6 operations were pure point group operations)
 out of a pool of 12 trial point group operations.


The static configuration has the point symmetry C_3v.
 The point group associated with its full space group is D_3d.


Analysis of symmetry for dynamics (positions and initial velocities):
=====================================================================
 Subroutine PRICEL returns following result:
 
  LATTYP: Found a trigonal (rhomboedric) cell.
 ALAT       =     2.5763091098
 COS(alpha) =     0.5291261024
  
  Lattice vectors:
  
 A1 = (  -0.1076996794,  -1.8464496299,  -1.7934305597)
 A2 = (  -1.8488495192,  -1.7941915125,   0.0000000000)
 A3 = (  -1.8488495192,  -0.0522581174,  -1.7934305597)
 
  32 primitive cells build up your supercell.
 

 Routine SETGRP: Setting up the symmetry group for a 
 trigonal (rhombohedral) supercell.


 Subroutine GETGRP returns: Found 12 space group operations
 (whereof  6 operations were pure point group operations)
 out of a pool of 12 trial point group operations.


The dynamic configuration has the point symmetry C_3v.
 The point group associated with its full space group is D_3d.


 Subroutine INISYM returns: Found 12 space group operations
 (whereof  6 operations are pure point group operations),
 and found    32 'primitive' translations

 
 
 KPOINTS: kpt_density=3000                        

Automatic generation of k-mesh.
Space group operators:
 irot       det(A)        alpha          n_x          n_y          n_z        tau_x        tau_y        tau_z
    1     1.000000     0.000000     1.000000     0.000000     0.000000     0.000000     0.000000     0.000000
    2    -1.000000   180.000000     0.000000    -0.696733     0.717331     0.000000     0.000000     0.000000
    3     1.000000   120.000000    -0.594419    -0.576846    -0.560282     0.000000     0.000000     0.000000
    4    -1.000000   180.000000    -0.696419     0.717635    -0.000000     0.000000     0.000000     0.000000
    5     1.000000   120.000000     0.594418     0.576846     0.560282     0.000000     0.000000     0.000000
    6    -1.000000   180.000000    -0.696419     0.020902     0.717331     0.000000     0.000000     0.000000
    7    -1.000000     0.000000     1.000000     0.000000     0.000000    -0.375000    -0.375000    -0.375000
    8     1.000000   180.000000     0.000000    -0.696733     0.717331    -0.375000    -0.375000    -0.375000
    9    -1.000000   120.000000    -0.594419    -0.576846    -0.560282    -0.375000    -0.375000    -0.375000
   10     1.000000   180.000000    -0.696419     0.717635    -0.000000    -0.375000    -0.375000    -0.375000
   11    -1.000000   120.000000     0.594418     0.576846     0.560282    -0.375000    -0.375000    -0.375000
   12     1.000000   180.000000    -0.696419     0.020902     0.717331    -0.375000    -0.375000    -0.375000
 
 Subroutine IBZKPT returns following result:
 ===========================================
 
 Found     32 irreducible k-points:
 
 Following reciprocal coordinates:
            Coordinates               Weight
  0.000000  0.000000  0.000000      1.000000
  0.166667  0.000000  0.000000      6.000000
  0.333333  0.000000 -0.000000      6.000000
  0.500000  0.000000 -0.000000      3.000000
  0.166667  0.166667 -0.000000      6.000000
  0.333333  0.166667 -0.000000     12.000000
  0.500000  0.166667 -0.000000     12.000000
 -0.333333  0.166667 -0.000000     12.000000
 -0.166667  0.166667 -0.000000      6.000000
  0.333333  0.333333 -0.000000      6.000000
  0.500000  0.333333  0.000000     12.000000
 -0.333333  0.333333 -0.000000      6.000000
  0.500000  0.500000 -0.000000      3.000000
  0.166667  0.166667  0.166667      2.000000
  0.333333  0.166667  0.166667      6.000000
  0.500000  0.166667  0.166667      6.000000
 -0.333333  0.166667  0.166667      6.000000
 -0.166667  0.166667  0.166667      6.000000
  0.333333  0.333333  0.166667      6.000000
  0.500000  0.333333  0.166667     12.000000
 -0.333333  0.333333  0.166667     12.000000
 -0.166667  0.333333  0.166667     12.000000
  0.500000  0.500000  0.166667      6.000000
 -0.333333  0.500000  0.166667     12.000000
 -0.166667  0.500000  0.166667      6.000000
 -0.333333 -0.333333  0.166667      6.000000
  0.333333  0.333333  0.333333      2.000000
  0.500000  0.333333  0.333333      6.000000
 -0.333333  0.333333  0.333333      6.000000
  0.500000  0.500000  0.333333      6.000000
 -0.333333  0.500000  0.333333      6.000000
  0.500000  0.500000  0.500000      1.000000
 
 Following cartesian coordinates:
            Coordinates               Weight
  0.000000  0.000000  0.000000      1.000000
  0.023213 -0.000697 -0.000677      6.000000
  0.046425 -0.001393 -0.001353      6.000000
  0.069638 -0.002090 -0.002030      3.000000
  0.023213  0.022526 -0.001353      6.000000
  0.046425  0.021830 -0.002030     12.000000
  0.069638  0.021133 -0.002707     12.000000
 -0.046425  0.024616  0.000677     12.000000
 -0.023213  0.023920 -0.000000      6.000000
  0.046425  0.045053 -0.002707      6.000000
  0.069638  0.044356 -0.003383     12.000000
 -0.046425  0.047840 -0.000000      6.000000
  0.069638  0.067579 -0.004060      3.000000
  0.023213  0.022526  0.021880      2.000000
  0.046425  0.021830  0.021203      6.000000
  0.069638  0.021133  0.020526      6.000000
 -0.046425  0.024616  0.023910      6.000000
 -0.023213  0.023920  0.023233      6.000000
  0.046425  0.045053  0.020526      6.000000
  0.069638  0.044356  0.019850     12.000000
 -0.046425  0.047840  0.023233     12.000000
 -0.023213  0.047143  0.022556     12.000000
  0.069638  0.067579  0.019173      6.000000
 -0.046425  0.071063  0.022556     12.000000
 -0.023213  0.070366  0.021880      6.000000
 -0.046425 -0.045053  0.025940      6.000000
  0.046425  0.045053  0.043759      2.000000
  0.069638  0.044356  0.043082      6.000000
 -0.046425  0.047840  0.046466      6.000000
  0.069638  0.067579  0.042406      6.000000
 -0.046425  0.071063  0.045789      6.000000
  0.069638  0.067579  0.065639      1.000000
 
 
 Subroutine IBZKPT_HF returns following result:
 ==============================================
 
 Found    216 k-points in 1st BZ
 the following    216 k-points will be used (e.g. in the exchange kernel)
 Following reciprocal coordinates:   # in IRBZ
  0.000000  0.000000  0.000000    0.00462963   1 t-inv F
  0.166667  0.000000  0.000000    0.00462963   2 t-inv F
  0.333333  0.000000 -0.000000    0.00462963   3 t-inv F
  0.500000  0.000000 -0.000000    0.00462963   4 t-inv F
  0.166667  0.166667 -0.000000    0.00462963   5 t-inv F
  0.333333  0.166667 -0.000000    0.00462963   6 t-inv F
  0.500000  0.166667 -0.000000    0.00462963   7 t-inv F
 -0.333333  0.166667 -0.000000    0.00462963   8 t-inv F
 -0.166667  0.166667 -0.000000    0.00462963   9 t-inv F
  0.333333  0.333333 -0.000000    0.00462963  10 t-inv F
  0.500000  0.333333  0.000000    0.00462963  11 t-inv F
 -0.333333  0.333333 -0.000000    0.00462963  12 t-inv F
  0.500000  0.500000 -0.000000    0.00462963  13 t-inv F
  0.166667  0.166667  0.166667    0.00462963  14 t-inv F
  0.333333  0.166667  0.166667    0.00462963  15 t-inv F
  0.500000  0.166667  0.166667    0.00462963  16 t-inv F
 -0.333333  0.166667  0.166667    0.00462963  17 t-inv F
 -0.166667  0.166667  0.166667    0.00462963  18 t-inv F
  0.333333  0.333333  0.166667    0.00462963  19 t-inv F
  0.500000  0.333333  0.166667    0.00462963  20 t-inv F
 -0.333333  0.333333  0.166667    0.00462963  21 t-inv F
 -0.166667  0.333333  0.166667    0.00462963  22 t-inv F
  0.500000  0.500000  0.166667    0.00462963  23 t-inv F
 -0.333333  0.500000  0.166667    0.00462963  24 t-inv F
 -0.166667  0.500000  0.166667    0.00462963  25 t-inv F
 -0.333333 -0.333333  0.166667    0.00462963  26 t-inv F
  0.333333  0.333333  0.333333    0.00462963  27 t-inv F
  0.500000  0.333333  0.333333    0.00462963  28 t-inv F
 -0.333333  0.333333  0.333333    0.00462963  29 t-inv F
  0.500000  0.500000  0.333333    0.00462963  30 t-inv F
 -0.333333  0.500000  0.333333    0.00462963  31 t-inv F
  0.500000  0.500000  0.500000    0.00462963  32 t-inv F
  0.000000  0.166667  0.000000    0.00462963   2 t-inv F
  0.000000  0.000000  0.166667    0.00462963   2 t-inv F
 -0.166667 -0.000000 -0.000000    0.00462963   2 t-inv F
 -0.000000 -0.166667 -0.000000    0.00462963   2 t-inv F
 -0.000000 -0.000000 -0.166667    0.00462963   2 t-inv F
 -0.000000  0.333333  0.000000    0.00462963   3 t-inv F
  0.000000 -0.000000  0.333333    0.00462963   3 t-inv F
 -0.333333 -0.000000  0.000000    0.00462963   3 t-inv F
  0.000000 -0.333333 -0.000000    0.00462963   3 t-inv F
 -0.000000  0.000000 -0.333333    0.00462963   3 t-inv F
 -0.000000  0.500000  0.000000    0.00462963   4 t-inv F
  0.000000 -0.000000  0.500000    0.00462963   4 t-inv F
  0.166667 -0.000000  0.166667    0.00462963   5 t-inv F
 -0.000000  0.166667  0.166667    0.00462963   5 t-inv F
 -0.166667 -0.166667  0.000000    0.00462963   5 t-inv F
 -0.166667  0.000000 -0.166667    0.00462963   5 t-inv F
  0.000000 -0.166667 -0.166667    0.00462963   5 t-inv F
  0.333333 -0.000000  0.166667    0.00462963   6 t-inv F
 -0.000000  0.333333  0.166667    0.00462963   6 t-inv F
  0.166667  0.333333 -0.000000    0.00462963   6 t-inv F
  0.166667 -0.000000  0.333333    0.00462963   6 t-inv F
 -0.000000  0.166667  0.333333    0.00462963   6 t-inv F
 -0.333333 -0.166667  0.000000    0.00462963   6 t-inv F
 -0.333333  0.000000 -0.166667    0.00462963   6 t-inv F
  0.000000 -0.333333 -0.166667    0.00462963   6 t-inv F
 -0.166667 -0.333333  0.000000    0.00462963   6 t-inv F
 -0.166667  0.000000 -0.333333    0.00462963   6 t-inv F
  0.000000 -0.166667 -0.333333    0.00462963   6 t-inv F
  0.500000 -0.000000  0.166667    0.00462963   7 t-inv F
 -0.000000  0.500000  0.166667    0.00462963   7 t-inv F
  0.166667  0.500000 -0.000000    0.00462963   7 t-inv F
  0.166667 -0.000000  0.500000    0.00462963   7 t-inv F
 -0.000000  0.166667  0.500000    0.00462963   7 t-inv F
 -0.500000 -0.166667  0.000000    0.00462963   7 t-inv F
 -0.500000  0.000000 -0.166667    0.00462963   7 t-inv F
  0.000000 -0.500000 -0.166667    0.00462963   7 t-inv F
 -0.166667 -0.500000  0.000000    0.00462963   7 t-inv F
 -0.166667  0.000000 -0.500000    0.00462963   7 t-inv F
  0.000000 -0.166667 -0.500000    0.00462963   7 t-inv F
 -0.333333 -0.000000  0.166667    0.00462963   8 t-inv F
 -0.000000 -0.333333  0.166667    0.00462963   8 t-inv F
  0.166667 -0.333333 -0.000000    0.00462963   8 t-inv F
  0.166667 -0.000000 -0.333333    0.00462963   8 t-inv F
 -0.000000  0.166667 -0.333333    0.00462963   8 t-inv F
  0.333333 -0.166667  0.000000    0.00462963   8 t-inv F
  0.333333  0.000000 -0.166667    0.00462963   8 t-inv F
  0.000000  0.333333 -0.166667    0.00462963   8 t-inv F
 -0.166667  0.333333  0.000000    0.00462963   8 t-inv F
 -0.166667  0.000000  0.333333    0.00462963   8 t-inv F
  0.000000 -0.166667  0.333333    0.00462963   8 t-inv F
 -0.166667 -0.000000  0.166667    0.00462963   9 t-inv F
 -0.000000 -0.166667  0.166667    0.00462963   9 t-inv F
  0.166667 -0.166667 -0.000000    0.00462963   9 t-inv F
  0.166667 -0.000000 -0.166667    0.00462963   9 t-inv F
 -0.000000  0.166667 -0.166667    0.00462963   9 t-inv F
  0.333333 -0.000000  0.333333    0.00462963  10 t-inv F
 -0.000000  0.333333  0.333333    0.00462963  10 t-inv F
 -0.333333 -0.333333  0.000000    0.00462963  10 t-inv F
 -0.333333  0.000000 -0.333333    0.00462963  10 t-inv F
  0.000000 -0.333333 -0.333333    0.00462963  10 t-inv F
  0.500000  0.000000  0.333333    0.00462963  11 t-inv F
  0.000000  0.500000  0.333333    0.00462963  11 t-inv F
  0.333333  0.500000  0.000000    0.00462963  11 t-inv F
  0.333333  0.000000  0.500000    0.00462963  11 t-inv F
  0.000000  0.333333  0.500000    0.00462963  11 t-inv F
 -0.500000 -0.333333 -0.000000    0.00462963  11 t-inv F
 -0.500000 -0.000000 -0.333333    0.00462963  11 t-inv F
 -0.000000 -0.500000 -0.333333    0.00462963  11 t-inv F
 -0.333333 -0.500000 -0.000000    0.00462963  11 t-inv F
 -0.333333 -0.000000 -0.500000    0.00462963  11 t-inv F
 -0.000000 -0.333333 -0.500000    0.00462963  11 t-inv F
 -0.333333 -0.000000  0.333333    0.00462963  12 t-inv F
 -0.000000 -0.333333  0.333333    0.00462963  12 t-inv F
  0.333333 -0.333333 -0.000000    0.00462963  12 t-inv F
  0.333333 -0.000000 -0.333333    0.00462963  12 t-inv F
 -0.000000  0.333333 -0.333333    0.00462963  12 t-inv F
  0.500000 -0.000000  0.500000    0.00462963  13 t-inv F
 -0.000000  0.500000  0.500000    0.00462963  13 t-inv F
 -0.166667 -0.166667 -0.166667    0.00462963  14 t-inv F
  0.166667  0.333333  0.166667    0.00462963  15 t-inv F
  0.166667  0.166667  0.333333    0.00462963  15 t-inv F
 -0.333333 -0.166667 -0.166667    0.00462963  15 t-inv F
 -0.166667 -0.333333 -0.166667    0.00462963  15 t-inv F
 -0.166667 -0.166667 -0.333333    0.00462963  15 t-inv F
  0.166667  0.500000  0.166667    0.00462963  16 t-inv F
  0.166667  0.166667  0.500000    0.00462963  16 t-inv F
 -0.500000 -0.166667 -0.166667    0.00462963  16 t-inv F
 -0.166667 -0.500000 -0.166667    0.00462963  16 t-inv F
 -0.166667 -0.166667 -0.500000    0.00462963  16 t-inv F
  0.166667 -0.333333  0.166667    0.00462963  17 t-inv F
  0.166667  0.166667 -0.333333    0.00462963  17 t-inv F
  0.333333 -0.166667 -0.166667    0.00462963  17 t-inv F
 -0.166667  0.333333 -0.166667    0.00462963  17 t-inv F
 -0.166667 -0.166667  0.333333    0.00462963  17 t-inv F
  0.166667 -0.166667  0.166667    0.00462963  18 t-inv F
  0.166667  0.166667 -0.166667    0.00462963  18 t-inv F
  0.166667 -0.166667 -0.166667    0.00462963  18 t-inv F
 -0.166667  0.166667 -0.166667    0.00462963  18 t-inv F
 -0.166667 -0.166667  0.166667    0.00462963  18 t-inv F
  0.333333  0.166667  0.333333    0.00462963  19 t-inv F
  0.166667  0.333333  0.333333    0.00462963  19 t-inv F
 -0.333333 -0.333333 -0.166667    0.00462963  19 t-inv F
 -0.333333 -0.166667 -0.333333    0.00462963  19 t-inv F
 -0.166667 -0.333333 -0.333333    0.00462963  19 t-inv F
  0.500000  0.166667  0.333333    0.00462963  20 t-inv F
  0.166667  0.500000  0.333333    0.00462963  20 t-inv F
  0.333333  0.500000  0.166667    0.00462963  20 t-inv F
  0.333333  0.166667  0.500000    0.00462963  20 t-inv F
  0.166667  0.333333  0.500000    0.00462963  20 t-inv F
 -0.500000 -0.333333 -0.166667    0.00462963  20 t-inv F
 -0.500000 -0.166667 -0.333333    0.00462963  20 t-inv F
 -0.166667 -0.500000 -0.333333    0.00462963  20 t-inv F
 -0.333333 -0.500000 -0.166667    0.00462963  20 t-inv F
 -0.333333 -0.166667 -0.500000    0.00462963  20 t-inv F
 -0.166667 -0.333333 -0.500000    0.00462963  20 t-inv F
 -0.333333  0.166667  0.333333    0.00462963  21 t-inv F
  0.166667 -0.333333  0.333333    0.00462963  21 t-inv F
  0.333333 -0.333333  0.166667    0.00462963  21 t-inv F
  0.333333  0.166667 -0.333333    0.00462963  21 t-inv F
  0.166667  0.333333 -0.333333    0.00462963  21 t-inv F
  0.333333 -0.333333 -0.166667    0.00462963  21 t-inv F
  0.333333 -0.166667 -0.333333    0.00462963  21 t-inv F
 -0.166667  0.333333 -0.333333    0.00462963  21 t-inv F
 -0.333333  0.333333 -0.166667    0.00462963  21 t-inv F
 -0.333333 -0.166667  0.333333    0.00462963  21 t-inv F
 -0.166667 -0.333333  0.333333    0.00462963  21 t-inv F
 -0.166667  0.166667  0.333333    0.00462963  22 t-inv F
  0.166667 -0.166667  0.333333    0.00462963  22 t-inv F
  0.333333 -0.166667  0.166667    0.00462963  22 t-inv F
  0.333333  0.166667 -0.166667    0.00462963  22 t-inv F
  0.166667  0.333333 -0.166667    0.00462963  22 t-inv F
  0.166667 -0.333333 -0.166667    0.00462963  22 t-inv F
  0.166667 -0.166667 -0.333333    0.00462963  22 t-inv F
 -0.166667  0.166667 -0.333333    0.00462963  22 t-inv F
 -0.333333  0.166667 -0.166667    0.00462963  22 t-inv F
 -0.333333 -0.166667  0.166667    0.00462963  22 t-inv F
 -0.166667 -0.333333  0.166667    0.00462963  22 t-inv F
  0.500000  0.166667  0.500000    0.00462963  23 t-inv F
  0.166667  0.500000  0.500000    0.00462963  23 t-inv F
 -0.500000 -0.500000 -0.166667    0.00462963  23 t-inv F
 -0.500000 -0.166667 -0.500000    0.00462963  23 t-inv F
 -0.166667 -0.500000 -0.500000    0.00462963  23 t-inv F
 -0.333333  0.166667  0.500000    0.00462963  24 t-inv F
  0.166667 -0.333333  0.500000    0.00462963  24 t-inv F
  0.500000 -0.333333  0.166667    0.00462963  24 t-inv F
  0.500000  0.166667 -0.333333    0.00462963  24 t-inv F
  0.166667  0.500000 -0.333333    0.00462963  24 t-inv F
  0.333333 -0.500000 -0.166667    0.00462963  24 t-inv F
  0.333333 -0.166667 -0.500000    0.00462963  24 t-inv F
 -0.166667  0.333333 -0.500000    0.00462963  24 t-inv F
 -0.500000  0.333333 -0.166667    0.00462963  24 t-inv F
 -0.500000 -0.166667  0.333333    0.00462963  24 t-inv F
 -0.166667 -0.500000  0.333333    0.00462963  24 t-inv F
 -0.166667  0.166667  0.500000    0.00462963  25 t-inv F
  0.166667 -0.166667  0.500000    0.00462963  25 t-inv F
  0.500000 -0.166667  0.166667    0.00462963  25 t-inv F
  0.500000  0.166667 -0.166667    0.00462963  25 t-inv F
  0.166667  0.500000 -0.166667    0.00462963  25 t-inv F
 -0.333333  0.166667 -0.333333    0.00462963  26 t-inv F
  0.166667 -0.333333 -0.333333    0.00462963  26 t-inv F
  0.333333  0.333333 -0.166667    0.00462963  26 t-inv F
  0.333333 -0.166667  0.333333    0.00462963  26 t-inv F
 -0.166667  0.333333  0.333333    0.00462963  26 t-inv F
 -0.333333 -0.333333 -0.333333    0.00462963  27 t-inv F
  0.333333  0.500000  0.333333    0.00462963  28 t-inv F
  0.333333  0.333333  0.500000    0.00462963  28 t-inv F
 -0.500000 -0.333333 -0.333333    0.00462963  28 t-inv F
 -0.333333 -0.500000 -0.333333    0.00462963  28 t-inv F
 -0.333333 -0.333333 -0.500000    0.00462963  28 t-inv F
  0.333333 -0.333333  0.333333    0.00462963  29 t-inv F
  0.333333  0.333333 -0.333333    0.00462963  29 t-inv F
  0.333333 -0.333333 -0.333333    0.00462963  29 t-inv F
 -0.333333  0.333333 -0.333333    0.00462963  29 t-inv F
 -0.333333 -0.333333  0.333333    0.00462963  29 t-inv F
  0.500000  0.333333  0.500000    0.00462963  30 t-inv F
  0.333333  0.500000  0.500000    0.00462963  30 t-inv F
 -0.500000 -0.500000 -0.333333    0.00462963  30 t-inv F
 -0.500000 -0.333333 -0.500000    0.00462963  30 t-inv F
 -0.333333 -0.500000 -0.500000    0.00462963  30 t-inv F
 -0.333333  0.333333  0.500000    0.00462963  31 t-inv F
  0.333333 -0.333333  0.500000    0.00462963  31 t-inv F
  0.500000 -0.333333  0.333333    0.00462963  31 t-inv F
  0.500000  0.333333 -0.333333    0.00462963  31 t-inv F
  0.333333  0.500000 -0.333333    0.00462963  31 t-inv F


--------------------------------------------------------------------------------------------------------




 Dimension of arrays:
   k-points           NKPTS =     32   k-points in BZ     NKDIM =     32   number of bands    NBANDS=    192
   number of dos      NEDOS =    301   number of ions     NIONS =     64
   non local maximal  LDIM  =      4   non local SUM 2l+1 LMDIM =      8
   total plane-waves  NPLWV = 110592
   max r-space proj   IRMAX =      1   max aug-charges    IRDMAX=  28440
   dimension x,y,z NGX =    48 NGY =   48 NGZ =   48
   dimension x,y,z NGXF=    96 NGYF=   96 NGZF=   96
   support grid    NGXF=   192 NGYF=  192 NGZF=  192
   ions per type =              64
   NGX,Y,Z   is equivalent  to a cutoff of  11.11, 11.11, 11.11 a.u.
   NGXF,Y,Z  is equivalent  to a cutoff of  22.23, 22.23, 22.23 a.u.

 SYSTEM =  unknown system                          
 POSCAR =  generated by phonopy                    

 Startparameter for this run:
   NWRITE =      2    write-flag & timer
   PREC   = accura    normal or accurate (medium, high low for compatibility)
   ISTART =      0    job   : 0-new  1-cont  2-samecut
   ICHARG =      2    charge: 1-file 2-atom 10-const
   ISPIN  =      1    spin polarized calculation?
   LNONCOLLINEAR =      F non collinear calculations
   LSORBIT =      F    spin-orbit coupling
   INIWAV =      1    electr: 0-lowe 1-rand  2-diag
   LASPH  =      F    aspherical Exc in radial PAW
   METAGGA=      F    non-selfconsistent MetaGGA calc.

 Electronic Relaxation 1
   ENCUT  =  400.0 eV  29.40 Ry    5.42 a.u.  11.71 11.71 11.71*2*pi/ulx,y,z
   ENINI  =  400.0     initial cutoff
   ENAUG  =  644.9 eV  augmentation charge cutoff
   NELM   =     60;   NELMIN=  2; NELMDL= -5     # of ELM steps 
   EDIFF  = 0.1E-07   stopping-criterion for ELM
   LREAL  =      F    real-space projection
   NLSPLINE    = F    spline interpolate recip. space projectors
   LCOMPAT=      F    compatible to vasp.4.4
   GGA_COMPAT  = T    GGA compatible to vasp.4.4-vasp.4.6
   LMAXPAW     = -100 max onsite density
   LMAXMIX     =    2 max onsite mixed and CHGCAR
   VOSKOWN=      0    Vosko Wilk Nusair interpolation
   ROPT   =    0.00000
 Ionic relaxation
   EDIFFG = 0.1E-06   stopping-criterion for IOM
   NSW    =      1    number of steps for IOM
   NBLOCK =      1;   KBLOCK =      1    inner block; outer block 
   IBRION =      8    ionic relax: 0-MD 1-quasi-New 2-CG
   NFREE  =      0    steps in history (QN), initial steepest desc. (CG)
   ISIF   =      2    stress and relaxation
   IWAVPR =     11    prediction:  0-non 1-charg 2-wave 3-comb
   ISYM   =      2    0-nonsym 1-usesym 2-fastsym
   LCORR  =      T    Harris-Foulkes like correction to forces

   POTIM  = 0.5000    time-step for ionic-motion
   TEIN   =    0.0    initial temperature
   TEBEG  =    0.0;   TEEND  =   0.0 temperature during run
   SMASS  =  -3.00    Nose mass-parameter (am)
   estimated Nose-frequenzy (Omega)   =  0.10E-29 period in steps =****** mass=  -0.118E-26a.u.
   SCALEE = 1.0000    scale energy and forces
   NPACO  =    256;   APACO  = 16.0  distance and # of slots for P.C.
   PSTRESS=    0.0 pullay stress

  Mass of Ions in am
   POMASS =  12.01
  Ionic Valenz
   ZVAL   =   4.00
  Atomic Wigner-Seitz radii
   RWIGS  =  -1.00
  virtual crystal weights 
   VCA    =   1.00
   NELECT =     256.0000    total number of electrons
   NUPDOWN=      -1.0000    fix difference up-down

 DOS related values:
   EMIN   =  10.00;   EMAX   =-10.00  energy-range for DOS
   EFERMI =   0.00
   ISMEAR =     0;   SIGMA  =   0.06  broadening in eV -4-tet -1-fermi 0-gaus

 Electronic relaxation 2 (details)
   IALGO  =     38    algorithm
   LDIAG  =      T    sub-space diagonalisation (order eigenvalues)
   LSUBROT=      F    optimize rotation matrix (better conditioning)
   TURBO    =      0    0=normal 1=particle mesh
   IRESTART =      0    0=no restart 2=restart with 2 vectors
   NREBOOT  =      0    no. of reboots
   NMIN     =      0    reboot dimension
   EREF     =   0.00    reference energy to select bands
   IMIX   =      4    mixing-type and parameters
     AMIX     =   0.40;   BMIX     =  1.00
     AMIX_MAG =   1.60;   BMIX_MAG =  1.00
     AMIN     =   0.10
     WC   =   100.;   INIMIX=   1;  MIXPRE=   1;  MAXMIX= -45

 Intra band minimization:
   WEIMIN = 0.0010     energy-eigenvalue tresh-hold
   EBREAK =  0.13E-10  absolut break condition
   DEPER  =   0.30     relativ break condition  

   TIME   =   0.40     timestep for ELM

  volume/ion in A,a.u.               =       5.78        38.98
  Fermi-wavevector in a.u.,A,eV,Ry     =   1.448401  2.737082 28.543205  2.097866
  Thomas-Fermi vector in A             =   2.566246
 
 Write flags
   LWAVE        =      F    write WAVECAR
   LDOWNSAMPLE  =      F    k-point downsampling of WAVECAR
   LCHARG       =      F    write CHGCAR
   LVTOT        =      F    write LOCPOT, total local potential
   LVHAR        =      F    write LOCPOT, Hartree potential only
   LELF         =      F    write electronic localiz. function (ELF)
   LORBIT       =      0    0 simple, 1 ext, 2 COOP (PROOUT), +10 PAW based schemes


 Dipole corrections
   LMONO  =      F    monopole corrections only (constant potential shift)
   LDIPOL =      F    correct potential (dipole corrections)
   IDIPOL =      0    1-x, 2-y, 3-z, 4-all directions 
   EPSILON=  1.0000000 bulk dielectric constant

 Exchange correlation treatment:
   GGA     =    --    GGA type
   LEXCH   =     8    internal setting for exchange type
   VOSKOWN=      0    Vosko Wilk Nusair interpolation
   LHFCALC =     F    Hartree Fock is set to
   LHFONE  =     F    Hartree Fock one center treatment
   AEXX    =    0.0000 exact exchange contribution

 Linear response parameters
   LEPSILON=     F    determine dielectric tensor
   LRPA    =     F    only Hartree local field effects (RPA)
   LNABLA  =     F    use nabla operator in PAW spheres
   LVEL    =     F    velocity operator in full k-point grid
   LINTERFAST=   F  fast interpolation
   KINTER  =     0    interpolate to denser k-point grid
   CSHIFT  =0.1000    complex shift for real part using Kramers Kronig
   OMEGAMAX=  -1.0    maximum frequency
   DEG_THRESHOLD= 0.2000000E-02 threshold for treating states as degnerate
   RTIME   =   -0.100 relaxation time in fs
  (WPLASMAI=    0.000 imaginary part of plasma frequency in eV, 0.658/RTIME)
   DFIELD  = 0.0000000 0.0000000 0.0000000 field for delta impulse in time
 
 Orbital magnetization related:
   ORBITALMAG=     F  switch on orbital magnetization
   LCHIMAG   =     F  perturbation theory with respect to B field
   DQ        =  0.001000  dq finite difference perturbation B field
   LLRAUG    =     F  two centre corrections for induced B field



--------------------------------------------------------------------------------------------------------


 linear response using symmetry
 charge density and potential will be updated during run
 non-spin polarized calculation
 Variant of blocked Davidson
 Davidson routine will perform the subspace rotation
 perform sub-space diagonalisation
    after iterative eigenvector-optimisation
 modified Broyden-mixing scheme, WC =      100.0
 initial mixing is a Kerker type mixing with AMIX =  0.4000 and BMIX =      1.0000
 Hartree-type preconditioning will be used
 using additional bands           64
 reciprocal scheme for non local part
 calculate Harris-corrections to forces 
   (improved forces if not selfconsistent)
 use gradient corrections 
 use of overlap-Matrix (Vanderbilt PP)
 Gauss-broadening in eV      SIGMA  =   0.06


--------------------------------------------------------------------------------------------------------


  energy-cutoff  :      400.00
  volume of cell :      369.66
      direct lattice vectors                 reciprocal lattice vectors
     7.179998718  0.000000000  0.000000000     0.139275791 -0.004180144 -0.004060114
     0.215399359  7.176766050  0.000000000     0.000000000  0.139338526 -0.004060134
     0.215399359  0.209032470  7.173722239     0.000000000  0.000000000  0.139397647

  length of vectors
     7.179998718  7.179997759  7.179998762     0.139397647  0.139397666  0.139397647


 
 k-points in units of 2pi/SCALE and weight: kpt_density=3000                        
   0.00000000  0.00000000  0.00000000       0.005
   0.02321263 -0.00069669 -0.00067669       0.028
   0.04642526 -0.00139338 -0.00135337       0.028
   0.06963790 -0.00209007 -0.00203006       0.014
   0.02321263  0.02252640 -0.00135337       0.028
   0.04642526  0.02182971 -0.00203006       0.056
   0.06963790  0.02113302 -0.00270675       0.056
  -0.04642526  0.02461647  0.00067668       0.056
  -0.02321263  0.02391978 -0.00000000       0.028
   0.04642526  0.04505279 -0.00270675       0.028
   0.06963790  0.04435610 -0.00338344       0.056
  -0.04642526  0.04783956 -0.00000001       0.028
   0.06963790  0.06757919 -0.00406012       0.014
   0.02321263  0.02252640  0.02187957       0.009
   0.04642526  0.02182971  0.02120288       0.028
   0.06963790  0.02113302  0.02052620       0.028
  -0.04642526  0.02461647  0.02390962       0.028
  -0.02321263  0.02391978  0.02323294       0.028
   0.04642526  0.04505279  0.02052619       0.028
   0.06963790  0.04435610  0.01984951       0.056
  -0.04642526  0.04783956  0.02323293       0.056
  -0.02321263  0.04714287  0.02255625       0.056
   0.06963790  0.06757919  0.01917282       0.028
  -0.04642526  0.07106264  0.02255625       0.056
  -0.02321263  0.07036595  0.02187956       0.028
  -0.04642526 -0.04505279  0.02593969       0.028
   0.04642526  0.04505279  0.04375913       0.009
   0.06963790  0.04435610  0.04308245       0.028
  -0.04642526  0.04783956  0.04646588       0.028
   0.06963790  0.06757919  0.04240576       0.028
  -0.04642526  0.07106264  0.04578919       0.028
   0.06963790  0.06757919  0.06563870       0.005
 
 k-points in reciprocal lattice and weights: kpt_density=3000                        
   0.00000000  0.00000000  0.00000000       0.005
   0.16666667  0.00000000  0.00000000       0.028
   0.33333333  0.00000000 -0.00000000       0.028
   0.50000000  0.00000000 -0.00000000       0.014
   0.16666667  0.16666667 -0.00000000       0.028
   0.33333333  0.16666667 -0.00000000       0.056
   0.50000000  0.16666667 -0.00000000       0.056
  -0.33333333  0.16666667 -0.00000000       0.056
  -0.16666667  0.16666667 -0.00000000       0.028
   0.33333333  0.33333333 -0.00000000       0.028
   0.50000000  0.33333333  0.00000000       0.056
  -0.33333333  0.33333333 -0.00000000       0.028
   0.50000000  0.50000000 -0.00000000       0.014
   0.16666667  0.16666667  0.16666667       0.009
   0.33333333  0.16666667  0.16666667       0.028
   0.50000000  0.16666667  0.16666667       0.028
  -0.33333333  0.16666667  0.16666667       0.028
  -0.16666667  0.16666667  0.16666667       0.028
   0.33333333  0.33333333  0.16666667       0.028
   0.50000000  0.33333333  0.16666667       0.056
  -0.33333333  0.33333333  0.16666667       0.056
  -0.16666667  0.33333333  0.16666667       0.056
   0.50000000  0.50000000  0.16666667       0.028
  -0.33333333  0.50000000  0.16666667       0.056
  -0.16666667  0.50000000  0.16666667       0.028
  -0.33333333 -0.33333333  0.16666667       0.028
   0.33333333  0.33333333  0.33333333       0.009
   0.50000000  0.33333333  0.33333333       0.028
  -0.33333333  0.33333333  0.33333333       0.028
   0.50000000  0.50000000  0.33333333       0.028
  -0.33333333  0.50000000  0.33333333       0.028
   0.50000000  0.50000000  0.50000000       0.005
 
 position of ions in fractional coordinates (direct lattice) 
   0.12500000  0.37500000  0.12500000
   0.62500000  0.37500000  0.12500000
   0.12500000  0.87500000  0.12500000
   0.62500000  0.87500000  0.12500000
   0.12500000  0.37500000  0.62500000
   0.62500000  0.37500000  0.62500000
   0.12500000  0.87500000  0.62500000
   0.62500000  0.87500000  0.62500000
   0.00000000  0.00000000  0.25000000
   0.50000000  0.00000000  0.25000000
   0.00000000  0.50000000  0.25000000
   0.50000000  0.50000000  0.25000000
   0.00000000  0.00000000  0.75000000
   0.50000000  0.00000000  0.75000000
   0.00000000  0.50000000  0.75000000
   0.50000000  0.50000000  0.75000000
   0.12500000  0.12500000  0.37500000
   0.62500000  0.12500000  0.37500000
   0.12500000  0.62500000  0.37500000
   0.62500000  0.62500000  0.37500000
   0.12500000  0.12500000  0.87500000
   0.62500000  0.12500000  0.87500000
   0.12500000  0.62500000  0.87500000
   0.62500000  0.62500000  0.87500000
   0.00000000  0.25000000  0.00000000
   0.50000000  0.25000000  0.00000000
   0.00000000  0.75000000  0.00000000
   0.50000000  0.75000000  0.00000000
   0.00000000  0.25000000  0.50000000
   0.50000000  0.25000000  0.50000000
   0.00000000  0.75000000  0.50000000
   0.50000000  0.75000000  0.50000000
   0.37500000  0.37500000  0.37500000
   0.87500000  0.37500000  0.37500000
   0.37500000  0.87500000  0.37500000
   0.87500000  0.87500000  0.37500000
   0.37500000  0.37500000  0.87500000
   0.87500000  0.37500000  0.87500000
   0.37500000  0.87500000  0.87500000
   0.87500000  0.87500000  0.87500000
   0.25000000  0.00000000  0.00000000
   0.75000000  0.00000000  0.00000000
   0.25000000  0.50000000  0.00000000
   0.75000000  0.50000000  0.00000000
   0.25000000  0.00000000  0.50000000
   0.75000000  0.00000000  0.50000000
   0.25000000  0.50000000  0.50000000
   0.75000000  0.50000000  0.50000000
   0.37500000  0.12500000  0.12500000
   0.87500000  0.12500000  0.12500000
   0.37500000  0.62500000  0.12500000
   0.87500000  0.62500000  0.12500000
   0.37500000  0.12500000  0.62500000
   0.87500000  0.12500000  0.62500000
   0.37500000  0.62500000  0.62500000
   0.87500000  0.62500000  0.62500000
   0.25000000  0.25000000  0.25000000
   0.75000000  0.25000000  0.25000000
   0.25000000  0.75000000  0.25000000
   0.75000000  0.75000000  0.25000000
   0.25000000  0.25000000  0.75000000
   0.75000000  0.25000000  0.75000000
   0.25000000  0.75000000  0.75000000
   0.75000000  0.75000000  0.75000000
 
 position of ions in cartesian coordinates  (Angst):
   1.00519952  2.71741633  0.89671528
   4.59519888  2.71741633  0.89671528
   1.11289920  6.30579935  0.89671528
   4.70289856  6.30579935  0.89671528
   1.11289920  2.82193256  4.48357640
   4.70289856  2.82193256  4.48357640
   1.22059888  6.41031559  4.48357640
   4.81059824  6.41031559  4.48357640
   0.05384984  0.05225812  1.79343056
   3.64384920  0.05225812  1.79343056
   0.16154952  3.64064114  1.79343056
   3.75154888  3.64064114  1.79343056
   0.16154952  0.15677435  5.38029168
   3.75154888  0.15677435  5.38029168
   0.26924920  3.74515738  5.38029168
   3.85924856  3.74515738  5.38029168
   1.00519952  0.97548293  2.69014584
   4.59519888  0.97548293  2.69014584
   1.11289920  4.56386596  2.69014584
   4.70289856  4.56386596  2.69014584
   1.11289920  1.07999917  6.27700696
   4.70289856  1.07999917  6.27700696
   1.22059888  4.66838219  6.27700696
   4.81059824  4.66838219  6.27700696
   0.05384984  1.79419151  0.00000000
   3.64384920  1.79419151  0.00000000
   0.16154952  5.38257454  0.00000000
   3.75154888  5.38257454  0.00000000
   0.16154952  1.89870775  3.58686112
   3.75154888  1.89870775  3.58686112
   0.26924920  5.48709077  3.58686112
   3.85924856  5.48709077  3.58686112
   2.85404904  2.76967444  2.69014584
   6.44404840  2.76967444  2.69014584
   2.96174872  6.35805747  2.69014584
   6.55174808  6.35805747  2.69014584
   2.96174872  2.87419068  6.27700696
   6.55174808  2.87419068  6.27700696
   3.06944840  6.46257370  6.27700696
   6.65944776  6.46257370  6.27700696
   1.79499968  0.00000000  0.00000000
   5.38499904  0.00000000  0.00000000
   1.90269936  3.58838302  0.00000000
   5.49269872  3.58838302  0.00000000
   1.90269936  0.10451623  3.58686112
   5.49269872  0.10451623  3.58686112
   2.01039904  3.69289926  3.58686112
   5.60039840  3.69289926  3.58686112
   2.74634936  0.92322481  0.89671528
   6.33634872  0.92322481  0.89671528
   2.85404904  4.51160784  0.89671528
   6.44404840  4.51160784  0.89671528
   2.85404904  1.02774105  4.48357640
   6.44404840  1.02774105  4.48357640
   2.96174872  4.61612407  4.48357640
   6.55174808  4.61612407  4.48357640
   1.90269936  1.84644963  1.79343056
   5.49269872  1.84644963  1.79343056
   2.01039904  5.43483265  1.79343056
   5.60039840  5.43483265  1.79343056
   2.01039904  1.95096586  5.38029168
   5.60039840  1.95096586  5.38029168
   2.11809872  5.53934889  5.38029168
   5.70809808  5.53934889  5.38029168
 


--------------------------------------------------------------------------------------------------------


 k-point  1 :   0.0000 0.0000 0.0000  plane waves:    6757
 k-point  2 :   0.1667 0.0000 0.0000  plane waves:    6725
 k-point  3 :   0.3333 0.0000-0.0000  plane waves:    6720
 k-point  4 :   0.5000 0.0000-0.0000  plane waves:    6718
 k-point  5 :   0.1667 0.1667-0.0000  plane waves:    6714
 k-point  6 :   0.3333 0.1667-0.0000  plane waves:    6733
 k-point  7 :   0.5000 0.1667-0.0000  plane waves:    6726
 k-point  8 :  -0.3333 0.1667-0.0000  plane waves:    6710
 k-point  9 :  -0.1667 0.1667-0.0000  plane waves:    6708
 k-point 10 :   0.3333 0.3333-0.0000  plane waves:    6725
 k-point 11 :   0.5000 0.3333 0.0000  plane waves:    6716
 k-point 12 :  -0.3333 0.3333-0.0000  plane waves:    6710
 k-point 13 :   0.5000 0.5000-0.0000  plane waves:    6714
 k-point 14 :   0.1667 0.1667 0.1667  plane waves:    6707
 k-point 15 :   0.3333 0.1667 0.1667  plane waves:    6719
 k-point 16 :   0.5000 0.1667 0.1667  plane waves:    6733
 k-point 17 :  -0.3333 0.1667 0.1667  plane waves:    6711
 k-point 18 :  -0.1667 0.1667 0.1667  plane waves:    6709
 k-point 19 :   0.3333 0.3333 0.1667  plane waves:    6722
 k-point 20 :   0.5000 0.3333 0.1667  plane waves:    6715
 k-point 21 :  -0.3333 0.3333 0.1667  plane waves:    6702
 k-point 22 :  -0.1667 0.3333 0.1667  plane waves:    6717
 k-point 23 :   0.5000 0.5000 0.1667  plane waves:    6704
 k-point 24 :  -0.3333 0.5000 0.1667  plane waves:    6703
 k-point 25 :  -0.1667 0.5000 0.1667  plane waves:    6724
 k-point 26 :  -0.3333-0.3333 0.1667  plane waves:    6711
 k-point 27 :   0.3333 0.3333 0.3333  plane waves:    6710
 k-point 28 :   0.5000 0.3333 0.3333  plane waves:    6714
 k-point 29 :  -0.3333 0.3333 0.3333  plane waves:    6699
 k-point 30 :   0.5000 0.5000 0.3333  plane waves:    6720
 k-point 31 :  -0.3333 0.5000 0.3333  plane waves:    6716
 k-point 32 :   0.5000 0.5000 0.5000  plane waves:    6728

 maximum and minimum number of plane-waves per node :      6757     6699

 maximum number of plane-waves:      6757
 maximum index in each direction: 
   IXMAX=   12   IYMAX=   12   IZMAX=   11
   IXMIN=  -12   IYMIN=  -12   IZMIN=  -12


 serial   3D FFT for wavefunctions
 parallel 3D FFT for charge:
    minimum data exchange during FFTs selected (reduces bandwidth)


 total amount of memory used by VASP MPI-rank0    83792. kBytes
=======================================================================

   base      :      30000. kBytes
   nonl-proj :      20840. kBytes
   fftplans  :       4537. kBytes
   grid      :       5806. kBytes
   one-center:        196. kBytes
   wavefun   :      22413. kBytes
 
     INWAV:  cpu time    0.0004: real time    0.0006
 Broyden mixing: mesh for mixing (old mesh)
   NGX = 23   NGY = 23   NGZ = 23
  (NGX  = 96   NGY  = 96   NGZ  = 96)
  gives a total of  12167 points

 initial charge density was supplied:
 charge density of overlapping atoms calculated
 number of electron     256.0000000 magnetization 
 keeping initial charge density in first step


--------------------------------------------------------------------------------------------------------


 Maximum index for augmentation-charges         1097 (set IRDMAX)


--------------------------------------------------------------------------------------------------------


 First call to EWALD:  gamma=   0.247
 Maximum number of real-space cells 3x 3x 3
 Maximum number of reciprocal cells 3x 3x 3

    FEWALD:  cpu time    0.0084: real time    0.0084


--------------------------------------- Iteration      1(   1)  ---------------------------------------


    POTLOK:  cpu time    0.0731: real time    0.1572
    SETDIJ:  cpu time    0.0414: real time    0.0416
     EDDAV:  cpu time   22.3290: real time   22.3380
       DOS:  cpu time    0.0074: real time    0.0074
    --------------------------------------------
      LOOP:  cpu time   22.4510: real time   22.5443

 eigenvalue-minimisations  : 12288
 total energy-change (2. order) : 0.5076621E+03  (-0.1135951E+05)
 number of electron     256.0000000 magnetization 
 augmentation part      256.0000000 magnetization 

 Free energy of the ion-electron system (eV)
  ---------------------------------------------------
  alpha Z        PSCENC =       902.84693785
  Ewald energy   TEWEN  =    -11062.13741591
  -Hartree energ DENC   =      -579.07389569
  -exchange      EXHF   =         0.00000000
  -V(xc)+E(xc)   XCENC  =       911.50484707
  PAW double counting   =      2421.21235816    -2494.84305711
  entropy T*S    EENTRO =        -0.01194240
  eigenvalues    EBANDS =       992.02192710
  atomic energy  EATOM  =      9416.14232778
  Solvation  Ediel_sol  =         0.00000000
  ---------------------------------------------------
  free energy    TOTEN  =       507.66208685 eV

  energy without entropy =      507.67402924  energy(sigma->0) =      507.66805804


--------------------------------------------------------------------------------------------------------




--------------------------------------- Iteration      1(   2)  ---------------------------------------


     EDDAV:  cpu time   27.7464: real time   27.7481
       DOS:  cpu time    0.0039: real time    0.0039
    --------------------------------------------
      LOOP:  cpu time   27.7503: real time   27.7520

 eigenvalue-minimisations  : 16224
 total energy-change (2. order) :-0.1065350E+04  (-0.1014591E+04)
 number of electron     256.0000000 magnetization 
 augmentation part      256.0000000 magnetization 

 Free energy of the ion-electron system (eV)
  ---------------------------------------------------
  alpha Z        PSCENC =       902.84693785
  Ewald energy   TEWEN  =    -11062.13741591
  -Hartree energ DENC   =      -579.07389569
  -exchange      EXHF   =         0.00000000
  -V(xc)+E(xc)   XCENC  =       911.50484707
  PAW double counting   =      2421.21235816    -2494.84305711
  entropy T*S    EENTRO =        -0.00000000
  eigenvalues    EBANDS =       -73.33960386
  atomic energy  EATOM  =      9416.14232778
  Solvation  Ediel_sol  =         0.00000000
  ---------------------------------------------------
  free energy    TOTEN  =      -557.68750172 eV

  energy without entropy =     -557.68750172  energy(sigma->0) =     -557.68750172


--------------------------------------------------------------------------------------------------------




--------------------------------------- Iteration      1(   3)  ---------------------------------------


     EDDAV:  cpu time   28.3391: real time   28.3408
       DOS:  cpu time    0.0038: real time    0.0038
    --------------------------------------------
      LOOP:  cpu time   28.3429: real time   28.3446

 eigenvalue-minimisations  : 16352
 total energy-change (2. order) :-0.4157087E+02  (-0.4132199E+02)
 number of electron     256.0000000 magnetization 
 augmentation part      256.0000000 magnetization 

 Free energy of the ion-electron system (eV)
  ---------------------------------------------------
  alpha Z        PSCENC =       902.84693785
  Ewald energy   TEWEN  =    -11062.13741591
  -Hartree energ DENC   =      -579.07389569
  -exchange      EXHF   =         0.00000000
  -V(xc)+E(xc)   XCENC  =       911.50484707
  PAW double counting   =      2421.21235816    -2494.84305711
  entropy T*S    EENTRO =        -0.00000000
  eigenvalues    EBANDS =      -114.91047786
  atomic energy  EATOM  =      9416.14232778
  Solvation  Ediel_sol  =         0.00000000
  ---------------------------------------------------
  free energy    TOTEN  =      -599.25837572 eV

  energy without entropy =     -599.25837572  energy(sigma->0) =     -599.25837572


--------------------------------------------------------------------------------------------------------




--------------------------------------- Iteration      1(   4)  ---------------------------------------


     EDDAV:  cpu time   28.1874: real time   28.1891
       DOS:  cpu time    0.0037: real time    0.0037
    --------------------------------------------
      LOOP:  cpu time   28.1911: real time   28.1928

 eigenvalue-minimisations  : 16192
 total energy-change (2. order) :-0.4572719E+00  (-0.4563066E+00)
 number of electron     256.0000000 magnetization 
 augmentation part      256.0000000 magnetization 

 Free energy of the ion-electron system (eV)
  ---------------------------------------------------
  alpha Z        PSCENC =       902.84693785
  Ewald energy   TEWEN  =    -11062.13741591
  -Hartree energ DENC   =      -579.07389569
  -exchange      EXHF   =         0.00000000
  -V(xc)+E(xc)   XCENC  =       911.50484707
  PAW double counting   =      2421.21235816    -2494.84305711
  entropy T*S    EENTRO =        -0.00000000
  eigenvalues    EBANDS =      -115.36774979
  atomic energy  EATOM  =      9416.14232778
  Solvation  Ediel_sol  =         0.00000000
  ---------------------------------------------------
  free energy    TOTEN  =      -599.71564765 eV

  energy without entropy =     -599.71564765  energy(sigma->0) =     -599.71564765


--------------------------------------------------------------------------------------------------------




--------------------------------------- Iteration      1(   5)  ---------------------------------------


     EDDAV:  cpu time   25.8887: real time   25.8903
       DOS:  cpu time    0.0039: real time    0.0039
    CHARGE:  cpu time    0.6544: real time    0.6547
    MIXING:  cpu time    0.0039: real time    0.0039
    --------------------------------------------
      LOOP:  cpu time   26.5510: real time   26.5529

 eigenvalue-minimisations  : 15328
 total energy-change (2. order) :-0.9849472E-02  (-0.9845102E-02)
 number of electron     255.9999994 magnetization 
 augmentation part        6.2002415 magnetization 

 Broyden mixing:
  rms(total) = 0.26406E+01    rms(broyden)= 0.26401E+01
  rms(prec ) = 0.38619E+01
  weight for this iteration     100.00

 Free energy of the ion-electron system (eV)
  ---------------------------------------------------
  alpha Z        PSCENC =       902.84693785
  Ewald energy   TEWEN  =    -11062.13741591
  -Hartree energ DENC   =      -579.07389569
  -exchange      EXHF   =         0.00000000
  -V(xc)+E(xc)   XCENC  =       911.50484707
  PAW double counting   =      2421.21235816    -2494.84305711
  entropy T*S    EENTRO =        -0.00000000
  eigenvalues    EBANDS =      -115.37759926
  atomic energy  EATOM  =      9416.14232778
  Solvation  Ediel_sol  =         0.00000000
  ---------------------------------------------------
  free energy    TOTEN  =      -599.72549712 eV

  energy without entropy =     -599.72549712  energy(sigma->0) =     -599.72549712


--------------------------------------------------------------------------------------------------------




--------------------------------------- Iteration      1(   6)  ---------------------------------------


    POTLOK:  cpu time    0.0677: real time    0.0682
    SETDIJ:  cpu time    0.0399: real time    0.0399
     EDDAV:  cpu time   25.4371: real time   25.4385
       DOS:  cpu time    0.0037: real time    0.0038
    CHARGE:  cpu time    0.6475: real time    0.6475
    MIXING:  cpu time    0.0047: real time    0.0047
    --------------------------------------------
      LOOP:  cpu time   26.2008: real time   26.2025

 eigenvalue-minimisations  : 14464
 total energy-change (2. order) : 0.1457489E+02  (-0.9727446E+00)
 number of electron     255.9999994 magnetization 
 augmentation part        6.0576268 magnetization 

 Broyden mixing:
  rms(total) = 0.14511E+01    rms(broyden)= 0.14510E+01
  rms(prec ) = 0.21020E+01
  weight for this iteration     100.00

 eigenvalues of (default mixing * dielectric matrix)
  average eigenvalue GAMMA=   2.1724
  2.1724

 Free energy of the ion-electron system (eV)
  ---------------------------------------------------
  alpha Z        PSCENC =       902.84693785
  Ewald energy   TEWEN  =    -11062.13741591
  -Hartree energ DENC   =      -699.23055977
  -exchange      EXHF   =         0.00000000
  -V(xc)+E(xc)   XCENC  =       922.70121490
  PAW double counting   =      3127.83590142    -3205.63823707
  entropy T*S    EENTRO =        -0.00000000
  eigenvalues    EBANDS =        12.32922165
  atomic energy  EATOM  =      9416.14232778
  Solvation  Ediel_sol  =         0.00000000
  ---------------------------------------------------
  free energy    TOTEN  =      -585.15060915 eV

  energy without entropy =     -585.15060915  energy(sigma->0) =     -585.15060915


--------------------------------------------------------------------------------------------------------




--------------------------------------- Iteration      1(   7)  ---------------------------------------


    POTLOK:  cpu time    0.0661: real time    0.0665
    SETDIJ:  cpu time    0.0440: real time    0.0440
     EDDAV:  cpu time   26.2747: real time   26.2760
       DOS:  cpu time    0.0037: real time    0.0037
    CHARGE:  cpu time    0.6516: real time    0.6516
    MIXING:  cpu time    0.0101: real time    0.0101
    --------------------------------------------
      LOOP:  cpu time   27.0502: real time   27.0519

 eigenvalue-minimisations  : 15200
 total energy-change (2. order) : 0.4911063E+01  (-0.1124552E+01)
 number of electron     255.9999994 magnetization 
 augmentation part        5.9076967 magnetization 

 Broyden mixing:
  rms(total) = 0.19637E+00    rms(broyden)= 0.19542E+00
  rms(prec ) = 0.24085E+00
  weight for this iteration     100.00

 eigenvalues of (default mixing * dielectric matrix)
  average eigenvalue GAMMA=   2.2748
  2.0269  2.5226

 Free energy of the ion-electron system (eV)
  ---------------------------------------------------
  alpha Z        PSCENC =       902.84693785
  Ewald energy   TEWEN  =    -11062.13741591
  -Hartree energ DENC   =      -853.05094357
  -exchange      EXHF   =         0.00000000
  -V(xc)+E(xc)   XCENC  =       937.21376633
  PAW double counting   =      4088.57796656    -4170.34570561
  entropy T*S    EENTRO =        -0.00000000
  eigenvalues    EBANDS =       160.51352033
  atomic energy  EATOM  =      9416.14232778
  Solvation  Ediel_sol  =         0.00000000
  ---------------------------------------------------
  free energy    TOTEN  =      -580.23954623 eV

  energy without entropy =     -580.23954623  energy(sigma->0) =     -580.23954623


--------------------------------------------------------------------------------------------------------




--------------------------------------- Iteration      1(   8)  ---------------------------------------


    POTLOK:  cpu time    0.0640: real time    0.0643
    SETDIJ:  cpu time    0.0394: real time    0.0394
     EDDAV:  cpu time   26.1178: real time   26.1191
       DOS:  cpu time    0.0040: real time    0.0040
    CHARGE:  cpu time    0.6475: real time    0.6475
    MIXING:  cpu time    0.0047: real time    0.0047
    --------------------------------------------
      LOOP:  cpu time   26.8774: real time   26.8791

 eigenvalue-minimisations  : 15360
 total energy-change (2. order) :-0.6178682E-01  (-0.2909003E-01)
 number of electron     255.9999994 magnetization 
 augmentation part        5.9158233 magnetization 

 Broyden mixing:
  rms(total) = 0.21565E-01    rms(broyden)= 0.21273E-01
  rms(prec ) = 0.26200E-01
  weight for this iteration     100.00

 eigenvalues of (default mixing * dielectric matrix)
  average eigenvalue GAMMA=   2.0871
  1.4599  2.6715  2.1300

 Free energy of the ion-electron system (eV)
  ---------------------------------------------------
  alpha Z        PSCENC =       902.84693785
  Ewald energy   TEWEN  =    -11062.13741591
  -Hartree energ DENC   =      -855.64105597
  -exchange      EXHF   =         0.00000000
  -V(xc)+E(xc)   XCENC  =       937.49167228
  PAW double counting   =      4152.70898692    -4233.42328902
  entropy T*S    EENTRO =        -0.00000000
  eigenvalues    EBANDS =       161.71050301
  atomic energy  EATOM  =      9416.14232778
  Solvation  Ediel_sol  =         0.00000000
  ---------------------------------------------------
  free energy    TOTEN  =      -580.30133306 eV

  energy without entropy =     -580.30133306  energy(sigma->0) =     -580.30133306


--------------------------------------------------------------------------------------------------------




--------------------------------------- Iteration      1(   9)  ---------------------------------------


    POTLOK:  cpu time    0.0602: real time    0.0605
    SETDIJ:  cpu time    0.0459: real time    0.0459
     EDDAV:  cpu time   27.6422: real time   27.6436
       DOS:  cpu time    0.0056: real time    0.0056
    CHARGE:  cpu time    0.6480: real time    0.6481
    MIXING:  cpu time    0.0048: real time    0.0048
    --------------------------------------------
      LOOP:  cpu time   28.4068: real time   28.4085

 eigenvalue-minimisations  : 16000
 total energy-change (2. order) :-0.2260963E-02  (-0.4016703E-03)
 number of electron     255.9999994 magnetization 
 augmentation part        5.9146426 magnetization 

 Broyden mixing:
  rms(total) = 0.87732E-02    rms(broyden)= 0.87510E-02
  rms(prec ) = 0.11007E-01
  weight for this iteration     100.00

 eigenvalues of (default mixing * dielectric matrix)
  average eigenvalue GAMMA=   2.0004
  0.9467  2.7071  2.3786  1.9691

 Free energy of the ion-electron system (eV)
  ---------------------------------------------------
  alpha Z        PSCENC =       902.84693785
  Ewald energy   TEWEN  =    -11062.13741591
  -Hartree energ DENC   =      -855.44667705
  -exchange      EXHF   =         0.00000000
  -V(xc)+E(xc)   XCENC  =       937.47241807
  PAW double counting   =      4149.97353579    -4230.60019471
  entropy T*S    EENTRO =        -0.00000000
  eigenvalues    EBANDS =       161.44547417
  atomic energy  EATOM  =      9416.14232778
  Solvation  Ediel_sol  =         0.00000000
  ---------------------------------------------------
  free energy    TOTEN  =      -580.30359402 eV

  energy without entropy =     -580.30359402  energy(sigma->0) =     -580.30359402


--------------------------------------------------------------------------------------------------------




--------------------------------------- Iteration      1(  10)  ---------------------------------------


    POTLOK:  cpu time    0.0581: real time    0.0585
    SETDIJ:  cpu time    0.0402: real time    0.0402
     EDDAV:  cpu time   25.2762: real time   25.2774
       DOS:  cpu time    0.0036: real time    0.0036
    CHARGE:  cpu time    0.6518: real time    0.6519
    MIXING:  cpu time    0.0052: real time    0.0052
    --------------------------------------------
      LOOP:  cpu time   26.0351: real time   26.0368

 eigenvalue-minimisations  : 14784
 total energy-change (2. order) :-0.4814621E-03  (-0.3733205E-04)
 number of electron     255.9999994 magnetization 
 augmentation part        5.9144047 magnetization 

 Broyden mixing:
  rms(total) = 0.10144E-02    rms(broyden)= 0.10016E-02
  rms(prec ) = 0.14412E-02
  weight for this iteration     100.00

 eigenvalues of (default mixing * dielectric matrix)
  average eigenvalue GAMMA=   1.9471
  2.9123  2.5414  2.0564  0.9879  1.2374

 Free energy of the ion-electron system (eV)
  ---------------------------------------------------
  alpha Z        PSCENC =       902.84693785
  Ewald energy   TEWEN  =    -11062.13741591
  -Hartree energ DENC   =      -855.82654479
  -exchange      EXHF   =         0.00000000
  -V(xc)+E(xc)   XCENC  =       937.50528468
  PAW double counting   =      4146.68100764    -4227.31834976
  entropy T*S    EENTRO =        -0.00000000
  eigenvalues    EBANDS =       161.80267703
  atomic energy  EATOM  =      9416.14232778
  Solvation  Ediel_sol  =         0.00000000
  ---------------------------------------------------
  free energy    TOTEN  =      -580.30407548 eV

  energy without entropy =     -580.30407548  energy(sigma->0) =     -580.30407548


--------------------------------------------------------------------------------------------------------




--------------------------------------- Iteration      1(  11)  ---------------------------------------


    POTLOK:  cpu time    0.0714: real time    0.0718
    SETDIJ:  cpu time    0.0398: real time    0.0398
     EDDAV:  cpu time   27.9857: real time   27.9871
       DOS:  cpu time    0.0037: real time    0.0037
    CHARGE:  cpu time    0.6476: real time    0.6476
    MIXING:  cpu time    0.0103: real time    0.0103
    --------------------------------------------
      LOOP:  cpu time   28.7585: real time   28.7603

 eigenvalue-minimisations  : 16128
 total energy-change (2. order) :-0.1323979E-04  (-0.1465271E-05)
 number of electron     255.9999994 magnetization 
 augmentation part        5.9142396 magnetization 

 Broyden mixing:
  rms(total) = 0.31231E-03    rms(broyden)= 0.30833E-03
  rms(prec ) = 0.37939E-03
  weight for this iteration     100.00

 eigenvalues of (default mixing * dielectric matrix)
  average eigenvalue GAMMA=   1.9899
  2.9079  2.4944  2.4944  2.0394  0.9835  1.0198

 Free energy of the ion-electron system (eV)
  ---------------------------------------------------
  alpha Z        PSCENC =       902.84693785
  Ewald energy   TEWEN  =    -11062.13741591
  -Hartree energ DENC   =      -855.94926937
  -exchange      EXHF   =         0.00000000
  -V(xc)+E(xc)   XCENC  =       937.51646371
  PAW double counting   =      4146.70796678    -4227.34944709
  entropy T*S    EENTRO =        -0.00000000
  eigenvalues    EBANDS =       161.91834753
  atomic energy  EATOM  =      9416.14232778
  Solvation  Ediel_sol  =         0.00000000
  ---------------------------------------------------
  free energy    TOTEN  =      -580.30408872 eV

  energy without entropy =     -580.30408872  energy(sigma->0) =     -580.30408872


--------------------------------------------------------------------------------------------------------




--------------------------------------- Iteration      1(  12)  ---------------------------------------


    POTLOK:  cpu time    0.0578: real time    0.0582
    SETDIJ:  cpu time    0.0397: real time    0.0397
     EDDAV:  cpu time   27.3482: real time   27.3495
       DOS:  cpu time    0.0044: real time    0.0044
    CHARGE:  cpu time    0.6500: real time    0.6500
    MIXING:  cpu time    0.0052: real time    0.0052
    --------------------------------------------
      LOOP:  cpu time   28.1053: real time   28.1071

 eigenvalue-minimisations  : 15712
 total energy-change (2. order) :-0.2185006E-06  (-0.4528624E-07)
 number of electron     255.9999994 magnetization 
 augmentation part        5.9142503 magnetization 

 Broyden mixing:
  rms(total) = 0.38192E-04    rms(broyden)= 0.34308E-04
  rms(prec ) = 0.43318E-04
  weight for this iteration     100.00
  WARNING: grid for Broyden might be to small

 eigenvalues of (default mixing * dielectric matrix)
  average eigenvalue GAMMA=   1.9280
  2.8716  2.5276  2.4157  2.0392  1.0032  1.0032  1.6352

 Free energy of the ion-electron system (eV)
  ---------------------------------------------------
  alpha Z        PSCENC =       902.84693785
  Ewald energy   TEWEN  =    -11062.13741591
  -Hartree energ DENC   =      -855.93625087
  -exchange      EXHF   =         0.00000000
  -V(xc)+E(xc)   XCENC  =       937.51524624
  PAW double counting   =      4146.74997613    -4227.38999989
  entropy T*S    EENTRO =        -0.00000000
  eigenvalues    EBANDS =       161.90508973
  atomic energy  EATOM  =      9416.14232778
  Solvation  Ediel_sol  =         0.00000000
  ---------------------------------------------------
  free energy    TOTEN  =      -580.30408894 eV

  energy without entropy =     -580.30408894  energy(sigma->0) =     -580.30408894


--------------------------------------------------------------------------------------------------------




--------------------------------------- Iteration      1(  13)  ---------------------------------------


    POTLOK:  cpu time    0.0658: real time    0.0699
    SETDIJ:  cpu time    0.0400: real time    0.0400
     EDDAV:  cpu time   23.5013: real time   23.5024
       DOS:  cpu time    0.0040: real time    0.0040
    CHARGE:  cpu time    0.6561: real time    0.6562
    MIXING:  cpu time    0.0053: real time    0.0053
    --------------------------------------------
      LOOP:  cpu time   24.2725: real time   24.2778

 eigenvalue-minimisations  : 11904
 total energy-change (2. order) :-0.4972571E-07  (-0.8479013E-09)
 number of electron     255.9999994 magnetization 
 augmentation part        5.9142482 magnetization 

 Broyden mixing:
  rms(total) = 0.19445E-04    rms(broyden)= 0.12281E-04
  rms(prec ) = 0.15367E-04
  weight for this iteration     100.00
  WARNING: grid for Broyden might be to small

 eigenvalues of (default mixing * dielectric matrix)
  average eigenvalue GAMMA=   1.9290
  2.9573  2.6090  2.3912  2.3912  2.0341  0.9954  0.9954  1.0584

 Free energy of the ion-electron system (eV)
  ---------------------------------------------------
  alpha Z        PSCENC =       902.84693785
  Ewald energy   TEWEN  =    -11062.13741591
  -Hartree energ DENC   =      -855.93454414
  -exchange      EXHF   =         0.00000000
  -V(xc)+E(xc)   XCENC  =       937.51509056
  PAW double counting   =      4146.75104966    -4227.39099545
  entropy T*S    EENTRO =        -0.00000000
  eigenvalues    EBANDS =       161.90346067
  atomic energy  EATOM  =      9416.14232778
  Solvation  Ediel_sol  =         0.00000000
  ---------------------------------------------------
  free energy    TOTEN  =      -580.30408899 eV

  energy without entropy =     -580.30408899  energy(sigma->0) =     -580.30408899


--------------------------------------------------------------------------------------------------------




--------------------------------------- Iteration      1(  14)  ---------------------------------------


    POTLOK:  cpu time    0.0599: real time    0.0602
    SETDIJ:  cpu time    0.0403: real time    0.0403
     EDDAV:  cpu time   21.7344: real time   21.7355
       DOS:  cpu time    0.0039: real time    0.0039
    CHARGE:  cpu time    0.6499: real time    0.6499
    MIXING:  cpu time    0.0059: real time    0.0059
    --------------------------------------------
      LOOP:  cpu time   22.4943: real time   22.4957

 eigenvalue-minimisations  : 10912
 total energy-change (2. order) :-0.3909008E-07  (-0.2710685E-09)
 number of electron     255.9999994 magnetization 
 augmentation part        5.9142486 magnetization 

 Broyden mixing:
  rms(total) = 0.15153E-04    rms(broyden)= 0.21389E-05
  rms(prec ) = 0.27809E-05
  weight for this iteration     100.00
  WARNING: grid for Broyden might be to small

 eigenvalues of (default mixing * dielectric matrix)
  average eigenvalue GAMMA=   1.8688
  2.9387  2.6199  2.4661  2.1943  2.0686  1.0029  1.0029  0.9706  1.5554

 Free energy of the ion-electron system (eV)
  ---------------------------------------------------
  alpha Z        PSCENC =       902.84693785
  Ewald energy   TEWEN  =    -11062.13741591
  -Hartree energ DENC   =      -855.93423277
  -exchange      EXHF   =         0.00000000
  -V(xc)+E(xc)   XCENC  =       937.51506403
  PAW double counting   =      4146.75132951    -4227.39119938
  entropy T*S    EENTRO =        -0.00000000
  eigenvalues    EBANDS =       161.90309985
  atomic energy  EATOM  =      9416.14232778
  Solvation  Ediel_sol  =         0.00000000
  ---------------------------------------------------
  free energy    TOTEN  =      -580.30408903 eV

  energy without entropy =     -580.30408903  energy(sigma->0) =     -580.30408903


--------------------------------------------------------------------------------------------------------




--------------------------------------- Iteration      1(  15)  ---------------------------------------


    POTLOK:  cpu time    0.0839: real time    0.0843
    SETDIJ:  cpu time    0.0422: real time    0.0422
     EDDAV:  cpu time   19.3402: real time   19.3412
       DOS:  cpu time    0.0056: real time    0.0056
    --------------------------------------------
      LOOP:  cpu time   19.4720: real time   19.4733

 eigenvalue-minimisations  :  9568
 total energy-change (2. order) :-0.1615263E-08  (-0.3722196E-10)
 number of electron     255.9999994 magnetization 
 augmentation part        5.9142486 magnetization 

 Free energy of the ion-electron system (eV)
  ---------------------------------------------------
  alpha Z        PSCENC =       902.84693785
  Ewald energy   TEWEN  =    -11062.13741591
  -Hartree energ DENC   =      -855.93447100
  -exchange      EXHF   =         0.00000000
  -V(xc)+E(xc)   XCENC  =       937.51508630
  PAW double counting   =      4146.75267474    -4227.39256254
  entropy T*S    EENTRO =        -0.00000000
  eigenvalues    EBANDS =       161.90333375
  atomic energy  EATOM  =      9416.14232778
  Solvation  Ediel_sol  =         0.00000000
  ---------------------------------------------------
  free energy    TOTEN  =      -580.30408903 eV

  energy without entropy =     -580.30408903  energy(sigma->0) =     -580.30408903


--------------------------------------------------------------------------------------------------------




 average (electrostatic) potential at core
  the test charge radii are     0.6991
  (the norm of the test charge is              1.0000)
       1 -45.6409       2 -45.6409       3 -45.6409       4 -45.6409       5 -45.6409
       6 -45.6409       7 -45.6409       8 -45.6409       9 -45.6409      10 -45.6409
      11 -45.6409      12 -45.6409      13 -45.6409      14 -45.6409      15 -45.6409
      16 -45.6409      17 -45.6409      18 -45.6409      19 -45.6409      20 -45.6409
      21 -45.6409      22 -45.6409      23 -45.6409      24 -45.6409      25 -45.6409
      26 -45.6409      27 -45.6409      28 -45.6409      29 -45.6409      30 -45.6409
      31 -45.6409      32 -45.6409      33 -45.6409      34 -45.6409      35 -45.6409
      36 -45.6409      37 -45.6409      38 -45.6409      39 -45.6409      40 -45.6409
      41 -45.6409      42 -45.6409      43 -45.6409      44 -45.6409      45 -45.6409
      46 -45.6409      47 -45.6409      48 -45.6409      49 -45.6409      50 -45.6409
      51 -45.6409      52 -45.6409      53 -45.6409      54 -45.6409      55 -45.6409
      56 -45.6409      57 -45.6409      58 -45.6409      59 -45.6409      60 -45.6409
      61 -45.6409      62 -45.6409      63 -45.6409      64 -45.6409
 
 
 
 E-fermi :   9.8714     XC(G=0): -13.1323     alpha+bet :-17.3809


 k-point     1 :       0.0000    0.0000    0.0000
  band No.  band energies     occupation 
      1     -11.7502      2.00000
      2      -9.4948      2.00000
      3      -9.4948      2.00000
      4      -9.4948      2.00000
      5      -9.4948      2.00000
      6      -9.4948      2.00000
      7      -9.4948      2.00000
      8      -7.5008      2.00000
      9      -7.5008      2.00000
     10      -7.5008      2.00000
     11      -7.5008      2.00000
     12      -7.5008      2.00000
     13      -7.5008      2.00000
     14      -7.1903      2.00000
     15      -7.1903      2.00000
     16      -7.1903      2.00000
     17      -7.1903      2.00000
     18      -7.1903      2.00000
     19      -7.1903      2.00000
     20      -6.6849      2.00000
     21      -5.8707      2.00000
     22      -5.8707      2.00000
     23      -5.8707      2.00000
     24      -3.7012      2.00000
     25      -3.7012      2.00000
     26      -3.7012      2.00000
     27      -3.6305      2.00000
     28      -3.3114      2.00000
     29      -3.3114      2.00000
     30      -3.3114      2.00000
     31      -2.9972      2.00000
     32      -2.9972      2.00000
     33      -2.9972      2.00000
     34      -2.7660      2.00000
     35      -2.7660      2.00000
     36      -2.7660      2.00000
     37      -2.7660      2.00000
     38      -2.7660      2.00000
     39      -2.7660      2.00000
     40      -2.0069      2.00000
     41      -2.0069      2.00000
     42      -2.0069      2.00000
     43      -2.0069      2.00000
     44      -2.0069      2.00000
     45      -2.0069      2.00000
     46       0.7928      2.00000
     47       0.7928      2.00000
     48       0.7928      2.00000
     49       0.7928      2.00000
     50       0.7928      2.00000
     51       0.7928      2.00000
     52       0.9100      2.00000
     53       0.9100      2.00000
     54       0.9100      2.00000
     55       0.9100      2.00000
     56       0.9100      2.00000
     57       0.9100      2.00000
     58       1.3303      2.00000
     59       1.3303      2.00000
     60       1.3303      2.00000
     61       1.3303      2.00000
     62       1.3303      2.00000
     63       1.3303      2.00000
     64       1.3448      2.00000
     65       1.3448      2.00000
     66       1.3448      2.00000
     67       1.3448      2.00000
     68       1.3448      2.00000
     69       1.3448      2.00000
     70       1.9965      2.00000
     71       1.9965      2.00000
     72       1.9965      2.00000
     73       1.9965      2.00000
     74       1.9965      2.00000
     75       1.9965      2.00000
[...]
      4.702899  1.079999  6.277007    -0.108634   -0.105423   -0.020583  
      1.220599  4.668382  6.277007    -0.108634   -0.105423   -0.020583  
      4.810598  4.668382  6.277007    -0.108634   -0.105423   -0.020583  
      0.053850  1.794192  0.000000    -0.116509   -0.113065   -0.020854  
      3.643849  1.794192  0.000000    -0.116509   -0.113065   -0.020854  
      0.161550  5.382575  0.000000    -0.116509   -0.113065   -0.020854  
      3.751549  5.382575  0.000000    -0.116509   -0.113065   -0.020854  
      0.161550  1.898708  3.586861     0.116509    0.113065    0.020854  
      3.751549  1.898708  3.586861     0.116509    0.113065    0.020854  
      0.269249  5.487091  3.586861     0.116509    0.113065    0.020854  
      3.859249  5.487091  3.586861     0.116509    0.113065    0.020854  
      2.854049  2.769674  2.690146     0.108634    0.105423    0.020583  
      6.444048  2.769674  2.690146     0.108634    0.105423    0.020583  
      2.961749  6.358057  2.690146     0.108634    0.105423    0.020583  
      6.551748  6.358057  2.690146     0.108634    0.105423    0.020583  
      2.961749  2.874191  6.277007    -0.108634   -0.105423   -0.020583  
      6.551748  2.874191  6.277007    -0.108634   -0.105423   -0.020583  
      3.069448  6.462574  6.277007    -0.108634   -0.105423   -0.020583  
      6.659448  6.462574  6.277007    -0.108634   -0.105423   -0.020583  
      1.795000  0.000000  0.000000    -0.116509   -0.113065   -0.020854  
      5.384999  0.000000  0.000000    -0.116509   -0.113065   -0.020854  
      1.902699  3.588383  0.000000    -0.116509   -0.113065   -0.020854  
      5.492699  3.588383  0.000000    -0.116509   -0.113065   -0.020854  
      1.902699  0.104516  3.586861     0.116509    0.113065    0.020854  
      5.492699  0.104516  3.586861     0.116509    0.113065    0.020854  
      2.010399  3.692899  3.586861     0.116509    0.113065    0.020854  
      5.600398  3.692899  3.586861     0.116509    0.113065    0.020854  
      2.746349  0.923225  0.896715    -0.063782   -0.061897   -0.003387  
      6.336349  0.923225  0.896715    -0.063782   -0.061897   -0.003387  
      2.854049  4.511608  0.896715    -0.063782   -0.061897   -0.003387  
      6.444048  4.511608  0.896715    -0.063782   -0.061897   -0.003387  
      2.854049  1.027741  4.483576     0.063782    0.061897    0.003387  
      6.444048  1.027741  4.483576     0.063782    0.061897    0.003387  
      2.961749  4.616124  4.483576     0.063782    0.061897    0.003387  
      6.551748  4.616124  4.483576     0.063782    0.061897    0.003387  
      1.902699  1.846450  1.793431     0.047908    0.046492    0.000465  
      5.492699  1.846450  1.793431     0.047908    0.046492    0.000465  
      2.010399  5.434833  1.793431     0.047908    0.046492    0.000465  
      5.600398  5.434833  1.793431     0.047908    0.046492    0.000465  
      2.010399  1.950966  5.380292    -0.047908   -0.046492   -0.000465  
      5.600398  1.950966  5.380292    -0.047908   -0.046492   -0.000465  
      2.118099  5.539349  5.380292    -0.047908   -0.046492   -0.000465  
      5.708098  5.539349  5.380292    -0.047908   -0.046492   -0.000465  
 
 190 f  =    0.000001 THz     0.000007 2PiTHz    0.000039 cm-1     0.000005 meV
             X         Y         Z           dx          dy          dz
      1.005200  2.717416  0.896715     0.028434    0.056604    0.107761  
      4.595199  2.717416  0.896715     0.028434    0.056604    0.107761  
      1.112899  6.305799  0.896715     0.028434    0.056604    0.107761  
      4.702899  6.305799  0.896715     0.028434    0.056604    0.107761  
      1.112899  2.821933  4.483576     0.028434    0.056604    0.107761  
      4.702899  2.821933  4.483576     0.028434    0.056604    0.107761  
      1.220599  6.410316  4.483576     0.028434    0.056604    0.107761  
      4.810598  6.410316  4.483576     0.028434    0.056604    0.107761  
      0.053850  0.052258  1.793431     0.028434    0.056604    0.107761  
      3.643849  0.052258  1.793431     0.028434    0.056604    0.107761  
      0.161550  3.640641  1.793431     0.028434    0.056604    0.107761  
      3.751549  3.640641  1.793431     0.028434    0.056604    0.107761  
      0.161550  0.156774  5.380292     0.028434    0.056604    0.107761  
      3.751549  0.156774  5.380292     0.028434    0.056604    0.107761  
      0.269249  3.745157  5.380292     0.028434    0.056604    0.107761  
      3.859249  3.745157  5.380292     0.028434    0.056604    0.107761  
      1.005200  0.975483  2.690146     0.028434    0.056604    0.107761  
      4.595199  0.975483  2.690146     0.028434    0.056604    0.107761  
      1.112899  4.563866  2.690146     0.028434    0.056604    0.107761  
      4.702899  4.563866  2.690146     0.028434    0.056604    0.107761  
      1.112899  1.079999  6.277007     0.028434    0.056604    0.107761  
      4.702899  1.079999  6.277007     0.028434    0.056604    0.107761  
      1.220599  4.668382  6.277007     0.028434    0.056604    0.107761  
      4.810598  4.668382  6.277007     0.028434    0.056604    0.107761  
      0.053850  1.794192  0.000000     0.028434    0.056604    0.107761  
      3.643849  1.794192  0.000000     0.028434    0.056604    0.107761  
      0.161550  5.382575  0.000000     0.028434    0.056604    0.107761  
      3.751549  5.382575  0.000000     0.028434    0.056604    0.107761  
      0.161550  1.898708  3.586861     0.028434    0.056604    0.107761  
      3.751549  1.898708  3.586861     0.028434    0.056604    0.107761  
      0.269249  5.487091  3.586861     0.028434    0.056604    0.107761  
      3.859249  5.487091  3.586861     0.028434    0.056604    0.107761  
      2.854049  2.769674  2.690146     0.028434    0.056604    0.107761  
      6.444048  2.769674  2.690146     0.028434    0.056604    0.107761  
      2.961749  6.358057  2.690146     0.028434    0.056604    0.107761  
      6.551748  6.358057  2.690146     0.028434    0.056604    0.107761  
      2.961749  2.874191  6.277007     0.028434    0.056604    0.107761  
      6.551748  2.874191  6.277007     0.028434    0.056604    0.107761  
      3.069448  6.462574  6.277007     0.028434    0.056604    0.107761  
      6.659448  6.462574  6.277007     0.028434    0.056604    0.107761  
      1.795000  0.000000  0.000000     0.028434    0.056604    0.107761  
      5.384999  0.000000  0.000000     0.028434    0.056604    0.107761  
      1.902699  3.588383  0.000000     0.028434    0.056604    0.107761  
      5.492699  3.588383  0.000000     0.028434    0.056604    0.107761  
      1.902699  0.104516  3.586861     0.028434    0.056604    0.107761  
      5.492699  0.104516  3.586861     0.028434    0.056604    0.107761  
      2.010399  3.692899  3.586861     0.028434    0.056604    0.107761  
      5.600398  3.692899  3.586861     0.028434    0.056604    0.107761  
      2.746349  0.923225  0.896715     0.028434    0.056604    0.107761  
      6.336349  0.923225  0.896715     0.028434    0.056604    0.107761  
      2.854049  4.511608  0.896715     0.028434    0.056604    0.107761  
      6.444048  4.511608  0.896715     0.028434    0.056604    0.107761  
      2.854049  1.027741  4.483576     0.028434    0.056604    0.107761  
      6.444048  1.027741  4.483576     0.028434    0.056604    0.107761  
      2.961749  4.616124  4.483576     0.028434    0.056604    0.107761  
      6.551748  4.616124  4.483576     0.028434    0.056604    0.107761  
      1.902699  1.846450  1.793431     0.028434    0.056604    0.107761  
      5.492699  1.846450  1.793431     0.028434    0.056604    0.107761  
      2.010399  5.434833  1.793431     0.028434    0.056604    0.107761  
      5.600398  5.434833  1.793431     0.028434    0.056604    0.107761  
      2.010399  1.950966  5.380292     0.028434    0.056604    0.107761  
      5.600398  1.950966  5.380292     0.028434    0.056604    0.107761  
      2.118099  5.539349  5.380292     0.028434    0.056604    0.107761  
      5.708098  5.539349  5.380292     0.028434    0.056604    0.107761  
 
 191 f  =    0.000001 THz     0.000006 2PiTHz    0.000032 cm-1     0.000004 meV
             X         Y         Z           dx          dy          dz
      1.005200  2.717416  0.896715     0.103652   -0.069278    0.009040  
      4.595199  2.717416  0.896715     0.103652   -0.069278    0.009040  
      1.112899  6.305799  0.896715     0.103652   -0.069278    0.009040  
      4.702899  6.305799  0.896715     0.103652   -0.069278    0.009040  
      1.112899  2.821933  4.483576     0.103652   -0.069278    0.009040  
      4.702899  2.821933  4.483576     0.103652   -0.069278    0.009040  
      1.220599  6.410316  4.483576     0.103652   -0.069278    0.009040  
      4.810598  6.410316  4.483576     0.103652   -0.069278    0.009040  
      0.053850  0.052258  1.793431     0.103652   -0.069278    0.009040  
      3.643849  0.052258  1.793431     0.103652   -0.069278    0.009040  
      0.161550  3.640641  1.793431     0.103652   -0.069278    0.009040  
      3.751549  3.640641  1.793431     0.103652   -0.069278    0.009040  
      0.161550  0.156774  5.380292     0.103652   -0.069278    0.009040  
      3.751549  0.156774  5.380292     0.103652   -0.069278    0.009040  
      0.269249  3.745157  5.380292     0.103652   -0.069278    0.009040  
      3.859249  3.745157  5.380292     0.103652   -0.069278    0.009040  
      1.005200  0.975483  2.690146     0.103652   -0.069278    0.009040  
      4.595199  0.975483  2.690146     0.103652   -0.069278    0.009040  
      1.112899  4.563866  2.690146     0.103652   -0.069278    0.009040  
      4.702899  4.563866  2.690146     0.103652   -0.069278    0.009040  
      1.112899  1.079999  6.277007     0.103652   -0.069278    0.009040  
      4.702899  1.079999  6.277007     0.103652   -0.069278    0.009040  
      1.220599  4.668382  6.277007     0.103652   -0.069278    0.009040  
      4.810598  4.668382  6.277007     0.103652   -0.069278    0.009040  
      0.053850  1.794192  0.000000     0.103652   -0.069278    0.009040  
      3.643849  1.794192  0.000000     0.103652   -0.069278    0.009040  
      0.161550  5.382575  0.000000     0.103652   -0.069278    0.009040  
      3.751549  5.382575  0.000000     0.103652   -0.069278    0.009040  
      0.161550  1.898708  3.586861     0.103652   -0.069278    0.009040  
      3.751549  1.898708  3.586861     0.103652   -0.069278    0.009040  
      0.269249  5.487091  3.586861     0.103652   -0.069278    0.009040  
      3.859249  5.487091  3.586861     0.103652   -0.069278    0.009040  
      2.854049  2.769674  2.690146     0.103652   -0.069278    0.009040  
      6.444048  2.769674  2.690146     0.103652   -0.069278    0.009040  
      2.961749  6.358057  2.690146     0.103652   -0.069278    0.009040  
      6.551748  6.358057  2.690146     0.103652   -0.069278    0.009040  
      2.961749  2.874191  6.277007     0.103652   -0.069278    0.009040  
      6.551748  2.874191  6.277007     0.103652   -0.069278    0.009040  
      3.069448  6.462574  6.277007     0.103652   -0.069278    0.009040  
      6.659448  6.462574  6.277007     0.103652   -0.069278    0.009040  
      1.795000  0.000000  0.000000     0.103652   -0.069278    0.009040  
      5.384999  0.000000  0.000000     0.103652   -0.069278    0.009040  
      1.902699  3.588383  0.000000     0.103652   -0.069278    0.009040  
      5.492699  3.588383  0.000000     0.103652   -0.069278    0.009040  
      1.902699  0.104516  3.586861     0.103652   -0.069278    0.009040  
      5.492699  0.104516  3.586861     0.103652   -0.069278    0.009040  
      2.010399  3.692899  3.586861     0.103652   -0.069278    0.009040  
      5.600398  3.692899  3.586861     0.103652   -0.069278    0.009040  
      2.746349  0.923225  0.896715     0.103652   -0.069278    0.009040  
      6.336349  0.923225  0.896715     0.103652   -0.069278    0.009040  
      2.854049  4.511608  0.896715     0.103652   -0.069278    0.009040  
      6.444048  4.511608  0.896715     0.103652   -0.069278    0.009040  
      2.854049  1.027741  4.483576     0.103652   -0.069278    0.009040  
      6.444048  1.027741  4.483576     0.103652   -0.069278    0.009040  
      2.961749  4.616124  4.483576     0.103652   -0.069278    0.009040  
      6.551748  4.616124  4.483576     0.103652   -0.069278    0.009040  
      1.902699  1.846450  1.793431     0.103652   -0.069278    0.009040  
      5.492699  1.846450  1.793431     0.103652   -0.069278    0.009040  
      2.010399  5.434833  1.793431     0.103652   -0.069278    0.009040  
      5.600398  5.434833  1.793431     0.103652   -0.069278    0.009040  
      2.010399  1.950966  5.380292     0.103652   -0.069278    0.009040  
      5.600398  1.950966  5.380292     0.103652   -0.069278    0.009040  
      2.118099  5.539349  5.380292     0.103652   -0.069278    0.009040  
      5.708098  5.539349  5.380292     0.103652   -0.069278    0.009040  
 
 192 f  =    0.000000 THz     0.000003 2PiTHz    0.000016 cm-1     0.000002 meV
             X         Y         Z           dx          dy          dz
      1.005200  2.717416  0.896715     0.063818    0.087302   -0.062696  
      4.595199  2.717416  0.896715     0.063818    0.087302   -0.062696  
      1.112899  6.305799  0.896715     0.063818    0.087302   -0.062696  
      4.702899  6.305799  0.896715     0.063818    0.087302   -0.062696  
      1.112899  2.821933  4.483576     0.063818    0.087302   -0.062696  
      4.702899  2.821933  4.483576     0.063818    0.087302   -0.062696  
      1.220599  6.410316  4.483576     0.063818    0.087302   -0.062696  
      4.810598  6.410316  4.483576     0.063818    0.087302   -0.062696  
      0.053850  0.052258  1.793431     0.063818    0.087302   -0.062696  
      3.643849  0.052258  1.793431     0.063818    0.087302   -0.062696  
      0.161550  3.640641  1.793431     0.063818    0.087302   -0.062696  
      3.751549  3.640641  1.793431     0.063818    0.087302   -0.062696  
      0.161550  0.156774  5.380292     0.063818    0.087302   -0.062696  
      3.751549  0.156774  5.380292     0.063818    0.087302   -0.062696  
      0.269249  3.745157  5.380292     0.063818    0.087302   -0.062696  
      3.859249  3.745157  5.380292     0.063818    0.087302   -0.062696  
      1.005200  0.975483  2.690146     0.063818    0.087302   -0.062696  
      4.595199  0.975483  2.690146     0.063818    0.087302   -0.062696  
      1.112899  4.563866  2.690146     0.063818    0.087302   -0.062696  
      4.702899  4.563866  2.690146     0.063818    0.087302   -0.062696  
      1.112899  1.079999  6.277007     0.063818    0.087302   -0.062696  
      4.702899  1.079999  6.277007     0.063818    0.087302   -0.062696  
      1.220599  4.668382  6.277007     0.063818    0.087302   -0.062696  
      4.810598  4.668382  6.277007     0.063818    0.087302   -0.062696  
      0.053850  1.794192  0.000000     0.063818    0.087302   -0.062696  
      3.643849  1.794192  0.000000     0.063818    0.087302   -0.062696  
      0.161550  5.382575  0.000000     0.063818    0.087302   -0.062696  
      3.751549  5.382575  0.000000     0.063818    0.087302   -0.062696  
      0.161550  1.898708  3.586861     0.063818    0.087302   -0.062696  
      3.751549  1.898708  3.586861     0.063818    0.087302   -0.062696  
      0.269249  5.487091  3.586861     0.063818    0.087302   -0.062696  
      3.859249  5.487091  3.586861     0.063818    0.087302   -0.062696  
      2.854049  2.769674  2.690146     0.063818    0.087302   -0.062696  
      6.444048  2.769674  2.690146     0.063818    0.087302   -0.062696  
      2.961749  6.358057  2.690146     0.063818    0.087302   -0.062696  
      6.551748  6.358057  2.690146     0.063818    0.087302   -0.062696  
      2.961749  2.874191  6.277007     0.063818    0.087302   -0.062696  
      6.551748  2.874191  6.277007     0.063818    0.087302   -0.062696  
      3.069448  6.462574  6.277007     0.063818    0.087302   -0.062696  
      6.659448  6.462574  6.277007     0.063818    0.087302   -0.062696  
      1.795000  0.000000  0.000000     0.063818    0.087302   -0.062696  
      5.384999  0.000000  0.000000     0.063818    0.087302   -0.062696  
      1.902699  3.588383  0.000000     0.063818    0.087302   -0.062696  
      5.492699  3.588383  0.000000     0.063818    0.087302   -0.062696  
      1.902699  0.104516  3.586861     0.063818    0.087302   -0.062696  
      5.492699  0.104516  3.586861     0.063818    0.087302   -0.062696  
      2.010399  3.692899  3.586861     0.063818    0.087302   -0.062696  
      5.600398  3.692899  3.586861     0.063818    0.087302   -0.062696  
      2.746349  0.923225  0.896715     0.063818    0.087302   -0.062696  
      6.336349  0.923225  0.896715     0.063818    0.087302   -0.062696  
      2.854049  4.511608  0.896715     0.063818    0.087302   -0.062696  
      6.444048  4.511608  0.896715     0.063818    0.087302   -0.062696  
      2.854049  1.027741  4.483576     0.063818    0.087302   -0.062696  
      6.444048  1.027741  4.483576     0.063818    0.087302   -0.062696  
      2.961749  4.616124  4.483576     0.063818    0.087302   -0.062696  
      6.551748  4.616124  4.483576     0.063818    0.087302   -0.062696  
      1.902699  1.846450  1.793431     0.063818    0.087302   -0.062696  
      5.492699  1.846450  1.793431     0.063818    0.087302   -0.062696  
      2.010399  5.434833  1.793431     0.063818    0.087302   -0.062696  
      5.600398  5.434833  1.793431     0.063818    0.087302   -0.062696  
      2.010399  1.950966  5.380292     0.063818    0.087302   -0.062696  
      5.600398  1.950966  5.380292     0.063818    0.087302   -0.062696  
      2.118099  5.539349  5.380292     0.063818    0.087302   -0.062696  
      5.708098  5.539349  5.380292     0.063818    0.087302   -0.062696  
 


--------------------------------------------------------------------------------------------------------



 ELASTIC MODULI CONTR FROM IONIC RELAXATION (kBar)
 Direction    XX          YY          ZZ          XY          YZ          ZX
 --------------------------------------------------------------------------------
 XX         -34.0551    -30.6799    -30.5428    -17.1862     -2.3538    -16.6861
 YY         -30.6799    -32.2028    -30.1779    -13.6720    -18.0365     -4.3209
 ZZ         -30.5428    -30.1779    -30.3110     -6.0778    -14.4246    -14.8685
 XY         -17.1862    -13.6720     -6.0778    -59.6014     23.4945     24.6372
 YZ          -2.3538    -18.0365    -14.4246     23.4945    -62.3914     22.5576
 ZX         -16.6861     -4.3209    -14.8685     24.6372     22.5576    -61.0400
 --------------------------------------------------------------------------------



--------------------------------------------------------------------------------------------------------


     LOOP+:  cpu time 1199.8669: real time 1200.3967
    4ORBIT:  cpu time    0.0000: real time    0.0000

 total amount of memory used by VASP MPI-rank0    83792. kBytes
=======================================================================

   base      :      30000. kBytes
   nonl-proj :      20840. kBytes
   fftplans  :       4537. kBytes
   grid      :       5806. kBytes
   one-center:        196. kBytes
   wavefun   :      22413. kBytes
 
  
  
 General timing and accounting informations for this job:
 ========================================================
  
                  Total CPU time used (sec):     1212.174
                            User time (sec):     1205.622
                          System time (sec):        6.552
                         Elapsed time (sec):     1212.907
  
                   Maximum memory used (kb):      432244.
                   Average memory used (kb):           0.
  
                          Minor page faults:        39309
                          Major page faults:           36
                 Voluntary context switches:          848
