# Thermal properties / unit cell (natom)

unit:
  temperature:   K
  free_energy:   kJ/mol
  entropy:       J/K/mol
  heat_capacity: J/K/mol

natom: 8    
cutoff_frequency:    0.000
num_modes: 2654208
num_integrated_modes: 2654208

zero_point_energy:     136.4217358
high_T_entropy:        436.4916064

thermal_properties:
- temperature:         0.0000000
  free_energy:       136.4217358
  entropy:             0.0000000
  heat_capacity:       0.0000000
  energy:            136.4217358

- temperature:         2.0000000
  free_energy:       136.4217358
  entropy:             0.0000000
  heat_capacity:       0.0000000
  energy:            136.4217358

- temperature:         4.0000000
  free_energy:       136.4217358
  entropy:             0.0000091
  heat_capacity:       0.0000569
  energy:            136.4217359

- temperature:         6.0000000
  free_energy:       136.4217358
  entropy:             0.0000737
  heat_capacity:       0.0003153
  energy:            136.4217362

- temperature:         8.0000000
  free_energy:       136.4217355
  entropy:             0.0002257
  heat_capacity:       0.0008084
  energy:            136.4217373

- temperature:        10.0000000
  free_energy:       136.4217348
  entropy:             0.0004849
  heat_capacity:       0.0016008
  energy:            136.4217396

- temperature:        12.0000000
  free_energy:       136.4217335
  entropy:             0.0008741
  heat_capacity:       0.0027750
  energy:            136.4217439

- temperature:        14.0000000
  free_energy:       136.4217312
  entropy:             0.0014185
  heat_capacity:       0.0044131
  energy:            136.4217510

- temperature:        16.0000000
  free_energy:       136.4217277
  entropy:             0.0021437
  heat_capacity:       0.0065959
  energy:            136.4217620

- temperature:        18.0000000
  free_energy:       136.4217225
  entropy:             0.0030762
  heat_capacity:       0.0094044
  energy:            136.4217779

- temperature:        20.0000000
  free_energy:       136.4217152
  entropy:             0.0042425
  heat_capacity:       0.0129203
  energy:            136.4218001

- temperature:        22.0000000
  free_energy:       136.4217053
  entropy:             0.0056693
  heat_capacity:       0.0172264
  energy:            136.4218301

- temperature:        24.0000000
  free_energy:       136.4216923
  entropy:             0.0073836
  heat_capacity:       0.0224071
  energy:            136.4218695

- temperature:        26.0000000
  free_energy:       136.4216756
  entropy:             0.0094130
  heat_capacity:       0.0285485
  energy:            136.4219203

- temperature:        28.0000000
  free_energy:       136.4216545
  entropy:             0.0117850
  heat_capacity:       0.0357384
  energy:            136.4219844

- temperature:        30.0000000
  free_energy:       136.4216282
  entropy:             0.0145279
  heat_capacity:       0.0440671
  energy:            136.4220640

- temperature:        32.0000000
  free_energy:       136.4215961
  entropy:             0.0176702
  heat_capacity:       0.0536274
  energy:            136.4221615

- temperature:        34.0000000
  free_energy:       136.4215572
  entropy:             0.0212411
  heat_capacity:       0.0645150
  energy:            136.4222794

- temperature:        36.0000000
  free_energy:       136.4215108
  entropy:             0.0252702
  heat_capacity:       0.0768289
  energy:            136.4224205

- temperature:        38.0000000
  free_energy:       136.4214558
  entropy:             0.0297879
  heat_capacity:       0.0906722
  energy:            136.4225878

- temperature:        40.0000000
  free_energy:       136.4213913
  entropy:             0.0348252
  heat_capacity:       0.1061527
  energy:            136.4227843

- temperature:        42.0000000
  free_energy:       136.4213162
  entropy:             0.0404139
  heat_capacity:       0.1233833
  energy:            136.4230135

- temperature:        44.0000000
  free_energy:       136.4212293
  entropy:             0.0465871
  heat_capacity:       0.1424831
  energy:            136.4232791

- temperature:        46.0000000
  free_energy:       136.4211294
  entropy:             0.0533784
  heat_capacity:       0.1635782
  energy:            136.4235848

- temperature:        48.0000000
  free_energy:       136.4210153
  entropy:             0.0608232
  heat_capacity:       0.1868028
  energy:            136.4239348

- temperature:        50.0000000
  free_energy:       136.4208856
  entropy:             0.0689577
  heat_capacity:       0.2122995
  energy:            136.4243335

- temperature:        52.0000000
  free_energy:       136.4207390
  entropy:             0.0778201
  heat_capacity:       0.2402206
  energy:            136.4247856

- temperature:        54.0000000
  free_energy:       136.4205739
  entropy:             0.0874497
  heat_capacity:       0.2707286
  energy:            136.4252961

- temperature:        56.0000000
  free_energy:       136.4203887
  entropy:             0.0978881
  heat_capacity:       0.3039962
  energy:            136.4258704

- temperature:        58.0000000
  free_energy:       136.4201817
  entropy:             0.1091785
  heat_capacity:       0.3402073
  energy:            136.4265141

- temperature:        60.0000000
  free_energy:       136.4199513
  entropy:             0.1213661
  heat_capacity:       0.3795561
  energy:            136.4272333

- temperature:        62.0000000
  free_energy:       136.4196956
  entropy:             0.1344984
  heat_capacity:       0.4222476
  energy:            136.4280345

- temperature:        64.0000000
  free_energy:       136.4194127
  entropy:             0.1486248
  heat_capacity:       0.4684962
  energy:            136.4289247

- temperature:        66.0000000
  free_energy:       136.4191004
  entropy:             0.1637970
  heat_capacity:       0.5185258
  energy:            136.4299110

- temperature:        68.0000000
  free_energy:       136.4187568
  entropy:             0.1800689
  heat_capacity:       0.5725680
  energy:            136.4310015

- temperature:        70.0000000
  free_energy:       136.4183794
  entropy:             0.1974965
  heat_capacity:       0.6308615
  energy:            136.4322042

- temperature:        72.0000000
  free_energy:       136.4179660
  entropy:             0.2161378
  heat_capacity:       0.6936501
  energy:            136.4335279

- temperature:        74.0000000
  free_energy:       136.4175140
  entropy:             0.2360529
  heat_capacity:       0.7611819
  energy:            136.4349819

- temperature:        76.0000000
  free_energy:       136.4170209
  entropy:             0.2573037
  heat_capacity:       0.8337075
  energy:            136.4365760

- temperature:        78.0000000
  free_energy:       136.4164839
  entropy:             0.2799537
  heat_capacity:       0.9114782
  energy:            136.4383202

- temperature:        80.0000000
  free_energy:       136.4159001
  entropy:             0.3040681
  heat_capacity:       0.9947447
  energy:            136.4402255

- temperature:        82.0000000
  free_energy:       136.4152666
  entropy:             0.3297133
  heat_capacity:       1.0837557
  energy:            136.4423031

- temperature:        84.0000000
  free_energy:       136.4145802
  entropy:             0.3569569
  heat_capacity:       1.1787561
  energy:            136.4445645

- temperature:        86.0000000
  free_energy:       136.4138376
  entropy:             0.3858675
  heat_capacity:       1.2799857
  energy:            136.4470222

- temperature:        88.0000000
  free_energy:       136.4130355
  entropy:             0.4165143
  heat_capacity:       1.3876782
  energy:            136.4496888

- temperature:        90.0000000
  free_energy:       136.4121704
  entropy:             0.4489671
  heat_capacity:       1.5020598
  energy:            136.4525774

- temperature:        92.0000000
  free_energy:       136.4112384
  entropy:             0.4832959
  heat_capacity:       1.6233482
  energy:            136.4557016

- temperature:        94.0000000
  free_energy:       136.4102359
  entropy:             0.5195708
  heat_capacity:       1.7517520
  energy:            136.4590755

- temperature:        96.0000000
  free_energy:       136.4091588
  entropy:             0.5578618
  heat_capacity:       1.8874696
  energy:            136.4627135

- temperature:        98.0000000
  free_energy:       136.4080030
  entropy:             0.5982385
  heat_capacity:       2.0306886
  energy:            136.4666304

- temperature:       100.0000000
  free_energy:       136.4067644
  entropy:             0.6407700
  heat_capacity:       2.1815857
  energy:            136.4708414

- temperature:       102.0000000
  free_energy:       136.4054385
  entropy:             0.6855246
  heat_capacity:       2.3403261
  energy:            136.4753620

- temperature:       104.0000000
  free_energy:       136.4040208
  entropy:             0.7325698
  heat_capacity:       2.5070630
  energy:            136.4802080

- temperature:       106.0000000
  free_energy:       136.4025066
  entropy:             0.7819721
  heat_capacity:       2.6819381
  energy:            136.4853957

- temperature:       108.0000000
  free_energy:       136.4008913
  entropy:             0.8337966
  heat_capacity:       2.8650809
  energy:            136.4909413

- temperature:       110.0000000
  free_energy:       136.3991698
  entropy:             0.8881073
  heat_capacity:       3.0566092
  energy:            136.4968616

- temperature:       112.0000000
  free_energy:       136.3973371
  entropy:             0.9449666
  heat_capacity:       3.2566290
  energy:            136.5031734

- temperature:       114.0000000
  free_energy:       136.3953882
  entropy:             1.0044355
  heat_capacity:       3.4652348
  energy:            136.5098938

- temperature:       116.0000000
  free_energy:       136.3933176
  entropy:             1.0665732
  heat_capacity:       3.6825098
  energy:            136.5170401

- temperature:       118.0000000
  free_energy:       136.3911201
  entropy:             1.1314375
  heat_capacity:       3.9085261
  energy:            136.5246297

- temperature:       120.0000000
  free_energy:       136.3887900
  entropy:             1.1990839
  heat_capacity:       4.1433451
  energy:            136.5326801

- temperature:       122.0000000
  free_energy:       136.3863218
  entropy:             1.2695666
  heat_capacity:       4.3870180
  energy:            136.5412090

- temperature:       124.0000000
  free_energy:       136.3837098
  entropy:             1.3429376
  heat_capacity:       4.6395856
  energy:            136.5502341

- temperature:       126.0000000
  free_energy:       136.3809481
  entropy:             1.4192471
  heat_capacity:       4.9010795
  energy:            136.5597733

- temperature:       128.0000000
  free_energy:       136.3780308
  entropy:             1.4985432
  heat_capacity:       5.1715217
  energy:            136.5698444

- temperature:       130.0000000
  free_energy:       136.3749519
  entropy:             1.5808722
  heat_capacity:       5.4509256
  energy:            136.5804653

- temperature:       132.0000000
  free_energy:       136.3717053
  entropy:             1.6662784
  heat_capacity:       5.7392959
  energy:            136.5916541

- temperature:       134.0000000
  free_energy:       136.3682847
  entropy:             1.7548041
  heat_capacity:       6.0366294
  energy:            136.6034285

- temperature:       136.0000000
  free_energy:       136.3646840
  entropy:             1.8464894
  heat_capacity:       6.3429149
  energy:            136.6158065

- temperature:       138.0000000
  free_energy:       136.3608967
  entropy:             1.9413728
  heat_capacity:       6.6581339
  energy:            136.6288061

- temperature:       140.0000000
  free_energy:       136.3569163
  entropy:             2.0394906
  heat_capacity:       6.9822610
  energy:            136.6424450

- temperature:       142.0000000
  free_energy:       136.3527365
  entropy:             2.1408771
  heat_capacity:       7.3152639
  energy:            136.6567411

- temperature:       144.0000000
  free_energy:       136.3483506
  entropy:             2.2455649
  heat_capacity:       7.6571040
  energy:            136.6717120

- temperature:       146.0000000
  free_energy:       136.3437520
  entropy:             2.3535843
  heat_capacity:       8.0077364
  energy:            136.6873753

- temperature:       148.0000000
  free_energy:       136.3389340
  entropy:             2.4649641
  heat_capacity:       8.3671107
  energy:            136.7037487

- temperature:       150.0000000
  free_energy:       136.3338899
  entropy:             2.5797311
  heat_capacity:       8.7351706
  energy:            136.7208496

- temperature:       152.0000000
  free_energy:       136.3286128
  entropy:             2.6979100
  heat_capacity:       9.1118549
  energy:            136.7386952

- temperature:       154.0000000
  free_energy:       136.3230960
  entropy:             2.8195241
  heat_capacity:       9.4970970
  energy:            136.7573027

- temperature:       156.0000000
  free_energy:       136.3173324
  entropy:             2.9445947
  heat_capacity:       9.8908256
  energy:            136.7766892

- temperature:       158.0000000
  free_energy:       136.3113153
  entropy:             3.0731413
  heat_capacity:      10.2929650
  energy:            136.7968716

- temperature:       160.0000000
  free_energy:       136.3050375
  entropy:             3.2051817
  heat_capacity:      10.7034348
  energy:            136.8178666

- temperature:       162.0000000
  free_energy:       136.2984922
  entropy:             3.3407322
  heat_capacity:      11.1221506
  energy:            136.8396908

- temperature:       164.0000000
  free_energy:       136.2916723
  entropy:             3.4798073
  heat_capacity:      11.5490241
  energy:            136.8623607

- temperature:       166.0000000
  free_energy:       136.2845706
  entropy:             3.6224198
  heat_capacity:      11.9839629
  energy:            136.8858923

- temperature:       168.0000000
  free_energy:       136.2771802
  entropy:             3.7685810
  heat_capacity:      12.4268711
  energy:            136.9103018

- temperature:       170.0000000
  free_energy:       136.2694939
  entropy:             3.9183006
  heat_capacity:      12.8776495
  energy:            136.9356050

- temperature:       172.0000000
  free_energy:       136.2615046
  entropy:             4.0715870
  heat_capacity:      13.3361952
  energy:            136.9618176

- temperature:       174.0000000
  free_energy:       136.2532052
  entropy:             4.2284467
  heat_capacity:      13.8024025
  energy:            136.9889549

- temperature:       176.0000000
  free_energy:       136.2445885
  entropy:             4.3888851
  heat_capacity:      14.2761625
  energy:            137.0170323

- temperature:       178.0000000
  free_energy:       136.2356473
  entropy:             4.5529060
  heat_capacity:      14.7573634
  energy:            137.0460645

- temperature:       180.0000000
  free_energy:       136.2263745
  entropy:             4.7205118
  heat_capacity:      15.2458908
  energy:            137.0760666

- temperature:       182.0000000
  free_energy:       136.2167628
  entropy:             4.8917037
  heat_capacity:      15.7416277
  energy:            137.1070529

- temperature:       184.0000000
  free_energy:       136.2068053
  entropy:             5.0664814
  heat_capacity:      16.2444546
  energy:            137.1390378

- temperature:       186.0000000
  free_energy:       136.1964945
  entropy:             5.2448433
  heat_capacity:      16.7542497
  energy:            137.1720354

- temperature:       188.0000000
  free_energy:       136.1858235
  entropy:             5.4267867
  heat_capacity:      17.2708890
  energy:            137.2060594

- temperature:       190.0000000
  free_energy:       136.1747850
  entropy:             5.6123075
  heat_capacity:      17.7942464
  energy:            137.2411234

- temperature:       192.0000000
  free_energy:       136.1633719
  entropy:             5.8014005
  heat_capacity:      18.3241942
  energy:            137.2772408

- temperature:       194.0000000
  free_energy:       136.1515770
  entropy:             5.9940592
  heat_capacity:      18.8606024
  energy:            137.3144245

- temperature:       196.0000000
  free_energy:       136.1393933
  entropy:             6.1902762
  heat_capacity:      19.4033398
  energy:            137.3526874

- temperature:       198.0000000
  free_energy:       136.1268135
  entropy:             6.3900427
  heat_capacity:      19.9522734
  energy:            137.3920420

- temperature:       200.0000000
  free_energy:       136.1138307
  entropy:             6.5933490
  heat_capacity:      20.5072688
  energy:            137.4325005

- temperature:       202.0000000
  free_energy:       136.1004378
  entropy:             6.8001843
  heat_capacity:      21.0681905
  energy:            137.4740750

- temperature:       204.0000000
  free_energy:       136.0866277
  entropy:             7.0105367
  heat_capacity:      21.6349016
  energy:            137.5167772

- temperature:       206.0000000
  free_energy:       136.0723933
  entropy:             7.2243936
  heat_capacity:      22.2072643
  energy:            137.5606184

- temperature:       208.0000000
  free_energy:       136.0577278
  entropy:             7.4417410
  heat_capacity:      22.7851398
  energy:            137.6056099

- temperature:       210.0000000
  free_energy:       136.0426240
  entropy:             7.6625643
  heat_capacity:      23.3683886
  energy:            137.6517625

- temperature:       212.0000000
  free_energy:       136.0270752
  entropy:             7.8868478
  heat_capacity:      23.9568703
  energy:            137.6990869

- temperature:       214.0000000
  free_energy:       136.0110743
  entropy:             8.1145751
  heat_capacity:      24.5504442
  energy:            137.7475934

- temperature:       216.0000000
  free_energy:       135.9946146
  entropy:             8.3457287
  heat_capacity:      25.1489689
  energy:            137.7972920

- temperature:       218.0000000
  free_energy:       135.9776892
  entropy:             8.5802905
  heat_capacity:      25.7523028
  energy:            137.8481925

- temperature:       220.0000000
  free_energy:       135.9602912
  entropy:             8.8182416
  heat_capacity:      26.3603041
  energy:            137.9003043

- temperature:       222.0000000
  free_energy:       135.9424139
  entropy:             9.0595621
  heat_capacity:      26.9728305
  energy:            137.9536367

- temperature:       224.0000000
  free_energy:       135.9240507
  entropy:             9.3042315
  heat_capacity:      27.5897403
  energy:            138.0081986

- temperature:       226.0000000
  free_energy:       135.9051948
  entropy:             9.5522288
  heat_capacity:      28.2108912
  energy:            138.0639985

- temperature:       228.0000000
  free_energy:       135.8858396
  entropy:             9.8035319
  heat_capacity:      28.8361416
  energy:            138.1210449

- temperature:       230.0000000
  free_energy:       135.8659785
  entropy:            10.0581184
  heat_capacity:      29.4653500
  energy:            138.1793457

- temperature:       232.0000000
  free_energy:       135.8456049
  entropy:            10.3159650
  heat_capacity:      30.0983752
  energy:            138.2389088

- temperature:       234.0000000
  free_energy:       135.8247125
  entropy:            10.5770479
  heat_capacity:      30.7350765
  energy:            138.2997417

- temperature:       236.0000000
  free_energy:       135.8032946
  entropy:            10.8413427
  heat_capacity:      31.3753137
  energy:            138.3618515

- temperature:       238.0000000
  free_energy:       135.7813450
  entropy:            11.1088244
  heat_capacity:      32.0189475
  energy:            138.4252452

- temperature:       240.0000000
  free_energy:       135.7588572
  entropy:            11.3794677
  heat_capacity:      32.6658391
  energy:            138.4899294

- temperature:       242.0000000
  free_energy:       135.7358250
  entropy:            11.6532463
  heat_capacity:      33.3158505
  energy:            138.5559106

- temperature:       244.0000000
  free_energy:       135.7122421
  entropy:            11.9301340
  heat_capacity:      33.9688447
  energy:            138.6231948

- temperature:       246.0000000
  free_energy:       135.6881024
  entropy:            12.2101036
  heat_capacity:      34.6246857
  energy:            138.6917879

- temperature:       248.0000000
  free_energy:       135.6633997
  entropy:            12.4931278
  heat_capacity:      35.2832383
  energy:            138.7616954

- temperature:       250.0000000
  free_energy:       135.6381279
  entropy:            12.7791787
  heat_capacity:      35.9443686
  energy:            138.8329226

- temperature:       252.0000000
  free_energy:       135.6122810
  entropy:            13.0682282
  heat_capacity:      36.6079439
  energy:            138.9054745

- temperature:       254.0000000
  free_energy:       135.5858530
  entropy:            13.3602476
  heat_capacity:      37.2738327
  energy:            138.9793559

- temperature:       256.0000000
  free_energy:       135.5588380
  entropy:            13.6552080
  heat_capacity:      37.9419048
  energy:            139.0545713

- temperature:       258.0000000
  free_energy:       135.5312302
  entropy:            13.9530801
  heat_capacity:      38.6120313
  energy:            139.1311249

- temperature:       260.0000000
  free_energy:       135.5030238
  entropy:            14.2538342
  heat_capacity:      39.2840847
  energy:            139.2090207

- temperature:       262.0000000
  free_energy:       135.4742130
  entropy:            14.5574406
  heat_capacity:      39.9579391
  energy:            139.2882624

- temperature:       264.0000000
  free_energy:       135.4447921
  entropy:            14.8638690
  heat_capacity:      40.6334699
  energy:            139.3688536

- temperature:       266.0000000
  free_energy:       135.4147556
  entropy:            15.1730890
  heat_capacity:      41.3105544
  energy:            139.4507973

- temperature:       268.0000000
  free_energy:       135.3840979
  entropy:            15.4850701
  heat_capacity:      41.9890712
  energy:            139.5340967

- temperature:       270.0000000
  free_energy:       135.3528135
  entropy:            15.7997813
  heat_capacity:      42.6689005
  energy:            139.6187545

- temperature:       272.0000000
  free_energy:       135.3208970
  entropy:            16.1171916
  heat_capacity:      43.3499244
  energy:            139.7047731

- temperature:       274.0000000
  free_energy:       135.2883430
  entropy:            16.4372697
  heat_capacity:      44.0320265
  energy:            139.7921549

- temperature:       276.0000000
  free_energy:       135.2551462
  entropy:            16.7599844
  heat_capacity:      44.7150924
  energy:            139.8809019

- temperature:       278.0000000
  free_energy:       135.2213013
  entropy:            17.0853040
  heat_capacity:      45.3990092
  energy:            139.9710158

- temperature:       280.0000000
  free_energy:       135.1868033
  entropy:            17.4131970
  heat_capacity:      46.0836659
  energy:            140.0624984

- temperature:       282.0000000
  free_energy:       135.1516468
  entropy:            17.7436315
  heat_capacity:      46.7689533
  energy:            140.1553509

- temperature:       284.0000000
  free_energy:       135.1158271
  entropy:            18.0765757
  heat_capacity:      47.4547641
  energy:            140.2495746

- temperature:       286.0000000
  free_energy:       135.0793389
  entropy:            18.4119978
  heat_capacity:      48.1409928
  energy:            140.3451703

- temperature:       288.0000000
  free_energy:       135.0421774
  entropy:            18.7498657
  heat_capacity:      48.8275357
  energy:            140.4421387

- temperature:       290.0000000
  free_energy:       135.0043378
  entropy:            19.0901473
  heat_capacity:      49.5142911
  energy:            140.5404805

- temperature:       292.0000000
  free_energy:       134.9658153
  entropy:            19.4328107
  heat_capacity:      50.2011591
  energy:            140.6401960

- temperature:       294.0000000
  free_energy:       134.9266050
  entropy:            19.7778238
  heat_capacity:      50.8880418
  energy:            140.7412852

- temperature:       296.0000000
  free_energy:       134.8867024
  entropy:            20.1251543
  heat_capacity:      51.5748431
  energy:            140.8437481

- temperature:       298.0000000
  free_energy:       134.8461029
  entropy:            20.4747704
  heat_capacity:      52.2614689
  energy:            140.9475845

- temperature:       300.0000000
  free_energy:       134.8048018
  entropy:            20.8266399
  heat_capacity:      52.9478269
  energy:            141.0527938

- temperature:       302.0000000
  free_energy:       134.7627948
  entropy:            21.1807308
  heat_capacity:      53.6338269
  energy:            141.1593755

- temperature:       304.0000000
  free_energy:       134.7200774
  entropy:            21.5370110
  heat_capacity:      54.3193804
  energy:            141.2673288

- temperature:       306.0000000
  free_energy:       134.6766453
  entropy:            21.8954488
  heat_capacity:      55.0044011
  energy:            141.3766527

- temperature:       308.0000000
  free_energy:       134.6324942
  entropy:            22.2560122
  heat_capacity:      55.6888042
  energy:            141.4873460

- temperature:       310.0000000
  free_energy:       134.5876199
  entropy:            22.6186695
  heat_capacity:      56.3725072
  energy:            141.5994074

- temperature:       312.0000000
  free_energy:       134.5420182
  entropy:            22.9833889
  heat_capacity:      57.0554293
  energy:            141.7128355

- temperature:       314.0000000
  free_energy:       134.4956850
  entropy:            23.3501388
  heat_capacity:      57.7374917
  energy:            141.8276286

- temperature:       316.0000000
  free_energy:       134.4486163
  entropy:            23.7188878
  heat_capacity:      58.4186172
  energy:            141.9437849

- temperature:       318.0000000
  free_energy:       134.4008081
  entropy:            24.0896045
  heat_capacity:      59.0987309
  energy:            142.0613024

- temperature:       320.0000000
  free_energy:       134.3522566
  entropy:            24.4622577
  heat_capacity:      59.7777594
  energy:            142.1801791

- temperature:       322.0000000
  free_energy:       134.3029578
  entropy:            24.8368162
  heat_capacity:      60.4556312
  energy:            142.3004126

- temperature:       324.0000000
  free_energy:       134.2529081
  entropy:            25.2132490
  heat_capacity:      61.1322768
  energy:            142.4220008

- temperature:       326.0000000
  free_energy:       134.2021036
  entropy:            25.5915254
  heat_capacity:      61.8076284
  energy:            142.5449409

- temperature:       328.0000000
  free_energy:       134.1505408
  entropy:            25.9716146
  heat_capacity:      62.4816200
  energy:            142.6692304

- temperature:       330.0000000
  free_energy:       134.0982160
  entropy:            26.3534862
  heat_capacity:      63.1541874
  energy:            142.7948664

- temperature:       332.0000000
  free_energy:       134.0451257
  entropy:            26.7371099
  heat_capacity:      63.8252680
  energy:            142.9218461

- temperature:       334.0000000
  free_energy:       133.9912664
  entropy:            27.1224553
  heat_capacity:      64.4948013
  energy:            143.0501665

- temperature:       336.0000000
  free_energy:       133.9366347
  entropy:            27.5094927
  heat_capacity:      65.1627281
  energy:            143.1798243

- temperature:       338.0000000
  free_energy:       133.8812273
  entropy:            27.8981922
  heat_capacity:      65.8289912
  energy:            143.3108163

- temperature:       340.0000000
  free_energy:       133.8250408
  entropy:            28.2885242
  heat_capacity:      66.4935351
  energy:            143.4431391

- temperature:       342.0000000
  free_energy:       133.7680721
  entropy:            28.6804593
  heat_capacity:      67.1563056
  energy:            143.5767892

- temperature:       344.0000000
  free_energy:       133.7103180
  entropy:            29.0739684
  heat_capacity:      67.8172506
  energy:            143.7117631

- temperature:       346.0000000
  free_energy:       133.6517752
  entropy:            29.4690224
  heat_capacity:      68.4763193
  energy:            143.8480570

- temperature:       348.0000000
  free_energy:       133.5924409
  entropy:            29.8655926
  heat_capacity:      69.1334626
  energy:            143.9856671

- temperature:       350.0000000
  free_energy:       133.5323119
  entropy:            30.2636504
  heat_capacity:      69.7886330
  energy:            144.1245895

- temperature:       352.0000000
  free_energy:       133.4713853
  entropy:            30.6631676
  heat_capacity:      70.4417845
  energy:            144.2648203

- temperature:       354.0000000
  free_energy:       133.4096582
  entropy:            31.0641159
  heat_capacity:      71.0928727
  energy:            144.4063553

- temperature:       356.0000000
  free_energy:       133.3471279
  entropy:            31.4664676