<?xml version="1.0" encoding="ISO-8859-1"?>
<modeling>
 <generator>
  <i name="program" type="string">vasp </i>
  <i name="version" type="string">5.4.4.18Apr17-6-g9f103f2a35  </i>
  <i name="subversion" type="string">(build Mar 12 2022 03:36:41) complex            parallel </i>
  <i name="platform" type="string">IFC19.0.3.199_CrayMPICH7.7.19 </i>
  <i name="date" type="string">2022 12 02 </i>
  <i name="time" type="string">03:24:37 </i>
 </generator>
 <incar>
  <i type="string" name="PREC">accurate</i>
  <i type="int" name="IALGO">    38</i>
  <i type="logical" name="ADDGRID"> T  </i>
  <i type="int" name="IBRION">     8</i>
  <i name="EDIFF">      0.00000001</i>
  <i type="logical" name="LREAL"> F  </i>
  <i type="int" name="ISMEAR">     0</i>
  <i name="SIGMA">      0.06000000</i>
  <i type="logical" name="LWAVE"> F  </i>
  <i type="logical" name="LCHARG"> F  </i>
  <v type="int" name="KPOINT_BSE">    -1     0     0     0</v>
 </incar>
 <structure name="primitive_cell" >
  <crystal>
   <varray name="basis" >
    <v>      -0.10769968      -1.84644963      -1.79343056 </v>
    <v>      -1.84884952      -1.79419151       0.00000000 </v>
    <v>      -1.84884952      -0.05225812      -1.79343056 </v>
   </varray>
   <i name="volume">     11.55174876 </i>
   <varray name="rec_basis" >
    <v>       0.27855158      -0.28703734      -0.27879525 </v>
    <v>      -0.27855158      -0.27031676       0.29503579 </v>
    <v>      -0.27855158       0.28703734      -0.27879533 </v>
   </varray>
  </crystal>
  <varray name="positions" >
   <v>       0.25000000       0.25000000       0.25000000 </v>
   <v>      -0.50000000      -0.50000000      -0.50000000 </v>
  </varray>
 </structure>
 <varray name="primitive_index" >
  <v type="int" >        1 </v>
  <v type="int" >       43 </v>
 </varray>
 <kpoints>
  <generation param="Gamma">
   <v type="int" name="divisions">       6        6        6 </v>
   <v name="usershift">      0.00000000       0.00000000       0.00000000 </v>
   <v name="genvec1">      0.16666667      -0.00000000       0.00000000 </v>
   <v name="genvec2">      0.00000000       0.16666667       0.00000000 </v>
   <v name="genvec3">      0.00000000       0.00000000       0.16666667 </v>
   <v name="shift">      0.00000000       0.00000000       0.00000000 </v>
  </generation>
  <varray name="kpointlist" >
   <v>       0.00000000       0.00000000       0.00000000 </v>
   <v>       0.16666667       0.00000000       0.00000000 </v>
   <v>       0.33333333       0.00000000      -0.00000000 </v>
   <v>       0.50000000       0.00000000      -0.00000000 </v>
   <v>       0.16666667       0.16666667      -0.00000000 </v>
   <v>       0.33333333       0.16666667      -0.00000000 </v>
   <v>       0.50000000       0.16666667      -0.00000000 </v>
   <v>      -0.33333333       0.16666667      -0.00000000 </v>
   <v>      -0.16666667       0.16666667      -0.00000000 </v>
   <v>       0.33333333       0.33333333      -0.00000000 </v>
   <v>       0.50000000       0.33333333       0.00000000 </v>
   <v>      -0.33333333       0.33333333      -0.00000000 </v>
   <v>       0.50000000       0.50000000      -0.00000000 </v>
   <v>       0.16666667       0.16666667       0.16666667 </v>
   <v>       0.33333333       0.16666667       0.16666667 </v>
   <v>       0.50000000       0.16666667       0.16666667 </v>
   <v>      -0.33333333       0.16666667       0.16666667 </v>
   <v>      -0.16666667       0.16666667       0.16666667 </v>
   <v>       0.33333333       0.33333333       0.16666667 </v>
   <v>       0.50000000       0.33333333       0.16666667 </v>
   <v>      -0.33333333       0.33333333       0.16666667 </v>
   <v>      -0.16666667       0.33333333       0.16666667 </v>
   <v>       0.50000000       0.50000000       0.16666667 </v>
   <v>      -0.33333333       0.50000000       0.16666667 </v>
   <v>      -0.16666667       0.50000000       0.16666667 </v>
   <v>      -0.33333333      -0.33333333       0.16666667 </v>
   <v>       0.33333333       0.33333333       0.33333333 </v>
   <v>       0.50000000       0.33333333       0.33333333 </v>
   <v>      -0.33333333       0.33333333       0.33333333 </v>
   <v>       0.50000000       0.50000000       0.33333333 </v>
   <v>      -0.33333333       0.50000000       0.33333333 </v>
   <v>       0.50000000       0.50000000       0.50000000 </v>
  </varray>
  <varray name="weights" >
   <v>       0.00462963 </v>
   <v>       0.02777778 </v>
   <v>       0.02777778 </v>
   <v>       0.01388889 </v>
   <v>       0.02777778 </v>
   <v>       0.05555556 </v>
   <v>       0.05555556 </v>
   <v>       0.05555556 </v>
   <v>       0.02777778 </v>
   <v>       0.02777778 </v>
   <v>       0.05555556 </v>
   <v>       0.02777778 </v>
   <v>       0.01388889 </v>
   <v>       0.00925926 </v>
   <v>       0.02777778 </v>
   <v>       0.02777778 </v>
   <v>       0.02777778 </v>
   <v>       0.02777778 </v>
   <v>       0.02777778 </v>
   <v>       0.05555556 </v>
   <v>       0.05555556 </v>
   <v>       0.05555556 </v>
   <v>       0.02777778 </v>
   <v>       0.05555556 </v>
   <v>       0.02777778 </v>
   <v>       0.02777778 </v>
   <v>       0.00925926 </v>
   <v>       0.02777778 </v>
   <v>       0.02777778 </v>
   <v>       0.02777778 </v>
   <v>       0.02777778 </v>
   <v>       0.00462963 </v>
  </varray>
 </kpoints>
 <parameters>
  <separator name="general" >
   <i type="string" name="SYSTEM">unknown system</i>
   <i type="logical" name="LCOMPAT"> F  </i>
  </separator>
  <separator name="electronic" >
   <i type="string" name="PREC">accura</i>
   <i name="ENMAX">    400.00000000</i>
   <i name="ENAUG">    644.87300000</i>
   <i name="EDIFF">      0.00000001</i>
   <i type="int" name="IALGO">    38</i>
   <i type="int" name="IWAVPR">    11</i>
   <i type="int" name="NBANDS">   192</i>
   <i name="NELECT">    256.00000000</i>
   <i type="int" name="TURBO">     0</i>
   <i type="int" name="IRESTART">     0</i>
   <i type="int" name="NREBOOT">     0</i>
   <i type="int" name="NMIN">     0</i>
   <i name="EREF">      0.00000000</i>
   <separator name="electronic smearing" >
    <i type="int" name="ISMEAR">     0</i>
    <i name="SIGMA">      0.06000000</i>
    <i name="KSPACING">      0.50000000</i>
    <i type="logical" name="KGAMMA"> T  </i>
   </separator>
   <separator name="electronic projectors" >
    <i type="logical" name="LREAL"> F  </i>
    <v name="ROPT">      0.00000000</v>
    <i type="int" name="LMAXPAW">  -100</i>
    <i type="int" name="LMAXMIX">     2</i>
    <i type="logical" name="NLSPLINE"> F  </i>
   </separator>
   <separator name="electronic startup" >
    <i type="int" name="ISTART">     0</i>
    <i type="int" name="ICHARG">     2</i>
    <i type="int" name="INIWAV">     1</i>
   </separator>
   <separator name="electronic spin" >
    <i type="int" name="ISPIN">     1</i>
    <i type="logical" name="LNONCOLLINEAR"> F  </i>
    <v name="MAGMOM">      1.00000000      1.00000000      1.00000000      1.00000000      1.00000000      1.00000000      1.00000000      1.00000000      1.00000000      1.00000000      1.00000000      1.00000000      1.00000000      1.00000000      1.00000000      1.00000000      1.00000000      1.00000000      1.00000000      1.00000000
      1.00000000      1.00000000      1.00000000      1.00000000      1.00000000      1.00000000      1.00000000      1.00000000      1.00000000      1.00000000      1.00000000      1.00000000      1.00000000      1.00000000      1.00000000      1.00000000      1.00000000      1.00000000      1.00000000      1.00000000
      1.00000000      1.00000000      1.00000000      1.00000000      1.00000000      1.00000000      1.00000000      1.00000000      1.00000000      1.00000000      1.00000000      1.00000000      1.00000000      1.00000000      1.00000000      1.00000000      1.00000000      1.00000000      1.00000000      1.00000000
      1.00000000      1.00000000      1.00000000      1.00000000</v>
    <i name="NUPDOWN">     -1.00000000</i>
    <i type="logical" name="LSORBIT"> F  </i>
    <v name="SAXIS">      0.00000000      0.00000000      1.00000000</v>
    <i type="logical" name="LSPIRAL"> F  </i>
    <v name="QSPIRAL">      0.00000000      0.00000000      0.00000000</v>
    <i type="logical" name="LZEROZ"> F  </i>
   </separator>
   <separator name="electronic exchange-correlation" >
    <i type="logical" name="LASPH"> F  </i>
    <i type="logical" name="LMETAGGA"> F  </i>
   </separator>
   <separator name="electronic convergence" >
    <i type="int" name="NELM">    60</i>
    <i type="int" name="NELMDL">    -5</i>
    <i type="int" name="NELMIN">     2</i>
    <i name="ENINI">    400.00000000</i>
    <separator name="electronic convergence detail" >
     <i type="logical" name="LDIAG"> T  </i>
     <i type="logical" name="LSUBROT"> F  </i>
     <i name="WEIMIN">      0.00100000</i>
     <i name="EBREAK">      0.00000000</i>
     <i name="DEPER">      0.30000000</i>
     <i type="int" name="NRMM">     4</i>
     <i name="TIME">      0.40000000</i>
    </separator>
   </separator>
   <separator name="electronic mixer" >
    <i name="AMIX">      0.40000000</i>
    <i name="BMIX">      1.00000000</i>
    <i name="AMIN">      0.10000000</i>
    <i name="AMIX_MAG">      1.60000000</i>
    <i name="BMIX_MAG">      1.00000000</i>
    <separator name="electronic mixer details" >
     <i type="int" name="IMIX">     4</i>
     <i type="logical" name="MIXFIRST"> F  </i>
     <i type="int" name="MAXMIX">   -45</i>
     <i name="WC">    100.00000000</i>
     <i type="int" name="INIMIX">     1</i>
     <i type="int" name="MIXPRE">     1</i>
     <i type="int" name="MREMOVE">     5</i>
    </separator>
   </separator>
   <separator name="electronic dipolcorrection" >
    <i type="logical" name="LDIPOL"> F  </i>
    <i type="logical" name="LMONO"> F  </i>
    <i type="int" name="IDIPOL">     0</i>
    <i name="EPSILON">      1.00000000</i>
    <v name="DIPOL">   -100.00000000   -100.00000000   -100.00000000</v>
    <i name="EFIELD">      0.00000000</i>
   </separator>
  </separator>
  <separator name="grids" >
   <i type="int" name="NGX">    48</i>
   <i type="int" name="NGY">    48</i>
   <i type="int" name="NGZ">    48</i>
   <i type="int" name="NGXF">    96</i>
   <i type="int" name="NGYF">    96</i>
   <i type="int" name="NGZF">    96</i>
   <i type="logical" name="ADDGRID"> T  </i>
  </separator>
  <separator name="ionic" >
   <i type="int" name="NSW">     1</i>
   <i type="int" name="IBRION">     8</i>
   <i type="int" name="MDALGO">     0</i>
   <i type="int" name="ISIF">     2</i>
   <i name="PSTRESS">      0.00000000</i>
   <i name="EDIFFG">      0.00000010</i>
   <i type="int" name="NFREE">     0</i>
   <i name="POTIM">      0.50000000</i>
   <i name="SMASS">     -3.00000000</i>
   <i name="SCALEE">      1.00000000</i>
  </separator>
  <separator name="ionic md" >
   <i name="TEBEG">      0.00010000</i>
   <i name="TEEND">      0.00010000</i>
   <i type="int" name="NBLOCK">     1</i>
   <i type="int" name="KBLOCK">     1</i>
   <i type="int" name="NPACO">   256</i>
   <i name="APACO">     16.00000000</i>
  </separator>
  <separator name="symmetry" >
   <i type="int" name="ISYM">     2</i>
   <i name="SYMPREC">      0.00001000</i>
  </separator>
  <separator name="dos" >
   <i type="int" name="LORBIT">     0</i>
   <v name="RWIGS">     -1.00000000</v>
   <i type="int" name="NEDOS">   301</i>
   <i name="EMIN">     10.00000000</i>
   <i name="EMAX">    -10.00000000</i>
   <i name="EFERMI">      0.00000000</i>
  </separator>
  <separator name="writing" >
   <i type="int" name="NWRITE">     2</i>
   <i type="logical" name="LWAVE"> F  </i>
   <i type="logical" name="LDOWNSAMPLE"> F  </i>
   <i type="logical" name="LCHARG"> F  </i>
   <i type="logical" name="LPARD"> F  </i>
   <i type="logical" name="LVTOT"> F  </i>
   <i type="logical" name="LVHAR"> F  </i>
   <i type="logical" name="LELF"> F  </i>
   <i type="logical" name="LOPTICS"> F  </i>
   <v name="STM">      0.00000000      0.00000000      0.00000000      0.00000000      0.00000000      0.00000000      0.00000000</v>
  </separator>
  <separator name="performance" >
   <i type="int" name="NPAR">    32</i>
   <i type="int" name="NSIM">     4</i>
   <i type="int" name="NBLK">    -1</i>
   <i type="logical" name="LPLANE"> T  </i>
   <i type="logical" name="LSCALAPACK"> T  </i>
   <i type="logical" name="LSCAAWARE"> F  </i>
   <i type="logical" name="LSCALU"> F  </i>
   <i type="logical" name="LASYNC"> F  </i>
   <i type="logical" name="LORBITALREAL"> F  </i>
  </separator>
  <separator name="miscellaneous" >
   <i type="int" name="IDIOT">     3</i>
   <i type="int" name="ISPECIAL">     0</i>
   <i type="logical" name="LMUSIC"> F  </i>
   <v name="POMASS">     12.01100000</v>
   <v name="DARWINR">      0.00000000</v>
   <v name="DARWINV">      1.00000000</v>
   <i type="logical" name="LCORR"> T  </i>
  </separator>
  <i type="logical" name="GGA_COMPAT"> T  </i>
  <i type="logical" name="LBERRY"> F  </i>
  <i type="int" name="ICORELEVEL">     0</i>
  <i type="logical" name="LDAU"> F  </i>
  <i type="int" name="I_CONSTRAINED_M">     0</i>
  <separator name="electronic exchange-correlation" >
   <i type="string" name="GGA">--</i>
   <i type="int" name="VOSKOWN">     0</i>
   <i type="logical" name="LHFCALC"> F  </i>
   <i type="string" name="PRECFOCK"></i>
   <i type="logical" name="LSYMGRAD"> F  </i>
   <i type="logical" name="LHFONE"> F  </i>
   <i type="logical" name="LRHFCALC"> F  </i>
   <i type="logical" name="LTHOMAS"> F  </i>
   <i type="logical" name="LMODELHF"> F  </i>
   <i name="ENCUT4O">     -1.00000000</i>
   <i type="int" name="EXXOEP">     0</i>
   <i type="int" name="FOURORBIT">     0</i>
   <i name="AEXX">      0.00000000</i>
   <i name="HFALPHA">      0.00000000</i>
   <i name="MCALPHA">      0.00000000</i>
   <i name="ALDAX">      1.00000000</i>
   <i name="AGGAX">      1.00000000</i>
   <i name="ALDAC">      1.00000000</i>
   <i name="AGGAC">      1.00000000</i>
   <i type="int" name="NKREDX">     1</i>
   <i type="int" name="NKREDY">     1</i>
   <i type="int" name="NKREDZ">     1</i>
   <i type="logical" name="SHIFTRED"> F  </i>
   <i type="logical" name="ODDONLY"> F  </i>
   <i type="logical" name="EVENONLY"> F  </i>
   <i type="int" name="LMAXFOCK">     0</i>
   <i type="int" name="NMAXFOCKAE">     0</i>
   <i type="logical" name="LFOCKAEDFT"> F  </i>
   <i name="HFSCREEN">      0.00000000</i>
   <i name="HFSCREENC">      0.00000000</i>
   <i type="int" name="NBANDSGWLOW">     0</i>
  </separator>
  <separator name="vdW DFT" >
   <i type="logical" name="LUSE_VDW"> F  </i>
   <i name="Zab_VDW">     -0.84910000</i>
   <i name="PARAM1">      0.12340000</i>
   <i name="PARAM2">      1.00000000</i>
   <i name="PARAM3">      0.00000000</i>
  </separator>
  <separator name="model GW" >
   <i type="int" name="MODEL_GW">     0</i>
   <i name="MODEL_EPS0">      3.46552463</i>
   <i name="MODEL_ALPHA">      1.00000000</i>
  </separator>
  <separator name="linear response parameters" >
   <i type="logical" name="LEPSILON"> F  </i>
   <i type="logical" name="LRPA"> F  </i>
   <i type="logical" name="LNABLA"> F  </i>
   <i type="logical" name="LVEL"> F  </i>
   <i type="int" name="KINTER">     0</i>
   <i name="CSHIFT">      0.10000000</i>
   <i name="OMEGAMAX">     -1.00000000</i>
   <i name="DEG_THRESHOLD">      0.00200000</i>
   <i name="RTIME">     -0.10000000</i>
   <i name="WPLASMAI">      0.00000000</i>
   <v name="DFIELD">      0.00000000      0.00000000      0.00000000</v>
   <v name="WPLASMA">      0.00000000      0.00000000      0.00000000      0.00000000      0.00000000      0.00000000      0.00000000      0.00000000      0.00000000</v>
  </separator>
  <separator name="orbital magnetization" >
   <i type="logical" name="NUCIND"> F  </i>
   <v name="MAGPOS">      0.00000000      0.00000000      0.00000000</v>
   <i type="logical" name="LNICSALL"> T  </i>
   <i type="logical" name="ORBITALMAG"> F  </i>
   <i type="logical" name="LMAGBLOCH"> F  </i>
   <i type="logical" name="LCHIMAG"> F  </i>
   <i type="logical" name="LGAUGE"> T  </i>
   <i type="int" name="MAGATOM">     0</i>
   <v name="MAGDIPOL">      0.00000000      0.00000000      0.00000000</v>
   <v name="AVECCONST">      0.00000000      0.00000000      0.00000000</v>
  </separator>
  <separator name="response functions" >
   <i type="logical" name="LADDER"> F  </i>
   <i type="logical" name="LRPAFORCE"> F  </i>
   <i type="logical" name="LFXC"> F  </i>
   <i type="logical" name="LHARTREE"> T  </i>
   <i type="int" name="IBSE">     0</i>
   <v type="int" name="KPOINT">    -1     0     0     0</v>
   <i type="logical" name="LTCTE"> F  </i>
   <i type="logical" name="LTETE"> F  </i>
   <i type="logical" name="LTRIPLET"> F  </i>
   <i type="logical" name="LFXCEPS"> F  </i>
   <i type="logical" name="LFXHEG"> F  </i>
   <i type="int" name="NATURALO">     2</i>
   <i type="logical" name="L2ORDER"> F  </i>
   <i type="logical" name="LMP2LT"> F  </i>
   <i type="logical" name="LUSEW"> F  </i>
   <i name="ENCUTGW">     -2.00000000</i>
   <i name="ENCUTGWSOFT">     -2.00000000</i>
   <i name="ENCUTLF">     -1.00000000</i>
   <i type="int" name="LMAXMP2">    -1</i>
   <i name="SCISSOR">      0.00000000</i>
   <i type="int" name="NOMEGA">     0</i>
   <i type="int" name="NOMEGAR">     0</i>
   <i type="int" name="NBANDSGW">    -1</i>
   <i type="int" name="NBANDSO">    -1</i>
   <i type="int" name="NBANDSV">    -1</i>
   <i type="int" name="NELM">     1</i>
   <i type="int" name="NELMHF">     1</i>
   <i type="int" name="DIM">     3</i>
   <i type="int" name="ANTIRES">     0</i>
   <i name="OMEGAMAX">    -30.00000000</i>
   <i name="OMEGAMIN">    -30.00000000</i>
   <i name="OMEGATL">   -200.00000000</i>
   <i type="int" name="OMEGAGRID">   140</i>
   <i name="CSHIFT">     -0.10000000</i>
   <i type="logical" name="SELFENERGY"> F  </i>
   <i type="logical" name="LSPECTRAL"> F  </i>
   <i type="logical" name="LSPECTRALGW"> F  </i>
   <i type="logical" name="LSINGLES"> F  </i>
   <i type="logical" name="LFERMIGW"> F  </i>
   <i type="logical" name="ODDONLYGW"> F  </i>
   <i type="logical" name="EVENONLYGW"> F  </i>
   <i type="int" name="NKREDLFX">     1</i>
   <i type="int" name="NKREDLFY">     1</i>
   <i type="int" name="NKREDLFZ">     1</i>
   <i type="int" name="MAXMEM">  2800</i>
   <i type="int" name="TELESCOPE">     0</i>
   <i type="int" name="TAUPAR">     1</i>
   <i type="int" name="OMEGAPAR">    -1</i>
   <i name="LAMBDA">      1.00000000</i>
  </separator>
  <separator name="External order field" >
   <i name="OFIELD_KAPPA">      0.00000000</i>
   <v name="OFIELD_K">      0.00000000      0.00000000      0.00000000</v>
   <i name="OFIELD_Q6_NEAR">      0.00000000</i>
   <i name="OFIELD_Q6_FAR">      0.00000000</i>
   <i name="OFIELD_A">      0.00000000</i>
  </separator>
 </parameters>
 <atominfo>
  <atoms>      64 </atoms>
  <types>       1 </types>
  <array name="atoms" >
   <dimension dim="1">ion</dimension>
   <field type="string">element</field>
   <field type="int">atomtype</field>
   <set>
    <rc><c>C </c><c>   1</c></rc>
    <rc><c>C </c><c>   1</c></rc>
    <rc><c>C </c><c>   1</c></rc>
    <rc><c>C </c><c>   1</c></rc>
    <rc><c>C </c><c>   1</c></rc>
    <rc><c>C </c><c>   1</c></rc>
    <rc><c>C </c><c>   1</c></rc>
    <rc><c>C </c><c>   1</c></rc>
    <rc><c>C </c><c>   1</c></rc>
    <rc><c>C </c><c>   1</c></rc>
    <rc><c>C </c><c>   1</c></rc>
    <rc><c>C </c><c>   1</c></rc>
    <rc><c>C </c><c>   1</c></rc>
    <rc><c>C </c><c>   1</c></rc>
    <rc><c>C </c><c>   1</c></rc>
    <rc><c>C </c><c>   1</c></rc>
    <rc><c>C </c><c>   1</c></rc>
    <rc><c>C </c><c>   1</c></rc>
    <rc><c>C </c><c>   1</c></rc>
    <rc><c>C </c><c>   1</c></rc>
    <rc><c>C </c><c>   1</c></rc>
    <rc><c>C </c><c>   1</c></rc>
    <rc><c>C </c><c>   1</c></rc>
    <rc><c>C </c><c>   1</c></rc>
    <rc><c>C </c><c>   1</c></rc>
    <rc><c>C </c><c>   1</c></rc>
    <rc><c>C </c><c>   1</c></rc>
    <rc><c>C </c><c>   1</c></rc>
    <rc><c>C </c><c>   1</c></rc>
    <rc><c>C </c><c>   1</c></rc>
    <rc><c>C </c><c>   1</c></rc>
    <rc><c>C </c><c>   1</c></rc>
    <rc><c>C </c><c>   1</c></rc>
    <rc><c>C </c><c>   1</c></rc>
    <rc><c>C </c><c>   1</c></rc>
    <rc><c>C </c><c>   1</c></rc>
    <rc><c>C </c><c>   1</c></rc>
    <rc><c>C </c><c>   1</c></rc>
    <rc><c>C </c><c>   1</c></rc>
    <rc><c>C </c><c>   1</c></rc>
    <rc><c>C </c><c>   1</c></rc>
    <rc><c>C </c><c>   1</c></rc>
    <rc><c>C </c><c>   1</c></rc>
    <rc><c>C </c><c>   1</c></rc>
    <rc><c>C </c><c>   1</c></rc>
    <rc><c>C </c><c>   1</c></rc>
    <rc><c>C </c><c>   1</c></rc>
    <rc><c>C </c><c>   1</c></rc>
    <rc><c>C </c><c>   1</c></rc>
    <rc><c>C </c><c>   1</c></rc>
    <rc><c>C </c><c>   1</c></rc>
    <rc><c>C </c><c>   1</c></rc>
    <rc><c>C </c><c>   1</c></rc>
    <rc><c>C </c><c>   1</c></rc>
    <rc><c>C </c><c>   1</c></rc>
    <rc><c>C </c><c>   1</c></rc>
    <rc><c>C </c><c>   1</c></rc>
    <rc><c>C </c><c>   1</c></rc>
    <rc><c>C </c><c>   1</c></rc>
    <rc><c>C </c><c>   1</c></rc>
    <rc><c>C </c><c>   1</c></rc>
    <rc><c>C </c><c>   1</c></rc>
    <rc><c>C </c><c>   1</c></rc>
    <rc><c>C </c><c>   1</c></rc>
   </set>
  </array>
  <array name="atomtypes" >
   <dimension dim="1">type</dimension>
   <field type="int">atomspertype</field>
   <field type="string">element</field>
   <field>mass</field>
   <field>valence</field>
   <field type="string">pseudopotential</field>
   <set>
    <rc><c>  64</c><c>C </c><c>     12.01100000</c><c>      4.00000000</c><c> PAW_PBE C 08Apr2002                    </c></rc>
   </set>
  </array>
 </atominfo>
 <structure name="initialpos" >
  <crystal>
   <varray name="basis" >
    <v>       7.17999872       0.00000000       0.00000000 </v>
    <v>       0.21539936       7.17676605       0.00000000 </v>
    <v>       0.21539936       0.20903247       7.17372224 </v>
   </varray>
   <i name="volume">    369.65596022 </i>
   <varray name="rec_basis" >
    <v>       0.13927579      -0.00418014      -0.00406011 </v>
    <v>       0.00000000       0.13933853      -0.00406013 </v>
    <v>       0.00000000       0.00000000       0.13939765 </v>
   </varray>
  </crystal>
  <varray name="positions" >
   <v>       0.12500000       0.37500000       0.12500000 </v>
   <v>       0.62500000       0.37500000       0.12500000 </v>
   <v>       0.12500000       0.87500000       0.12500000 </v>
   <v>       0.62500000       0.87500000       0.12500000 </v>
   <v>       0.12500000       0.37500000       0.62500000 </v>
   <v>       0.62500000       0.37500000       0.62500000 </v>
   <v>       0.12500000       0.87500000       0.62500000 </v>
   <v>       0.62500000       0.87500000       0.62500000 </v>
   <v>       0.00000000       0.00000000       0.25000000 </v>
   <v>       0.50000000       0.00000000       0.25000000 </v>
   <v>       0.00000000       0.50000000       0.25000000 </v>
   <v>       0.50000000       0.50000000       0.25000000 </v>
   <v>       0.00000000       0.00000000       0.75000000 </v>
   <v>       0.50000000       0.00000000       0.75000000 </v>
   <v>       0.00000000       0.50000000       0.75000000 </v>
   <v>       0.50000000       0.50000000       0.75000000 </v>
   <v>       0.12500000       0.12500000       0.37500000 </v>
   <v>       0.62500000       0.12500000       0.37500000 </v>
   <v>       0.12500000       0.62500000       0.37500000 </v>
   <v>       0.62500000       0.62500000       0.37500000 </v>
   <v>       0.12500000       0.12500000       0.87500000 </v>
   <v>       0.62500000       0.12500000       0.87500000 </v>
   <v>       0.12500000       0.62500000       0.87500000 </v>
   <v>       0.62500000       0.62500000       0.87500000 </v>
   <v>       0.00000000       0.25000000       0.00000000 </v>
   <v>       0.50000000       0.25000000       0.00000000 </v>
   <v>       0.00000000       0.75000000       0.00000000 </v>
   <v>       0.50000000       0.75000000       0.00000000 </v>
   <v>       0.00000000       0.25000000       0.50000000 </v>
   <v>       0.50000000       0.25000000       0.50000000 </v>
   <v>       0.00000000       0.75000000       0.50000000 </v>
   <v>       0.50000000       0.75000000       0.50000000 </v>
   <v>       0.37500000       0.37500000       0.37500000 </v>
   <v>       0.87500000       0.37500000       0.37500000 </v>
   <v>       0.37500000       0.87500000       0.37500000 </v>
   <v>       0.87500000       0.87500000       0.37500000 </v>
   <v>       0.37500000       0.37500000       0.87500000 </v>
   <v>       0.87500000       0.37500000       0.87500000 </v>
   <v>       0.37500000       0.87500000       0.87500000 </v>
   <v>       0.87500000       0.87500000       0.87500000 </v>
   <v>       0.25000000       0.00000000       0.00000000 </v>
   <v>       0.75000000       0.00000000       0.00000000 </v>
   <v>       0.25000000       0.50000000       0.00000000 </v>
   <v>       0.75000000       0.50000000       0.00000000 </v>
   <v>       0.25000000       0.00000000       0.50000000 </v>
   <v>       0.75000000       0.00000000       0.50000000 </v>
   <v>       0.25000000       0.50000000       0.50000000 </v>
   <v>       0.75000000       0.50000000       0.50000000 </v>
   <v>       0.37500000       0.12500000       0.12500000 </v>
   <v>       0.87500000       0.12500000       0.12500000 </v>
   <v>       0.37500000       0.62500000       0.12500000 </v>
   <v>       0.87500000       0.62500000       0.12500000 </v>
   <v>       0.37500000       0.12500000       0.62500000 </v>
   <v>       0.87500000       0.12500000       0.62500000 </v>
   <v>       0.37500000       0.62500000       0.62500000 </v>
   <v>       0.87500000       0.62500000       0.62500000 </v>
   <v>       0.25000000       0.25000000       0.25000000 </v>
   <v>       0.75000000       0.25000000       0.25000000 </v>
   <v>       0.25000000       0.75000000       0.25000000 </v>
   <v>       0.75000000       0.75000000       0.25000000 </v>
   <v>       0.25000000       0.25000000       0.75000000 </v>
   <v>       0.75000000       0.25000000       0.75000000 </v>
   <v>       0.25000000       0.75000000       0.75000000 </v>
   <v>       0.75000000       0.75000000       0.75000000 </v>
  </varray>
 </structure>
 <calculation>
  <scstep>
   <time name="dav">   22.33   22.34</time>
   <time name="total">   22.45   22.54</time>
   <energy>
    <i name="alphaZ">    902.84693785 </i>
    <i name="ewald"> -11062.13741591 </i>
    <i name="hartreedc">   -579.07389569 </i>
    <i name="XCdc">    911.50484707 </i>
    <i name="pawpsdc">   2421.21235816 </i>
    <i name="pawaedc">  -2494.84305711 </i>
    <i name="eentropy">     -0.01194240 </i>
    <i name="bandstr">    992.02192710 </i>
    <i name="atom">   9416.14232778 </i>
    <i name="e_fr_energy">    507.66208685 </i>
    <i name="e_wo_entrp">    507.67402924 </i>
    <i name="e_0_energy">    507.66805804 </i>
   </energy>
  </scstep>
  <scstep>
   <time name="dav">   27.75   27.75</time>
   <time name="total">   27.75   27.75</time>
   <energy>
    <i name="e_fr_energy">   -557.68750172 </i>
    <i name="e_wo_entrp">   -557.68750172 </i>
    <i name="e_0_energy">   -557.68750172 </i>
   </energy>
  </scstep>
  <scstep>
   <time name="dav">   28.34   28.34</time>
   <time name="total">   28.34   28.34</time>
   <energy>
    <i name="e_fr_energy">   -599.25837572 </i>
    <i name="e_wo_entrp">   -599.25837572 </i>
    <i name="e_0_energy">   -599.25837572 </i>
   </energy>
  </scstep>
  <scstep>
   <time name="dav">   28.19   28.19</time>
   <time name="total">   28.19   28.19</time>
   <energy>
    <i name="e_fr_energy">   -599.71564765 </i>
    <i name="e_wo_entrp">   -599.71564765 </i>
    <i name="e_0_energy">   -599.71564765 </i>
   </energy>
  </scstep>
  <scstep>
   <time name="dav">   25.89   25.89</time>
   <time name="total">   26.55   26.55</time>
   <energy>
    <i name="e_fr_energy">   -599.72549712 </i>
    <i name="e_wo_entrp">   -599.72549712 </i>
    <i name="e_0_energy">   -599.72549712 </i>
   </energy>
  </scstep>
  <scstep>
   <time name="dav">   25.44   25.44</time>
   <time name="total">   26.20   26.20</time>
   <energy>
    <i name="e_fr_energy">   -585.15060915 </i>
    <i name="e_wo_entrp">   -585.15060915 </i>
    <i name="e_0_energy">   -585.15060915 </i>
   </energy>
  </scstep>
  <scstep>
   <time name="dav">   26.27   26.28</time>
   <time name="total">   27.05   27.05</time>
   <energy>
    <i name="e_fr_energy">   -580.23954623 </i>
    <i name="e_wo_entrp">   -580.23954623 </i>
    <i name="e_0_energy">   -580.23954623 </i>
   </energy>
  </scstep>
  <scstep>
   <time name="dav">   26.12   26.12</time>
   <time name="total">   26.88   26.88</time>
   <energy>
    <i name="e_fr_energy">   -580.30133306 </i>
    <i name="e_wo_entrp">   -580.30133306 </i>
    <i name="e_0_energy">   -580.30133306 </i>
   </energy>
  </scstep>
  <scstep>
   <time name="dav">   27.64   27.64</time>
   <time name="total">   28.41   28.41</time>
   <energy>
    <i name="e_fr_energy">   -580.30359402 </i>
    <i name="e_wo_entrp">   -580.30359402 </i>
    <i name="e_0_energy">   -580.30359402 </i>
   </energy>
  </scstep>
  <scstep>
   <time name="dav">   25.28   25.28</time>
   <time name="total">   26.04   26.04</time>
   <energy>
    <i name="e_fr_energy">   -580.30407548 </i>
    <i name="e_wo_entrp">   -580.30407548 </i>
    <i name="e_0_energy">   -580.30407548 </i>
   </energy>
  </scstep>
  <scstep>
   <time name="dav">   27.99   27.99</time>
   <time name="total">   28.76   28.76</time>
   <energy>
    <i name="e_fr_energy">   -580.30408872 </i>
    <i name="e_wo_entrp">   -580.30408872 </i>
    <i name="e_0_energy">   -580.30408872 </i>
   </energy>
  </scstep>
  <scstep>
   <time name="dav">   27.35   27.35</time>
   <time name="total">   28.11   28.11</time>
   <energy>
    <i name="e_fr_energy">   -580.30408894 </i>
    <i name="e_wo_entrp">   -580.30408894 </i>
    <i name="e_0_energy">   -580.30408894 </i>
   </energy>
  </scstep>
  <scstep>
   <time name="dav">   23.50   23.50</time>
   <time name="total">   24.27   24.28</time>
   <energy>
    <i name="e_fr_energy">   -580.30408899 </i>
    <i name="e_wo_entrp">   -580.30408899 </i>
    <i name="e_0_energy">   -580.30408899 </i>
   </energy>
  </scstep>
  <scstep>
   <time name="dav">   21.73   21.74</time>
   <time name="total">   22.49   22.50</time>
   <energy>
    <i name="e_fr_energy">   -580.30408903 </i>
    <i name="e_wo_entrp">   -580.30408903 </i>
    <i name="e_0_energy">   -580.30408903 </i>
   </energy>
  </scstep>
  <scstep>
   <time name="dav">   19.34   19.34</time>
   <time name="total">   19.47   19.47</time>
   <energy>
    <i name="alphaZ">    902.84693785 </i>
    <i name="ewald"> -11062.13741591 </i>
    <i name="hartreedc">   -855.93447100 </i>
    <i name="XCdc">    937.51508630 </i>
    <i name="pawpsdc">   4146.75267474 </i>
    <i name="pawaedc">  -4227.39256254 </i>
    <i name="eentropy">     -0.00000000 </i>
    <i name="bandstr">    161.90333375 </i>
    <i name="atom">   9416.14232778 </i>
    <i name="e_fr_energy">   -580.30408903 </i>
    <i name="e_wo_entrp">   -580.30408903 </i>
    <i name="e_0_energy">   -580.30408903 </i>
   </energy>
  </scstep>
  <structure>
   <crystal>
    <varray name="basis" >
     <v>       7.17999872       0.00000000       0.00000000 </v>
     <v>       0.21539936       7.17676605       0.00000000 </v>
     <v>       0.21539936       0.20903247       7.17372224 </v>
    </varray>
    <i name="volume">    369.65596022 </i>
    <varray name="rec_basis" >
     <v>       0.13927579      -0.00418014      -0.00406011 </v>
     <v>       0.00000000       0.13933853      -0.00406013 </v>
     <v>       0.00000000       0.00000000       0.13939765 </v>
    </varray>
   </crystal>
   <varray name="positions" >
    <v>       0.12500000       0.37500000       0.12500000 </v>
    <v>       0.62500000       0.37500000       0.12500000 </v>
    <v>       0.12500000       0.87500000       0.12500000 </v>
    <v>       0.62500000       0.87500000       0.12500000 </v>
    <v>       0.12500000       0.37500000       0.62500000 </v>
    <v>       0.62500000       0.37500000       0.62500000 </v>
    <v>       0.12500000       0.87500000       0.62500000 </v>
    <v>       0.62500000       0.87500000       0.62500000 </v>
    <v>       0.00000000       0.00000000       0.25000000 </v>
    <v>       0.50000000       0.00000000       0.25000000 </v>
    <v>       0.00000000       0.50000000       0.25000000 </v>
    <v>       0.50000000       0.50000000       0.25000000 </v>
    <v>       0.00000000       0.00000000       0.75000000 </v>
    <v>       0.50000000       0.00000000       0.75000000 </v>
    <v>       0.00000000       0.50000000       0.75000000 </v>
    <v>       0.50000000       0.50000000       0.75000000 </v>
    <v>       0.12500000       0.12500000       0.37500000 </v>
    <v>       0.62500000       0.12500000       0.37500000 </v>
    <v>       0.12500000       0.62500000       0.37500000 </v>
    <v>       0.62500000       0.62500000       0.37500000 </v>
    <v>       0.12500000       0.12500000       0.87500000 </v>
    <v>       0.62500000       0.12500000       0.87500000 </v>
    <v>       0.12500000       0.62500000       0.87500000 </v>
    <v>       0.62500000       0.62500000       0.87500000 </v>
    <v>       0.00000000       0.25000000       0.00000000 </v>
    <v>       0.50000000       0.25000000       0.00000000 </v>
    <v>       0.00000000       0.75000000       0.00000000 </v>
    <v>       0.50000000       0.75000000       0.00000000 </v>
    <v>       0.00000000       0.25000000       0.50000000 </v>
    <v>       0.50000000       0.25000000       0.50000000 </v>
    <v>       0.00000000       0.75000000       0.50000000 </v>
    <v>       0.50000000       0.75000000       0.50000000 </v>
    <v>       0.37500000       0.37500000       0.37500000 </v>
    <v>       0.87500000       0.37500000       0.37500000 </v>
    <v>       0.37500000       0.87500000       0.37500000 </v>
    <v>       0.87500000       0.87500000       0.37500000 </v>
    <v>       0.37500000       0.37500000       0.87500000 </v>
    <v>       0.87500000       0.37500000       0.87500000 </v>
    <v>       0.37500000       0.87500000       0.87500000 </v>
    <v>       0.87500000       0.87500000       0.87500000 </v>
    <v>       0.25000000       0.00000000       0.00000000 </v>
    <v>       0.75000000       0.00000000       0.00000000 </v>
    <v>       0.25000000       0.50000000       0.00000000 </v>
    <v>       0.75000000       0.50000000       0.00000000 </v>
    <v>       0.25000000       0.00000000       0.50000000 </v>
    <v>       0.75000000       0.00000000       0.50000000 </v>
    <v>       0.25000000       0.50000000       0.50000000 </v>
    <v>       0.75000000       0.50000000       0.50000000 </v>
    <v>       0.37500000       0.12500000       0.12500000 </v>
    <v>       0.87500000       0.12500000       0.12500000 </v>
    <v>       0.37500000       0.62500000       0.12500000 </v>
    <v>       0.87500000       0.62500000       0.12500000 </v>
    <v>       0.37500000       0.12500000       0.62500000 </v>
    <v>       0.87500000       0.12500000       0.62500000 </v>
    <v>       0.37500000       0.62500000       0.62500000 </v>
    <v>       0.87500000       0.62500000       0.62500000 </v>
    <v>       0.25000000       0.25000000       0.25000000 </v>
    <v>       0.75000000       0.25000000       0.25000000 </v>
    <v>       0.25000000       0.75000000       0.25000000 </v>
    <v>       0.75000000       0.75000000       0.25000000 </v>
    <v>       0.25000000       0.25000000       0.75000000 </v>
    <v>       0.75000000       0.25000000       0.75000000 </v>
    <v>       0.25000000       0.75000000       0.75000000 </v>
    <v>       0.75000000       0.75000000       0.75000000 </v>
   </varray>
  </structure>
  <varray name="forces" >
   <v>       0.00147503       0.00143142       0.00139032 </v>
   <v>       0.00147503       0.00143142       0.00139032 </v>
   <v>       0.00147503       0.00143142       0.00139032 </v>
   <v>       0.00147503       0.00143142       0.00139032 </v>
   <v>       0.00147503       0.00143142       0.00139032 </v>
   <v>       0.00147503       0.00143142       0.00139032 </v>
   <v>       0.00147503       0.00143142       0.00139032 </v>
   <v>       0.00147503       0.00143142       0.00139032 </v>
   <v>      -0.00147503      -0.00143142      -0.00139032 </v>
   <v>      -0.00147503      -0.00143142      -0.00139032 </v>
   <v>      -0.00147503      -0.00143142      -0.00139032 </v>
   <v>      -0.00147503      -0.00143142      -0.00139032 </v>
   <v>      -0.00147503      -0.00143142      -0.00139032 </v>
   <v>      -0.00147503      -0.00143142      -0.00139032 </v>
   <v>      -0.00147503      -0.00143142      -0.00139032 </v>
   <v>      -0.00147503      -0.00143142      -0.00139032 </v>
   <v>       0.00147503       0.00143142       0.00139032 </v>
   <v>       0.00147503       0.00143142       0.00139032 </v>
   <v>       0.00147503       0.00143142       0.00139032 </v>
   <v>       0.00147503       0.00143142       0.00139032 </v>
   <v>       0.00147503       0.00143142       0.00139032 </v>
   <v>       0.00147503       0.00143142       0.00139032 </v>
   <v>       0.00147503       0.00143142       0.00139032 </v>
   <v>       0.00147503       0.00143142       0.00139032 </v>
   <v>      -0.00147503      -0.00143142      -0.00139032 </v>
   <v>      -0.00147503      -0.00143142      -0.00139032 </v>
   <v>      -0.00147503      -0.00143142      -0.00139032 </v>
   <v>      -0.00147503      -0.00143142      -0.00139032 </v>
   <v>      -0.00147503      -0.00143142      -0.00139032 </v>
   <v>      -0.00147503      -0.00143142      -0.00139032 </v>
   <v>      -0.00147503      -0.00143142      -0.00139032 </v>
   <v>      -0.00147503      -0.00143142      -0.00139032 </v>
   <v>       0.00147503       0.00143142       0.00139032 </v>
   <v>       0.00147503       0.00143142       0.00139032 </v>
   <v>       0.00147503       0.00143142       0.00139032 </v>
   <v>       0.00147503       0.00143142       0.00139032 </v>
   <v>       0.00147503       0.00143142       0.00139032 </v>
   <v>       0.00147503       0.00143142       0.00139032 </v>
   <v>       0.00147503       0.00143142       0.00139032 </v>
   <v>       0.00147503       0.00143142       0.00139032 </v>
   <v>      -0.00147503      -0.00143142      -0.00139032 </v>
   <v>      -0.00147503      -0.00143142      -0.00139032 </v>
   <v>      -0.00147503      -0.00143142      -0.00139032 </v>
   <v>      -0.00147503      -0.00143142      -0.00139032 </v>
   <v>      -0.00147503      -0.00143142      -0.00139032 </v>
   <v>      -0.00147503      -0.00143142      -0.00139032 </v>
   <v>      -0.00147503      -0.00143142      -0.00139032 </v>
   <v>      -0.00147503      -0.00143142      -0.00139032 </v>
   <v>       0.00147503       0.00143142       0.00139032 </v>
   <v>       0.00147503       0.00143142       0.00139032 </v>
   <v>       0.00147503       0.00143142       0.00139032 </v>
   <v>       0.00147503       0.00143142       0.00139032 </v>
   <v>       0.00147503       0.00143142       0.00139032 </v>
   <v>       0.00147503       0.00143142       0.00139032 </v>
   <v>       0.00147503       0.00143142       0.00139032 </v>
   <v>       0.00147503       0.00143142       0.00139032 </v>
   <v>      -0.00147503      -0.00143142      -0.00139032 </v>
   <v>      -0.00147503      -0.00143142      -0.00139032 </v>
   <v>      -0.00147503      -0.00143142      -0.00139032 </v>
   <v>      -0.00147503      -0.00143142      -0.00139032 </v>
   <v>      -0.00147503      -0.00143142      -0.00139032 </v>
   <v>      -0.00147503      -0.00143142      -0.00139032 </v>
   <v>      -0.00147503      -0.00143142      -0.00139032 </v>
   <v>      -0.00147503      -0.00143142      -0.00139032 </v>
  </varray>
  <varray name="stress" >
   <v>     -94.00424280    -161.78708874    -157.14152415 </v>
   <v>    -161.78708874     -84.29269419    -152.49592015 </v>
   <v>    -157.14152415    -152.49592015     -75.40566956 </v>
  </varray>
  <energy>
   <i name="e_fr_energy">   -580.30408903 </i>
   <i name="e_wo_entrp">   -580.30408903 </i>
   <i name="e_0_energy">     -0.00000000 </i>
  </energy>
  <kpoints>
   <generation param="Gamma">
    <v type="int" name="divisions">       6        6        6 </v>
    <v name="usershift">      0.00000000       0.00000000       0.00000000 </v>
    <v name="genvec1">      0.16666667      -0.00000000       0.00000000 </v>
    <v name="genvec2">      0.00000000       0.16666667       0.00000000 </v>
    <v name="genvec3">      0.00000000       0.00000000       0.16666667 </v>
    <v name="shift">      0.00000000       0.00000000       0.00000000 </v>
   </generation>
   <varray name="kpointlist" >
    <v>       0.00000000       0.00000000       0.00000000 </v>
    <v>       0.16666667       0.00000000       0.00000000 </v>
    <v>       0.33333333       0.00000000      -0.00000000 </v>
    <v>       0.50000000       0.00000000      -0.00000000 </v>
    <v>       0.00000000       0.16666667      -0.00000000 </v>
    <v>       0.16666667       0.16666667      -0.00000000 </v>
    <v>       0.33333333       0.16666667      -0.00000000 </v>
    <v>       0.50000000       0.16666667      -0.00000000 </v>
    <v>      -0.33333333       0.16666667      -0.00000000 </v>
    <v>      -0.16666667       0.16666667      -0.00000000 </v>
    <v>       0.00000000       0.33333333      -0.00000000 </v>
    <v>       0.16666667       0.33333333      -0.00000000 </v>
    <v>       0.33333333       0.33333333      -0.00000000 </v>
    <v>       0.50000000       0.33333333       0.00000000 </v>
    <v>      -0.33333333       0.33333333      -0.00000000 </v>
    <v>      -0.16666667       0.33333333      -0.00000000 </v>
    <v>       0.00000000       0.50000000      -0.00000000 </v>
    <v>       0.16666667       0.50000000      -0.00000000 </v>
    <v>       0.33333333       0.50000000      -0.00000000 </v>
    <v>       0.50000000       0.50000000      -0.00000000 </v>
    <v>       0.00000000       0.16666667       0.16666667 </v>
    <v>       0.16666667       0.16666667       0.16666667 </v>
    <v>       0.33333333       0.16666667       0.16666667 </v>
    <v>       0.50000000       0.16666667       0.16666667 </v>
    <v>      -0.33333333       0.16666667       0.16666667 </v>
    <v>      -0.16666667       0.16666667       0.16666667 </v>
    <v>       0.00000000       0.33333333       0.16666667 </v>
    <v>       0.16666667       0.33333333       0.16666667 </v>
    <v>       0.33333333       0.33333333       0.16666667 </v>
    <v>       0.50000000       0.33333333       0.16666667 </v>
    <v>      -0.33333333       0.33333333       0.16666667 </v>
    <v>      -0.16666667       0.33333333       0.16666667 </v>
    <v>       0.00000000       0.50000000       0.16666667 </v>
    <v>       0.16666667       0.50000000       0.16666667 </v>
    <v>       0.33333333       0.50000000       0.16666667 </v>
    <v>       0.50000000       0.50000000       0.16666667 </v>
    <v>      -0.33333333       0.50000000       0.16666667 </v>
    <v>      -0.16666667       0.50000000       0.16666667 </v>
    <v>       0.00000000      -0.33333333       0.16666667 </v>
    <v>       0.16666667      -0.33333333       0.16666667 </v>
    <v>       0.33333333      -0.33333333       0.16666667 </v>
    <v>       0.50000000      -0.33333333       0.16666667 </v>
    <v>      -0.33333333      -0.33333333       0.16666667 </v>
    <v>      -0.16666667      -0.33333333       0.16666667 </v>
    <v>       0.00000000      -0.16666667       0.16666667 </v>
    <v>       0.16666667      -0.16666667       0.16666667 </v>
    <v>       0.33333333      -0.16666667       0.16666667 </v>
    <v>       0.50000000      -0.16666667       0.16666667 </v>
    <v>       0.00000000       0.33333333       0.33333333 </v>
    <v>       0.16666667       0.33333333       0.33333333 </v>
    <v>       0.33333333       0.33333333       0.33333333 </v>
    <v>       0.50000000       0.33333333       0.33333333 </v>
    <v>      -0.33333333       0.33333333       0.33333333 </v>
    <v>      -0.16666667       0.33333333       0.33333333 </v>
    <v>       0.00000000       0.50000000       0.33333333 </v>
    <v>       0.16666667       0.50000000       0.33333333 </v>
    <v>       0.33333333       0.50000000       0.33333333 </v>
    <v>       0.50000000       0.50000000       0.33333333 </v>
    <v>      -0.33333333       0.50000000       0.33333333 </v>
    <v>      -0.16666667       0.50000000       0.33333333 </v>
    <v>       0.00000000      -0.33333333       0.33333333 </v>
    <v>       0.16666667      -0.33333333       0.33333333 </v>
    <v>       0.33333333      -0.33333333       0.33333333 </v>
    <v>       0.50000000      -0.33333333       0.33333333 </v>
    <v>       0.00000000       0.50000000       0.50000000 </v>
    <v>       0.16666667       0.50000000       0.50000000 </v>
    <v>       0.33333333       0.50000000       0.50000000 </v>
    <v>       0.50000000       0.50000000       0.50000000 </v>
   </varray>
   <varray name="weights" >
    <v>       0.00462963 </v>
    <v>       0.00925926 </v>
    <v>       0.00925926 </v>
    <v>       0.00462963 </v>
    <v>       0.01851852 </v>
    <v>       0.01851852 </v>
    <v>       0.01851852 </v>
    <v>       0.01851852 </v>
    <v>       0.01851852 </v>
    <v>       0.01851852 </v>
    <v>       0.01851852 </v>
    <v>       0.01851852 </v>
    <v>       0.01851852 </v>
    <v>       0.01851852 </v>
    <v>       0.01851852 </v>
    <v>       0.01851852 </v>
    <v>       0.00925926 </v>
    <v>       0.01851852 </v>
    <v>       0.01851852 </v>
    <v>       0.00925926 </v>
    <v>       0.00925926 </v>
    <v>       0.00925926 </v>
    <v>       0.00925926 </v>
    <v>       0.00925926 </v>
    <v>       0.00925926 </v>
    <v>       0.00925926 </v>
    <v>       0.01851852 </v>
    <v>       0.01851852 </v>
    <v>       0.01851852 </v>
    <v>       0.01851852 </v>
    <v>       0.01851852 </v>
    <v>       0.01851852 </v>
    <v>       0.01851852 </v>
    <v>       0.01851852 </v>
    <v>       0.01851852 </v>
    <v>       0.01851852 </v>
    <v>       0.01851852 </v>
    <v>       0.01851852 </v>
    <v>       0.01851852 </v>
    <v>       0.01851852 </v>
    <v>       0.01851852 </v>
    <v>       0.01851852 </v>
    <v>       0.01851852 </v>
    <v>       0.01851852 </v>
    <v>       0.00925926 </v>
    <v>       0.01851852 </v>
    <v>       0.01851852 </v>
    <v>       0.00925926 </v>
    <v>       0.00925926 </v>
    <v>       0.00925926 </v>
    <v>       0.00925926 </v>
    <v>       0.00925926 </v>
    <v>       0.00925926 </v>
    <v>       0.00925926 </v>
    <v>       0.01851852 </v>
    <v>       0.01851852 </v>
    <v>       0.01851852 </v>
    <v>       0.01851852 </v>
    <v>       0.01851852 </v>
    <v>       0.01851852 </v>
    <v>       0.00925926 </v>
    <v>       0.01851852 </v>
    <v>       0.01851852 </v>
    <v>       0.00925926 </v>
    <v>       0.00462963 </v>
    <v>       0.00925926 </v>
    <v>       0.00925926 </v>
    <v>       0.00462963 </v>
   </varray>
  </kpoints>
  <scstep>
   <time name="total">   56.55   56.55</time>
   <energy>
    <i name="e_fr_energy">   -362.73651122 </i>
    <i name="e_wo_entrp">   -362.73651122 </i>
    <i name="e_0_energy">   -362.73651122 </i>
   </energy>
  </scstep>
  <scstep>
   <time name="total">   42.26   42.27</time>
   <energy>
    <i name="e_fr_energy">   -308.76466642 </i>
    <i name="e_wo_entrp">   -308.76466642 </i>
    <i name="e_0_energy">   -308.76466642 </i>
   </energy>
  </scstep>
  <scstep>
   <time name="total">   45.23   45.23</time>
   <energy>
    <i name="e_fr_energy">   -308.39553637 </i>
    <i name="e_wo_entrp">   -308.39553637 </i>
    <i name="e_0_energy">   -308.39553637 </i>
   </energy>
  </scstep>
  <scstep>
   <time name="total">   42.62   42.62</time>
   <energy>
    <i name="e_fr_energy">   -309.04108576 </i>
    <i name="e_wo_entrp">   -309.04108576 </i>
    <i name="e_0_energy">   -309.04108576 </i>
   </energy>
  </scstep>
  <scstep>
   <time name="total">   43.32   43.33</time>
   <energy>
    <i name="e_fr_energy">   -309.24714052 </i>
    <i name="e_wo_entrp">   -309.24714052 </i>
    <i name="e_0_energy">   -309.24714052 </i>
   </energy>
  </scstep>
  <scstep>
   <time name="total">   43.50   43.50</time>
   <energy>
    <i name="e_fr_energy">   -309.20416415 </i>
    <i name="e_wo_entrp">   -309.20416415 </i>
    <i name="e_0_energy">   -309.20416415 </i>
   </energy>
  </scstep>
  <scstep>
   <time name="total">   44.12   44.12</time>
   <energy>
    <i name="e_fr_energy">   -309.18296122 </i>
    <i name="e_wo_entrp">   -309.18296122 </i>
    <i name="e_0_energy">   -309.18296122 </i>
   </energy>
  </scstep>
  <scstep>
   <time name="total">   45.19   45.19</time>
   <energy>
    <i name="e_fr_energy">   -309.18165764 </i>
    <i name="e_wo_entrp">   -309.18165764 </i>
    <i name="e_0_energy">   -309.18165764 </i>
   </energy>
  </scstep>
  <scstep>
   <time name="total">   46.05   46.05</time>
   <energy>
    <i name="e_fr_energy">   -309.18103382 </i>
    <i name="e_wo_entrp">   -309.18103382 </i>
    <i name="e_0_energy">   -309.18103382 </i>
   </energy>
  </scstep>
  <scstep>
   <time name="total">   46.51   46.52</time>
   <energy>
    <i name="e_fr_energy">   -309.18122143 </i>
    <i name="e_wo_entrp">   -309.18122143 </i>
    <i name="e_0_energy">   -309.18122143 </i>
   </energy>
  </scstep>
  <scstep>
   <time name="total">   46.36   46.36</time>
   <energy>
    <i name="e_fr_energy">   -309.18122674 </i>
    <i name="e_wo_entrp">   -309.18122674 </i>
    <i name="e_0_energy">   -309.18122674 </i>
   </energy>
  </scstep>
  <kpoints>
   <generation param="Gamma">
    <v type="int" name="divisions">       6        6        6 </v>
    <v name="usershift">      0.00000000       0.00000000       0.00000000 </v>
    <v name="genvec1">      0.16666667      -0.00000000       0.00000000 </v>
    <v name="genvec2">      0.00000000       0.16666667       0.00000000 </v>
    <v name="genvec3">      0.00000000       0.00000000       0.16666667 </v>
    <v name="shift">      0.00000000       0.00000000       0.00000000 </v>
   </generation>
   <varray name="kpointlist" >
    <v>       0.00000000       0.00000000       0.00000000 </v>
    <v>       0.16666667       0.00000000       0.00000000 </v>
    <v>       0.33333333       0.00000000      -0.00000000 </v>
    <v>       0.50000000       0.00000000      -0.00000000 </v>
    <v>       0.16666667       0.16666667      -0.00000000 </v>
    <v>       0.33333333       0.16666667      -0.00000000 </v>
    <v>       0.50000000       0.16666667      -0.00000000 </v>
    <v>      -0.33333333       0.16666667      -0.00000000 </v>
    <v>      -0.16666667       0.16666667      -0.00000000 </v>
    <v>       0.33333333       0.33333333      -0.00000000 </v>
    <v>       0.50000000       0.33333333       0.00000000 </v>
    <v>      -0.33333333       0.33333333      -0.00000000 </v>
    <v>       0.50000000       0.50000000      -0.00000000 </v>
    <v>       0.16666667       0.16666667       0.16666667 </v>
    <v>       0.33333333       0.16666667       0.16666667 </v>
    <v>       0.50000000       0.16666667       0.16666667 </v>
    <v>      -0.33333333       0.16666667       0.16666667 </v>
    <v>      -0.16666667       0.16666667       0.16666667 </v>
    <v>       0.33333333       0.33333333       0.16666667 </v>
    <v>       0.50000000       0.33333333       0.16666667 </v>
    <v>      -0.33333333       0.33333333       0.16666667 </v>
    <v>      -0.16666667       0.33333333       0.16666667 </v>
    <v>       0.50000000       0.50000000       0.16666667 </v>
    <v>      -0.33333333       0.50000000       0.16666667 </v>
    <v>      -0.16666667       0.50000000       0.16666667 </v>
    <v>      -0.33333333      -0.33333333       0.16666667 </v>
    <v>       0.33333333       0.33333333       0.33333333 </v>
    <v>       0.50000000       0.33333333       0.33333333 </v>
    <v>      -0.33333333       0.33333333       0.33333333 </v>
    <v>       0.50000000       0.50000000       0.33333333 </v>
    <v>      -0.33333333       0.50000000       0.33333333 </v>
    <v>       0.50000000       0.50000000       0.50000000 </v>
   </varray>
   <varray name="weights" >
    <v>       0.00462963 </v>
    <v>       0.02777778 </v>
    <v>       0.02777778 </v>
    <v>       0.01388889 </v>
    <v>       0.02777778 </v>
    <v>       0.05555556 </v>
    <v>       0.05555556 </v>
    <v>       0.05555556 </v>
    <v>       0.02777778 </v>
    <v>       0.02777778 </v>
    <v>       0.05555556 </v>
    <v>       0.02777778 </v>
    <v>       0.01388889 </v>
    <v>       0.00925926 </v>
    <v>       0.02777778 </v>
    <v>       0.02777778 </v>
    <v>       0.02777778 </v>
    <v>       0.02777778 </v>
    <v>       0.02777778 </v>
    <v>       0.05555556 </v>
    <v>       0.05555556 </v>
    <v>       0.05555556 </v>
    <v>       0.02777778 </v>
    <v>       0.05555556 </v>
    <v>       0.02777778 </v>
    <v>       0.02777778 </v>
    <v>       0.00925926 </v>
    <v>       0.02777778 </v>
    <v>       0.02777778 </v>
    <v>       0.02777778 </v>
    <v>       0.02777778 </v>
    <v>       0.00462963 </v>
   </varray>
  </kpoints>
  <dynmat>
   <varray name="hessian" >
    <v>      -3.56355966       0.22427068       0.21783096       0.01350897       0.00027378       0.00026592       0.00773452       0.00044709      -0.00006170       0.00945777      -0.00145338      -0.00041909       0.00773452      -0.00004865       0.00044870       0.00945777      -0.00046125      -0.00144055      -0.04691693       0.00123075       0.00119541       0.00437973       0.00032539       0.00031605      -0.01146162      -0.00590539       0.00092354       0.00766290      -0.01109306      -0.01826090       0.76496018      -0.20509553      -0.19920640      -0.00838994      -0.00894517      -0.00868831       0.02458710      -0.01789916      -0.01738520      -0.00271000      -0.00276621      -0.00268678      -0.01146162       0.00075115      -0.00592978       0.00766290      -0.01857625      -0.01055649      -0.11768765       0.06283542      -0.06142468      -0.00489990       0.00332405      -0.00249206      -0.10985644       0.06339832       0.06157790      -0.00403730       0.00398962       0.00387506      -0.10985644      -0.04665809      -0.04531834      -0.00403730      -0.00269107      -0.00261380      -0.11768765      -0.05956845       0.06459785      -0.00489990      -0.00239418       0.00339522       0.62049236       0.02768139       0.02688655      -0.00525149       0.00897849       0.00872068      -0.01235474       0.00919168      -0.00253674       0.00712758       0.00657956       0.01594423      -0.01235474      -0.00226794       0.00926167       0.00712758       0.01612910       0.00611237       0.02967089       0.01545250       0.01500880      -0.00217710       0.00263647       0.00256076       0.11931175      -0.05353618       0.12051113       0.12896906      -0.06697149      -0.13941660       0.00682303      -0.00301703      -0.00566578       0.00699320      -0.00275113       0.00660330       0.12896906       0.05543240      -0.13995818       0.11931175       0.05652021       0.11730425       0.00699320       0.00296710       0.00682519       0.00682303       0.00366366      -0.00586044      -0.01454223       0.00707413       0.00063783       0.00253858       0.00514018      -0.01739450       0.78345748       0.20266683      -0.21164339      -0.00403711       0.00675884      -0.00632777       0.02958690       0.01770818      -0.01975842      -0.00310201       0.00211714      -0.00281731      -0.01287966      -0.00381310      -0.00870305       0.00880186       0.01833201      -0.01166614       0.12896906      -0.13828424       0.05948535       0.11931175       0.11890069       0.05307960       0.11931175       0.11890067      -0.05702352       0.12896906      -0.14130806      -0.06288240       0.00699320       0.00690871       0.00276705       0.00682303      -0.00575125       0.00383280       0.00682303      -0.00575125      -0.00285073       0.00699320       0.00652037      -0.00294230       0.78345748      -0.20565064       0.20874525      -0.00403711      -0.00612822       0.00694028      -0.01287966      -0.00881041      -0.00355800       0.00880186      -0.01112724       0.01866403      -0.01454223       0.00084361       0.00705256       0.00253858      -0.01723740       0.00564464       0.02958690      -0.01923426       0.01827616      -0.00310201      -0.00275445       0.00219830 </v>
    <v>       0.22427068      -3.57702091       0.21139066       0.00027378       0.00771288      -0.00006970       0.00044709       0.01348733       0.00026789      -0.00145338       0.00954501      -0.00040671      -0.00004865       0.00773744       0.00043543      -0.00046125      -0.04694001       0.00123919       0.00123075       0.00943467      -0.00147708       0.00032539       0.00436020       0.00030670      -0.00590539      -0.00367594       0.00691568      -0.01109306       0.00946877       0.01922050      -0.20509553       0.79578522       0.21481820      -0.00894517      -0.01234676      -0.00329884      -0.01789916       0.00359315       0.00616897      -0.00276621      -0.00293632       0.00227992       0.00075115      -0.01459009       0.00723370      -0.01857625       0.03072172       0.01860122      -0.05956845       0.12909312      -0.13763578      -0.00239418       0.00697600       0.00668107      -0.04665809       0.11901575       0.11871723      -0.00269107       0.00679383      -0.00578463       0.06339832       0.11901575       0.11871723       0.00398962       0.00679383      -0.00578463       0.06283542       0.12909312      -0.14195996       0.00332405       0.00697600       0.00672636       0.02768139       0.61883058       0.02609178       0.00897849      -0.01290009      -0.00279962       0.00919168      -0.00579684       0.00880074       0.00657956       0.00673263       0.01547287      -0.00226794      -0.01221860       0.00898786       0.01612910       0.02872301       0.01483210       0.01545250       0.00617970       0.00566466       0.00263647      -0.00233536       0.00248506       0.05652021      -0.11015241       0.05798869       0.05543240      -0.11756348      -0.05726795       0.00366366      -0.00406649       0.00404685       0.00296710      -0.00491709      -0.00269137      -0.06697149      -0.11756348       0.06882757      -0.05353618      -0.11015241      -0.04885943      -0.00275113      -0.00491709       0.00319190      -0.00301703      -0.00406649      -0.00243909       0.00707413      -0.00445229      -0.00634976       0.00514018       0.00223003      -0.01688026       0.20266683       0.77129176      -0.20538641       0.00675884      -0.01495741       0.00082804       0.01770818       0.00772017      -0.01107837       0.00211714      -0.00322910      -0.00273402      -0.00381310      -0.01265078      -0.00844576       0.01833201       0.02850520      -0.01941717      -0.14130806       0.13736054      -0.06469609       0.11890067       0.11217448       0.05151038       0.11890069       0.11217448      -0.05533773      -0.13828424       0.13736054       0.06139943       0.00652037       0.00659014      -0.00302667      -0.00575125       0.00716826       0.00371949      -0.00575125       0.00716826      -0.00276645       0.00690871       0.00659014       0.00285660      -0.20565064       0.77728782      -0.20556113      -0.00612822      -0.01110044       0.00071565      -0.00881041      -0.00785704      -0.00858544      -0.01112724       0.00832980      -0.01882929       0.00084361      -0.01150948      -0.00614412      -0.01723740       0.02564166      -0.01756244      -0.01923426       0.00879771      -0.01110977      -0.00275445      -0.00254430      -0.00275397 </v>
    <v>       0.21783096       0.21139066      -3.58934118       0.00026592      -0.00006970       0.00771695      -0.00006170       0.00026789       0.00771695      -0.00041909      -0.00040671      -0.04696428       0.00044870       0.00043543       0.01346684      -0.00144055       0.00123919       0.00952075       0.00119541      -0.00147708       0.00952075       0.00031605       0.00030670       0.00434232       0.00092354       0.00691568      -0.01500239      -0.01826090       0.01922050       0.02961965      -0.19920640       0.21481820       0.78326643      -0.00868831      -0.00329884      -0.01215451      -0.01738520       0.00616897       0.00323364      -0.00268678       0.00227992      -0.00306919      -0.00592978       0.00723370      -0.00408823      -0.01055649       0.01860122       0.00836670       0.06459785      -0.14195996       0.13724019       0.00339522       0.00672636       0.00658533      -0.04531834       0.11871723       0.11209727      -0.00261380      -0.00578463       0.00713095       0.06157790       0.11871723       0.11209727       0.00387506      -0.00578463       0.00713095      -0.06142468      -0.13763578       0.13724019      -0.00249206       0.00668107       0.00658533       0.02688655       0.02609178       0.61731019       0.00872068      -0.00279962      -0.01273694      -0.00253674       0.00880074      -0.01273694       0.01594423       0.01547287       0.02783997       0.00926167       0.00898786      -0.00631518       0.00611237       0.01483210       0.00584958       0.01500880       0.00566466       0.00584958       0.00256076       0.00248506      -0.00248018       0.11730425      -0.04885943       0.11209727      -0.13995818       0.06882757       0.13724019      -0.00586044      -0.00243909       0.00713095       0.00682519       0.00319190       0.00658533      -0.13941660      -0.05726795       0.13724019       0.12051113       0.05798869       0.11209727       0.00660330      -0.00269137       0.00658533      -0.00566578       0.00404685       0.00713095       0.00063783      -0.00634976      -0.01114543      -0.01739450      -0.01688026       0.02664528      -0.21164339      -0.20538641       0.78926249      -0.00632777       0.00082804      -0.01114543      -0.01975842      -0.01107837       0.00944425      -0.00281731      -0.00273402      -0.00238439      -0.00870305      -0.00844576      -0.00736077      -0.01166614      -0.01941717       0.00944425      -0.06288240       0.06139943      -0.11768390      -0.05702352      -0.05533773      -0.11022969       0.05307960       0.05151038      -0.11022969       0.05948535      -0.06469609      -0.11768390      -0.00294230       0.00285660      -0.00492191      -0.00285073      -0.00276645      -0.00410380       0.00383280       0.00371949      -0.00410380       0.00276705      -0.00302667      -0.00492191       0.20874525      -0.20556113       0.78326643       0.00694028       0.00071565      -0.01500239      -0.00355800      -0.00858544      -0.01215451       0.01866403      -0.01882929       0.02961965       0.00705256      -0.00614412      -0.00408823       0.00564464      -0.01756244       0.00323364       0.01827616      -0.01110977       0.00836670       0.00219830      -0.00275397      -0.00306919 </v>
    <v>       0.01350897       0.00027378       0.00026592      -3.56355966       0.22427068       0.21783096       0.00945777      -0.00145338      -0.00041909       0.00773452       0.00044709      -0.00006170       0.00945777      -0.00046125      -0.00144055       0.00773452      -0.00004865       0.00044870       0.00437973       0.00032539       0.00031605      -0.04691693       0.00123075       0.00119541       0.00766290      -0.01109306      -0.01826090      -0.01146162      -0.00590539       0.00092354      -0.00838994      -0.00894517      -0.00868831       0.76496018      -0.20509553      -0.19920640      -0.00271000      -0.00276621      -0.00268678       0.02458710      -0.01789916      -0.01738520       0.00766290      -0.01857625      -0.01055649      -0.01146162       0.00075115      -0.00592978      -0.00489990       0.00332405      -0.00249206      -0.11768765       0.06283542      -0.06142468      -0.00403730       0.00398962       0.00387506      -0.10985644       0.06339832       0.06157790      -0.00403730      -0.00269107      -0.00261380      -0.10985644      -0.04665809      -0.04531834      -0.00489990      -0.00239418       0.00339522      -0.11768765      -0.05956845       0.06459785      -0.00525149       0.00897849       0.00872068       0.62049236       0.02768139       0.02688655       0.00712758       0.00657956       0.01594423      -0.01235474       0.00919168      -0.00253674       0.00712758       0.01612910       0.00611237      -0.01235474      -0.00226794       0.00926167      -0.00217710       0.00263647       0.00256076       0.02967089       0.01545250       0.01500880       0.12896906      -0.06697149      -0.13941660       0.11931175      -0.05353618       0.12051113       0.00699320      -0.00275113       0.00660330       0.00682303      -0.00301703      -0.00566578       0.11931175       0.05652021       0.11730425       0.12896906       0.05543240      -0.13995818       0.00682303       0.00366366      -0.00586044       0.00699320       0.00296710       0.00682519       0.00253858       0.00514018      -0.01739450      -0.01454223       0.00707413       0.00063783      -0.00403711       0.00675884      -0.00632777       0.78345748       0.20266683      -0.21164339      -0.00310201       0.00211714      -0.00281731       0.02958690       0.01770818      -0.01975842       0.00880186       0.01833201      -0.01166614      -0.01287966      -0.00381310      -0.00870305       0.11931175       0.11890069       0.05307960       0.12896906      -0.13828424       0.05948535       0.12896906      -0.14130806      -0.06288240       0.11931175       0.11890067      -0.05702352       0.00682303      -0.00575125       0.00383280       0.00699320       0.00690871       0.00276705       0.00699320       0.00652037      -0.00294230       0.00682303      -0.00575125      -0.00285073      -0.00403711      -0.00612822       0.00694028       0.78345748      -0.20565064       0.20874525       0.00880186      -0.01112724       0.01866403      -0.01287966      -0.00881041      -0.00355800       0.00253858      -0.01723740       0.00564464      -0.01454223       0.00084361       0.00705256      -0.00310201      -0.00275445       0.00219830       0.02958690      -0.01923426       0.01827616 </v>
    <v>       0.00027378       0.00771288      -0.00006970       0.22427068      -3.57702091       0.21139066      -0.00145338       0.00954501      -0.00040671       0.00044709       0.01348733       0.00026789      -0.00046125      -0.04694001       0.00123919      -0.00004865       0.00773744       0.00043543       0.00032539       0.00436020       0.00030670       0.00123075       0.00943467      -0.00147708      -0.01109306       0.00946877       0.01922050      -0.00590539      -0.00367594       0.00691568      -0.00894517      -0.01234676      -0.00329884      -0.20509553       0.79578522       0.21481820      -0.00276621      -0.00293632       0.00227992      -0.01789916       0.00359315       0.00616897      -0.01857625       0.03072172       0.01860122       0.00075115      -0.01459009       0.00723370      -0.00239418       0.00697600       0.00668107      -0.05956845       0.12909312      -0.13763578      -0.00269107       0.00679383      -0.00578463      -0.04665809       0.11901575       0.11871723       0.00398962       0.00679383      -0.00578463       0.06339832       0.11901575       0.11871723       0.00332405       0.00697600       0.00672636       0.06283542       0.12909312      -0.14195996       0.00897849      -0.01290009      -0.00279962       0.02768139       0.61883058       0.02609178       0.00657956       0.00673263       0.01547287       0.00919168      -0.00579684       0.00880074       0.01612910       0.02872301       0.01483210      -0.00226794      -0.01221860       0.00898786       0.00263647      -0.00233536       0.00248506       0.01545250       0.00617970       0.00566466       0.05543240      -0.11756348      -0.05726795       0.05652021      -0.11015241       0.05798869       0.00296710      -0.00491709      -0.00269137       0.00366366      -0.00406649       0.00404685      -0.05353618      -0.11015241      -0.04885943      -0.06697149      -0.11756348       0.06882757      -0.00301703      -0.00406649      -0.00243909      -0.00275113      -0.00491709       0.00319190       0.00514018       0.00223003      -0.01688026       0.00707413      -0.00445229      -0.00634976       0.00675884      -0.01495741       0.00082804       0.20266683       0.77129176      -0.20538641       0.00211714      -0.00322910      -0.00273402       0.01770818       0.00772017      -0.01107837       0.01833201       0.02850520      -0.01941717      -0.00381310      -0.01265078      -0.00844576       0.11890067       0.11217448       0.05151038      -0.14130806       0.13736054      -0.06469609      -0.13828424       0.13736054       0.06139943       0.11890069       0.11217448      -0.05533773      -0.00575125       0.00716826       0.00371949       0.00652037       0.00659014      -0.00302667       0.00690871       0.00659014       0.00285660      -0.00575125       0.00716826      -0.00276645      -0.00612822      -0.01110044       0.00071565      -0.20565064       0.77728782      -0.20556113      -0.01112724       0.00832980      -0.01882929      -0.00881041      -0.00785704      -0.00858544      -0.01723740       0.02564166      -0.01756244       0.00084361      -0.01150948      -0.00614412      -0.00275445      -0.00254430      -0.00275397      -0.01923426       0.00879771      -0.01110977 </v>
    <v>       0.00026592      -0.00006970       0.00771695       0.21783096       0.21139066      -3.58934118      -0.00041909      -0.00040671      -0.04696428      -0.00006170       0.00026789       0.00771695      -0.00144055       0.00123919       0.00952075       0.00044870       0.00043543       0.01346684       0.00031605       0.00030670       0.00434232       0.00119541      -0.00147708       0.00952075      -0.01826090       0.01922050       0.02961965       0.00092354       0.00691568      -0.01500239      -0.00868831      -0.00329884      -0.01215451      -0.19920640       0.21481820       0.78326643      -0.00268678       0.00227992      -0.00306919      -0.01738520       0.00616897       0.00323364      -0.01055649       0.01860122       0.00836670      -0.00592978       0.00723370      -0.00408823       0.00339522       0.00672636       0.00658533       0.06459785      -0.14195996       0.13724019      -0.00261380      -0.00578463       0.00713095      -0.04531834       0.11871723       0.11209727       0.00387506      -0.00578463       0.00713095       0.06157790       0.11871723       0.11209727      -0.00249206       0.00668107       0.00658533      -0.06142468      -0.13763578       0.13724019       0.00872068      -0.00279962      -0.01273694       0.02688655       0.02609178       0.61731019       0.01594423       0.01547287       0.02783997      -0.00253674       0.00880074      -0.01273694       0.00611237       0.01483210       0.00584958       0.00926167       0.00898786      -0.00631518       0.00256076       0.00248506      -0.00248018       0.01500880       0.00566466       0.00584958      -0.13995818       0.06882757       0.13724019       0.11730425      -0.04885943       0.11209727       0.00682519       0.00319190       0.00658533      -0.00586044      -0.00243909       0.00713095       0.12051113       0.05798869       0.11209727      -0.13941660      -0.05726795       0.13724019      -0.00566578       0.00404685       0.00713095       0.00660330      -0.00269137       0.00658533      -0.01739450      -0.01688026       0.02664528       0.00063783      -0.00634976      -0.01114543      -0.00632777       0.00082804      -0.01114543      -0.21164339      -0.20538641       0.78926249      -0.00281731      -0.00273402      -0.00238439      -0.01975842      -0.01107837       0.00944425      -0.01166614      -0.01941717       0.00944425      -0.00870305      -0.00844576      -0.00736077      -0.05702352      -0.05533773      -0.11022969      -0.06288240       0.06139943      -0.11768390       0.05948535      -0.06469609      -0.11768390       0.05307960       0.05151038      -0.11022969      -0.00285073      -0.00276645      -0.00410380      -0.00294230       0.00285660      -0.00492191       0.00276705      -0.00302667      -0.00492191       0.00383280       0.00371949      -0.00410380       0.00694028       0.00071565      -0.01500239       0.20874525      -0.20556113       0.78326643       0.01866403      -0.01882929       0.02961965      -0.00355800      -0.00858544      -0.01215451       0.00564464      -0.01756244       0.00323364       0.00705256      -0.00614412      -0.00408823       0.00219830      -0.00275397      -0.00306919       0.01827616      -0.01110977       0.00836670 </v>
    <v>       0.00773452       0.00044709      -0.00006170       0.00945777      -0.00145338      -0.00041909      -3.56355966       0.22427068       0.21783096       0.01350897       0.00027378       0.00026592      -0.04691693       0.00123075       0.00119541       0.00437973       0.00032539       0.00031605       0.00773452      -0.00004865       0.00044870       0.00945777      -0.00046125      -0.00144055       0.76496018      -0.20509553      -0.19920640      -0.00838994      -0.00894517      -0.00868831      -0.01146162      -0.00590539       0.00092354       0.00766290      -0.01109306      -0.01826090      -0.01146162       0.00075115      -0.00592978       0.00766290      -0.01857625      -0.01055649       0.02458710      -0.01789916      -0.01738520      -0.00271000      -0.00276621      -0.00268678      -0.10985644       0.06339832       0.06157790      -0.00403730       0.00398962       0.00387506      -0.11768765       0.06283542      -0.06142468      -0.00489990       0.00332405      -0.00249206      -0.11768765      -0.05956845       0.06459785      -0.00489990      -0.00239418       0.00339522      -0.10985644      -0.04665809      -0.04531834      -0.00403730      -0.00269107      -0.00261380      -0.01235474       0.00919168      -0.00253674       0.00712758       0.00657956       0.01594423       0.62049236       0.02768139       0.02688655      -0.00525149       0.00897849       0.00872068       0.02967089       0.01545250       0.01500880      -0.00217710       0.00263647       0.00256076      -0.01235474      -0.00226794       0.00926167       0.00712758       0.01612910       0.00611237       0.00682303      -0.00301703      -0.00566578       0.00699320      -0.00275113       0.00660330       0.11931175      -0.05353618       0.12051113       0.12896906      -0.06697149      -0.13941660       0.00699320       0.00296710       0.00682519       0.00682303       0.00366366      -0.00586044       0.12896906       0.05543240      -0.13995818       0.11931175       0.05652021       0.11730425       0.78345748       0.20266683      -0.21164339      -0.00403711       0.00675884      -0.00632777      -0.01454223       0.00707413       0.00063783       0.00253858       0.00514018      -0.01739450      -0.01287966      -0.00381310      -0.00870305       0.00880186       0.01833201      -0.01166614       0.02958690       0.01770818      -0.01975842      -0.00310201       0.00211714      -0.00281731       0.11931175       0.11890067      -0.05702352       0.12896906      -0.14130806      -0.06288240       0.12896906      -0.13828424       0.05948535       0.11931175       0.11890069       0.05307960       0.00682303      -0.00575125      -0.00285073       0.00699320       0.00652037      -0.00294230       0.00699320       0.00690871       0.00276705       0.00682303      -0.00575125       0.00383280      -0.01287966      -0.00881041      -0.00355800       0.00880186      -0.01112724       0.01866403       0.78345748      -0.20565064       0.20874525      -0.00403711      -0.00612822       0.00694028       0.02958690      -0.01923426       0.01827616      -0.00310201      -0.00275445       0.00219830      -0.01454223       0.00084361       0.00705256       0.00253858      -0.01723740       0.00564464 </v>
[...]
      </set>
     </set>
    </set>
   </array>
  </eigenvalues>
  <separator name="orbital magnetization" >
   <v name="MAGDIPOLOUT">      0.00000000      0.00000000      0.00000000</v>
  </separator>
  <dos>
   <i name="efermi">      9.86485875 </i>
   <total>
    <array>
     <dimension dim="1">gridpoints</dimension>
     <dimension dim="2">spin</dimension>
     <field>energy</field>
     <field>total</field>
     <field>integrated</field>
     <set>
      <set comment="spin 1">
       <r>   -13.4115     0.0000     0.0000 </r>
       <r>   -13.2896     0.0000     0.0000 </r>
       <r>   -13.1678     0.0000     0.0000 </r>
       <r>   -13.0460     0.0000     0.0000 </r>
       <r>   -12.9242     0.0000     0.0000 </r>
       <r>   -12.8023     0.0000     0.0000 </r>
       <r>   -12.6805     0.0000     0.0000 </r>
       <r>   -12.5587     0.0000     0.0000 </r>
       <r>   -12.4368     0.0000     0.0000 </r>
       <r>   -12.3150     0.0000     0.0000 </r>
       <r>   -12.1932     0.0000     0.0000 </r>
       <r>   -12.0714     0.0000     0.0000 </r>
       <r>   -11.9495     0.0000     0.0000 </r>
       <r>   -11.8277     0.0028     0.0003 </r>
       <r>   -11.7059     0.2355     0.0290 </r>
       <r>   -11.5841     1.2266     0.1785 </r>
       <r>   -11.4622     1.4444     0.3544 </r>
       <r>   -11.3404     2.7858     0.6938 </r>
       <r>   -11.2186     1.6148     0.8905 </r>
       <r>   -11.0968     3.5792     1.3266 </r>
       <r>   -10.9749     2.8219     1.6704 </r>
       <r>   -10.8531     3.7982     2.1331 </r>
       <r>   -10.7313     2.4379     2.4301 </r>
       <r>   -10.6095     4.8018     3.0151 </r>
       <r>   -10.4876     4.3930     3.5502 </r>
       <r>   -10.3658     4.4675     4.0945 </r>
       <r>   -10.2440     2.7164     4.4254 </r>
       <r>   -10.1222     5.1845     5.0570 </r>
       <r>   -10.0003     6.1115     5.8016 </r>
       <r>    -9.8785     5.1446     6.4283 </r>
       <r>    -9.7567     4.8284     7.0165 </r>
       <r>    -9.6349     4.4178     7.5547 </r>
       <r>    -9.5130     5.9587     8.2807 </r>
       <r>    -9.3912     5.7605     8.9824 </r>
       <r>    -9.2694     6.2979     9.7497 </r>
       <r>    -9.1476     6.3983    10.5292 </r>
       <r>    -9.0257     6.7549    11.3521 </r>
       <r>    -8.9039     5.8582    12.0658 </r>
       <r>    -8.7821     5.7326    12.7641 </r>
       <r>    -8.6603     4.7743    13.3458 </r>
       <r>    -8.5384     9.6931    14.5266 </r>
       <r>    -8.4166     7.3335    15.4201 </r>
       <r>    -8.2948     7.8587    16.3774 </r>
       <r>    -8.1730     6.5781    17.1788 </r>
       <r>    -8.0511     7.1716    18.0525 </r>
       <r>    -7.9293     6.5792    18.8540 </r>
       <r>    -7.8075     8.1905    19.8518 </r>
       <r>    -7.6856     7.4425    20.7585 </r>
       <r>    -7.5638     9.1967    21.8789 </r>
       <r>    -7.4420     9.7779    23.0701 </r>
       <r>    -7.3202     9.4576    24.2223 </r>
       <r>    -7.1983     6.8911    25.0618 </r>
       <r>    -7.0765     8.3347    26.0772 </r>
       <r>    -6.9547    10.5922    27.3676 </r>
       <r>    -6.8329     7.0834    28.2305 </r>
       <r>    -6.7110     9.6303    29.4037 </r>
       <r>    -6.5892    11.9892    30.8643 </r>
       <r>    -6.4674    10.7702    32.1764 </r>
       <r>    -6.3456    11.3432    33.5583 </r>
       <r>    -6.2237    10.1135    34.7904 </r>
       <r>    -6.1019    10.6161    36.0837 </r>
       <r>    -5.9801    12.9293    37.6588 </r>
       <r>    -5.8583     9.6430    38.8336 </r>
       <r>    -5.7364     8.6233    39.8841 </r>
       <r>    -5.6146    12.3321    41.3865 </r>
       <r>    -5.4928    14.3937    43.1400 </r>
       <r>    -5.3710    11.6985    44.5652 </r>
       <r>    -5.2491    10.8859    45.8914 </r>
       <r>    -5.1273    11.3642    47.2758 </r>
       <r>    -5.0055    11.2299    48.6439 </r>
       <r>    -4.8837     9.0670    49.7485 </r>
       <r>    -4.7618     7.4938    50.6614 </r>
       <r>    -4.6400     7.9006    51.6239 </r>
       <r>    -4.5182    10.1099    52.8556 </r>
       <r>    -4.3964     9.1708    53.9728 </r>
       <r>    -4.2745     7.8553    54.9298 </r>
       <r>    -4.1527    11.7425    56.3603 </r>
       <r>    -4.0309     8.7493    57.4262 </r>
       <r>    -3.9091     4.4585    57.9694 </r>
       <r>    -3.7872     9.0679    59.0741 </r>
       <r>    -3.6654     7.9826    60.0466 </r>
       <r>    -3.5436     6.4826    60.8363 </r>
       <r>    -3.4218     6.3446    61.6092 </r>
       <r>    -3.2999     7.9448    62.5771 </r>
       <r>    -3.1781    10.8356    63.8972 </r>
       <r>    -3.0563     5.5516    64.5735 </r>
       <r>    -2.9344     7.2577    65.4577 </r>
       <r>    -2.8126    12.6383    66.9973 </r>
       <r>    -2.6908    11.5720    68.4071 </r>
       <r>    -2.5690     6.5356    69.2033 </r>
       <r>    -2.4471     8.0257    70.1811 </r>
       <r>    -2.3253    11.9093    71.6319 </r>
       <r>    -2.2035     9.8669    72.8339 </r>
       <r>    -2.0817    12.8541    74.3999 </r>
       <r>    -1.9598    15.7919    76.3238 </r>
       <r>    -1.8380    23.9488    79.2413 </r>
       <r>    -1.7162    19.7339    81.6454 </r>
       <r>    -1.5944    15.9807    83.5923 </r>
       <r>    -1.4725    16.8707    85.6476 </r>
       <r>    -1.3507    17.6105    87.7930 </r>
       <r>    -1.2289    13.1654    89.3969 </r>
       <r>    -1.1071    10.0501    90.6212 </r>
       <r>    -0.9852    10.5181    91.9026 </r>
       <r>    -0.8634    10.9126    93.2320 </r>
       <r>    -0.7416    10.2711    94.4833 </r>
       <r>    -0.6198    10.1120    95.7152 </r>
       <r>    -0.4979    10.4875    96.9929 </r>
       <r>    -0.3761    13.8723    98.6829 </r>
       <r>    -0.2543    10.0021    99.9014 </r>
       <r>    -0.1325    10.2173   101.1461 </r>
       <r>    -0.0106     6.5153   101.9399 </r>
       <r>     0.1112     7.2242   102.8199 </r>
       <r>     0.2330     6.4685   103.6080 </r>
       <r>     0.3548     9.7956   104.8013 </r>
       <r>     0.4767    12.9489   106.3788 </r>
       <r>     0.5985     8.7736   107.4477 </r>
       <r>     0.7203    12.7497   109.0009 </r>
       <r>     0.8421    20.8949   111.5465 </r>
       <r>     0.9640    19.4459   113.9155 </r>
       <r>     1.0858    15.4073   115.7925 </r>
       <r>     1.2076    16.2012   117.7662 </r>
       <r>     1.3294    13.5985   119.4228 </r>
       <r>     1.4513    14.0294   121.1320 </r>
       <r>     1.5731    16.8420   123.1838 </r>
       <r>     1.6949    19.2018   125.5230 </r>
       <r>     1.8168    18.0849   127.7263 </r>
       <r>     1.9386    15.9068   129.6641 </r>
       <r>     2.0604    15.1403   131.5086 </r>
       <r>     2.1822    19.7984   133.9205 </r>
       <r>     2.3041    19.2485   136.2655 </r>
       <r>     2.4259    15.7146   138.1799 </r>
       <r>     2.5477    16.5485   140.1960 </r>
       <r>     2.6695    20.4880   142.6919 </r>
       <r>     2.7914    20.5855   145.1998 </r>
       <r>     2.9132    16.5899   147.2208 </r>
       <r>     3.0350    24.7025   150.2302 </r>
       <r>     3.1568    25.0964   153.2876 </r>
       <r>     3.2787    22.7873   156.0637 </r>
       <r>     3.4005    20.5528   158.5676 </r>
       <r>     3.5223    22.3710   161.2929 </r>
       <r>     3.6441    24.7668   164.3101 </r>
       <r>     3.7660    28.9154   167.8328 </r>
       <r>     3.8878    22.3634   170.5572 </r>
       <r>     4.0096    24.6976   173.5660 </r>
       <r>     4.1314    25.9380   176.7259 </r>
       <r>     4.2533    28.9120   180.2481 </r>
       <r>     4.3751    20.8608   182.7895 </r>
       <r>     4.4969    22.1091   185.4830 </r>
       <r>     4.6187    24.5754   188.4769 </r>
       <r>     4.7406    22.6968   191.2419 </r>
       <r>     4.8624    22.0706   193.9307 </r>
       <r>     4.9842    23.9990   196.8544 </r>
       <r>     5.1060    26.2282   200.0497 </r>
       <r>     5.2279    20.7700   202.5800 </r>
       <r>     5.3497    24.1987   205.5280 </r>
       <r>     5.4715    23.7787   208.4249 </r>
       <r>     5.5933    18.9482   210.7333 </r>
       <r>     5.7152    18.7208   213.0139 </r>
       <r>     5.8370    19.6901   215.4127 </r>
       <r>     5.9588    26.1429   218.5976 </r>
       <r>     6.0806    24.1970   221.5454 </r>
       <r>     6.2025    21.6940   224.1883 </r>
       <r>     6.3243    20.7389   226.7148 </r>
       <r>     6.4461    16.7476   228.7551 </r>
       <r>     6.5680    17.5076   230.8880 </r>
       <r>     6.6898    19.5346   233.2678 </r>
       <r>     6.8116    23.2800   236.1039 </r>
       <r>     6.9334    16.5295   238.1176 </r>
       <r>     7.0553    12.4528   239.6347 </r>
       <r>     7.1771    14.5819   241.4111 </r>
       <r>     7.2989    12.9173   242.9848 </r>
       <r>     7.4207     8.1797   243.9813 </r>
       <r>     7.5426    10.8677   245.3053 </r>
       <r>     7.6644    12.9749   246.8859 </r>
       <r>     7.7862    10.2001   248.1286 </r>
       <r>     7.9080     6.7385   248.9495 </r>
       <r>     8.0299     6.0948   249.6920 </r>
       <r>     8.1517     7.1744   250.5660 </r>
       <r>     8.2735     8.5450   251.6070 </r>
       <r>     8.3953     4.7563   252.1865 </r>
       <r>     8.5172     5.3366   252.8366 </r>
       <r>     8.6390     5.9443   253.5608 </r>
       <r>     8.7608     4.4920   254.1080 </r>
       <r>     8.8826     3.9775   254.5926 </r>
       <r>     9.0045     2.3185   254.8750 </r>
       <r>     9.1263     3.2611   255.2723 </r>
       <r>     9.2481     3.5051   255.6993 </r>
       <r>     9.3699     1.2329   255.8495 </r>
       <r>     9.4918     0.9960   255.9708 </r>
       <r>     9.6136     0.2340   255.9994 </r>
       <r>     9.7354     0.0053   256.0000 </r>
       <r>     9.8572     0.0000   256.0000 </r>
       <r>     9.9791     0.0000   256.0000 </r>
       <r>    10.1009     0.0000   256.0000 </r>
       <r>    10.2227     0.0000   256.0000 </r>
       <r>    10.3445     0.0000   256.0000 </r>
       <r>    10.4664     0.0000   256.0000 </r>
       <r>    10.5882     0.0000   256.0000 </r>
       <r>    10.7100     0.0000   256.0000 </r>
       <r>    10.8318     0.0000   256.0000 </r>
       <r>    10.9537     0.0000   256.0000 </r>
       <r>    11.0755     0.0000   256.0000 </r>
       <r>    11.1973     0.0000   256.0000 </r>
       <r>    11.3192     0.0000   256.0000 </r>
       <r>    11.4410     0.0000   256.0000 </r>
       <r>    11.5628     0.0000   256.0000 </r>
       <r>    11.6846     0.0000   256.0000 </r>
       <r>    11.8065     0.0000   256.0000 </r>
       <r>    11.9283     0.0000   256.0000 </r>
       <r>    12.0501     0.0000   256.0000 </r>
       <r>    12.1719     0.0000   256.0000 </r>
       <r>    12.2938     0.0000   256.0000 </r>
       <r>    12.4156     0.0000   256.0000 </r>
       <r>    12.5374     0.0000   256.0000 </r>
       <r>    12.6592     0.0000   256.0000 </r>
       <r>    12.7811     0.0000   256.0000 </r>
       <r>    12.9029     0.0000   256.0000 </r>
       <r>    13.0247     0.0000   256.0000 </r>
       <r>    13.1465     0.0000   256.0000 </r>
       <r>    13.2684     0.0000   256.0000 </r>
       <r>    13.3902     0.0017   256.0002 </r>
       <r>    13.5120     0.4686   256.0573 </r>
       <r>    13.6338     1.3082   256.2167 </r>
       <r>    13.7557     3.0068   256.5830 </r>
       <r>    13.8775     6.9720   257.4323 </r>
       <r>    13.9993     4.8082   258.0181 </r>
       <r>    14.1211     4.8271   258.6062 </r>
       <r>    14.2430     7.4187   259.5099 </r>
       <r>    14.3648     6.6102   260.3152 </r>
       <r>    14.4866     7.4440   261.2221 </r>
       <r>    14.6084    11.5025   262.6234 </r>
       <r>    14.7303    12.4946   264.1456 </r>
       <r>    14.8521     8.8231   265.2204 </r>
       <r>    14.9739    11.8909   266.6691 </r>
       <r>    15.0957    15.9682   268.6144 </r>
       <r>    15.2176    11.1649   269.9746 </r>
       <r>    15.3394    11.3400   271.3561 </r>
       <r>    15.4612     9.7008   272.5379 </r>
       <r>    15.5831    14.3427   274.2852 </r>
       <r>    15.7049    18.4079   276.5277 </r>
       <r>    15.8267    23.8174   279.4293 </r>
       <r>    15.9485    18.6173   281.6974 </r>
       <r>    16.0704    19.0566   284.0190 </r>
       <r>    16.1922    17.3594   286.1338 </r>
       <r>    16.3140    17.1914   288.2281 </r>
       <r>    16.4358    15.9388   290.1699 </r>
       <r>    16.5577    19.8809   292.5919 </r>
       <r>    16.6795    26.7068   295.8455 </r>
       <r>    16.8013    23.9060   298.7578 </r>
       <r>    16.9231    29.4473   302.3452 </r>
       <r>    17.0450    32.3276   306.2836 </r>
       <r>    17.1668    33.6676   310.3851 </r>
       <r>    17.2886    25.5537   313.4982 </r>
       <r>    17.4104    19.9918   315.9338 </r>
       <r>    17.5323    29.8432   319.5694 </r>
       <r>    17.6541    26.4749   322.7948 </r>
       <r>    17.7759    19.9761   325.2284 </r>
       <r>    17.8977    18.5440   327.4875 </r>
       <r>    18.0196    26.7704   330.7488 </r>
       <r>    18.1414    32.3570   334.6907 </r>
       <r>    18.2632    39.7821   339.5372 </r>
       <r>    18.3850    40.2253   344.4377 </r>
       <r>    18.5069    40.5801   349.3814 </r>
       <r>    18.6287    31.0355   353.1623 </r>
       <r>    18.7505    24.3463   356.1283 </r>
       <r>    18.8723    27.3002   359.4542 </r>
       <r>    18.9942    28.4403   362.9189 </r>
       <r>    19.1160    23.5365   365.7863 </r>
       <r>    19.2378    22.9954   368.5877 </r>
       <r>    19.3596    18.8699   370.8866 </r>
       <r>    19.4815    22.5801   373.6374 </r>
       <r>    19.6033    28.9982   377.1701 </r>
       <r>    19.7251    25.4224   380.2672 </r>
       <r>    19.8469    11.5201   381.6707 </r>
       <r>    19.9688     5.6388   382.3576 </r>
       <r>    20.0906     2.9824   382.7209 </r>
       <r>    20.2124     2.0351   382.9689 </r>
       <r>    20.3343     1.4397   383.1443 </r>
       <r>    20.4561     3.5805   383.5805 </r>
       <r>    20.5779     0.9722   383.6989 </r>
       <r>    20.6997     0.8659   383.8044 </r>
       <r>    20.8216     0.9870   383.9246 </r>
       <r>    20.9434     0.3112   383.9626 </r>
       <r>    21.0652     0.0033   383.9630 </r>
       <r>    21.1870     0.0000   383.9630 </r>
       <r>    21.3089     0.0000   383.9630 </r>
       <r>    21.4307     0.0587   383.9701 </r>
       <r>    21.5525     0.2381   383.9991 </r>
       <r>    21.6743     0.0071   384.0000 </r>
       <r>    21.7962     0.0000   384.0000 </r>
       <r>    21.9180     0.0000   384.0000 </r>
       <r>    22.0398     0.0000   384.0000 </r>
       <r>    22.1616     0.0000   384.0000 </r>
       <r>    22.2835     0.0000   384.0000 </r>
       <r>    22.4053     0.0000   384.0000 </r>
       <r>    22.5271     0.0000   384.0000 </r>
       <r>    22.6489     0.0000   384.0000 </r>
       <r>    22.7708     0.0000   384.0000 </r>
       <r>    22.8926     0.0000   384.0000 </r>
       <r>    23.0144     0.0000   384.0000 </r>
       <r>    23.1362     0.0000   384.0000 </r>
      </set>
     </set>
    </array>
   </total>
  </dos>
 </calculation>
 <structure name="finalpos" >
  <crystal>
   <varray name="basis" >
    <v>       7.17999872       0.00000000       0.00000000 </v>
    <v>       0.21539936       7.17676605       0.00000000 </v>
    <v>       0.21539936       0.20903247       7.17372224 </v>
   </varray>
   <i name="volume">    369.65596022 </i>
   <varray name="rec_basis" >
    <v>       0.13927579      -0.00418014      -0.00406011 </v>
    <v>       0.00000000       0.13933853      -0.00406013 </v>
    <v>       0.00000000       0.00000000       0.13939765 </v>
   </varray>
  </crystal>
  <varray name="positions" >
   <v>       0.12500000       0.37500000       0.12500000 </v>
   <v>       0.62500000       0.37500000       0.12500000 </v>
   <v>       0.12500000       0.87500000       0.12500000 </v>
   <v>       0.62500000       0.87500000       0.12500000 </v>
   <v>       0.12500000       0.37500000       0.62500000 </v>
   <v>       0.62500000       0.37500000       0.62500000 </v>
   <v>       0.12500000       0.87500000       0.62500000 </v>
   <v>       0.62500000       0.87500000       0.62500000 </v>
   <v>       0.00000000       0.00000000       0.25000000 </v>
   <v>       0.50000000       0.00000000       0.25000000 </v>
   <v>       0.00000000       0.50000000       0.25000000 </v>
   <v>       0.50000000       0.50000000       0.25000000 </v>
   <v>       0.00000000       0.00000000       0.75000000 </v>
   <v>       0.50000000       0.00000000       0.75000000 </v>
   <v>       0.00000000       0.50000000       0.75000000 </v>
   <v>       0.50000000       0.50000000       0.75000000 </v>
   <v>       0.12500000       0.12500000       0.37500000 </v>
   <v>       0.62500000       0.12500000       0.37500000 </v>
   <v>       0.12500000       0.62500000       0.37500000 </v>
   <v>       0.62500000       0.62500000       0.37500000 </v>
   <v>       0.12500000       0.12500000       0.87500000 </v>
   <v>       0.62500000       0.12500000       0.87500000 </v>
   <v>       0.12500000       0.62500000       0.87500000 </v>
   <v>       0.62500000       0.62500000       0.87500000 </v>
   <v>       0.00000000       0.25000000       0.00000000 </v>
   <v>       0.50000000       0.25000000       0.00000000 </v>
   <v>       0.00000000       0.75000000       0.00000000 </v>
   <v>       0.50000000       0.75000000       0.00000000 </v>
   <v>       0.00000000       0.25000000       0.50000000 </v>
   <v>       0.50000000       0.25000000       0.50000000 </v>
   <v>       0.00000000       0.75000000       0.50000000 </v>
   <v>       0.50000000       0.75000000       0.50000000 </v>
   <v>       0.37500000       0.37500000       0.37500000 </v>
   <v>       0.87500000       0.37500000       0.37500000 </v>
   <v>       0.37500000       0.87500000       0.37500000 </v>
   <v>       0.87500000       0.87500000       0.37500000 </v>
   <v>       0.37500000       0.37500000       0.87500000 </v>
   <v>       0.87500000       0.37500000       0.87500000 </v>
   <v>       0.37500000       0.87500000       0.87500000 </v>
   <v>       0.87500000       0.87500000       0.87500000 </v>
   <v>       0.25000000       0.00000000       0.00000000 </v>
   <v>       0.75000000       0.00000000       0.00000000 </v>
   <v>       0.25000000       0.50000000       0.00000000 </v>
   <v>       0.75000000       0.50000000       0.00000000 </v>
   <v>       0.25000000       0.00000000       0.50000000 </v>
   <v>       0.75000000       0.00000000       0.50000000 </v>
   <v>       0.25000000       0.50000000       0.50000000 </v>
   <v>       0.75000000       0.50000000       0.50000000 </v>
   <v>       0.37500000       0.12500000       0.12500000 </v>
   <v>       0.87500000       0.12500000       0.12500000 </v>
   <v>       0.37500000       0.62500000       0.12500000 </v>
   <v>       0.87500000       0.62500000       0.12500000 </v>
   <v>       0.37500000       0.12500000       0.62500000 </v>
   <v>       0.87500000       0.12500000       0.62500000 </v>
   <v>       0.37500000       0.62500000       0.62500000 </v>
   <v>       0.87500000       0.62500000       0.62500000 </v>
   <v>       0.25000000       0.25000000       0.25000000 </v>
   <v>       0.75000000       0.25000000       0.25000000 </v>
   <v>       0.25000000       0.75000000       0.25000000 </v>
   <v>       0.75000000       0.75000000       0.25000000 </v>
   <v>       0.25000000       0.25000000       0.75000000 </v>
   <v>       0.75000000       0.25000000       0.75000000 </v>
   <v>       0.25000000       0.75000000       0.75000000 </v>
   <v>       0.75000000       0.75000000       0.75000000 </v>
  </varray>
 </structure>
</modeling>
