  64  64   0   0
  0.5366296E+01  0.7003012E-09  0.7003012E-09  0.7003012E-09  0.5000000E-15
  1.000000000000000E-004
  CAR 
 unknown system                          
     24.63628621    -13.38917685  301     10.83621191      1.00000000
    -13.389  0.0000E+00  0.0000E+00
    -13.262  0.0000E+00  0.0000E+00
    -13.136  0.0000E+00  0.0000E+00
    -13.009  0.0000E+00  0.0000E+00
    -12.882  0.0000E+00  0.0000E+00
    -12.755  0.0000E+00  0.0000E+00
    -12.629  0.0000E+00  0.0000E+00
    -12.502  0.0000E+00  0.0000E+00
    -12.375  0.0000E+00  0.0000E+00
    -12.248  0.0000E+00  0.0000E+00
    -12.122  0.0000E+00  0.0000E+00
    -11.995  0.5132E-16  0.6505E-17
    -11.868  0.1637E-07  0.2075E-08
    -11.741  0.1425E-02  0.1806E-03
    -11.615  0.2407E+00  0.3068E-01
    -11.488  0.1052E+01  0.1641E+00
    -11.361  0.1565E+01  0.3624E+00
    -11.234  0.2194E+01  0.6405E+00
    -11.108  0.2349E+01  0.9382E+00
    -10.981  0.2637E+01  0.1272E+01
    -10.854  0.3203E+01  0.1678E+01
    -10.727  0.2499E+01  0.1995E+01
    -10.601  0.4001E+01  0.2502E+01
    -10.474  0.3386E+01  0.2931E+01
    -10.347  0.3927E+01  0.3429E+01
    -10.220  0.3904E+01  0.3924E+01
    -10.094  0.4726E+01  0.4523E+01
     -9.967  0.4420E+01  0.5083E+01
     -9.840  0.3316E+01  0.5504E+01
     -9.713  0.5632E+01  0.6218E+01
     -9.587  0.5496E+01  0.6914E+01
     -9.460  0.4349E+01  0.7465E+01
     -9.333  0.5225E+01  0.8128E+01
     -9.206  0.5559E+01  0.8832E+01
     -9.080  0.6234E+01  0.9622E+01
     -8.953  0.4585E+01  0.1020E+02
     -8.826  0.6995E+01  0.1109E+02
     -8.699  0.4601E+01  0.1167E+02
     -8.573  0.6453E+01  0.1249E+02
     -8.446  0.6483E+01  0.1331E+02
     -8.319  0.8310E+01  0.1437E+02
     -8.192  0.5217E+01  0.1503E+02
     -8.066  0.5117E+01  0.1568E+02
     -7.939  0.8442E+01  0.1675E+02
     -7.812  0.6692E+01  0.1759E+02
     -7.685  0.7707E+01  0.1857E+02
     -7.559  0.6631E+01  0.1941E+02
     -7.432  0.7725E+01  0.2039E+02
     -7.305  0.7371E+01  0.2133E+02
     -7.178  0.7433E+01  0.2227E+02
     -7.052  0.8261E+01  0.2331E+02
     -6.925  0.7954E+01  0.2432E+02
     -6.798  0.9427E+01  0.2552E+02
     -6.671  0.7848E+01  0.2651E+02
     -6.545  0.8277E+01  0.2756E+02
     -6.418  0.6057E+01  0.2833E+02
     -6.291  0.1081E+02  0.2970E+02
     -6.164  0.1107E+02  0.3110E+02
     -6.038  0.8008E+01  0.3212E+02
     -5.911  0.9303E+01  0.3330E+02
     -5.784  0.1055E+02  0.3464E+02
     -5.657  0.9117E+01  0.3579E+02
     -5.531  0.1218E+02  0.3733E+02
     -5.404  0.1105E+02  0.3874E+02
     -5.277  0.1114E+02  0.4015E+02
     -5.150  0.1143E+02  0.4160E+02
     -5.024  0.1325E+02  0.4328E+02
     -4.897  0.9568E+01  0.4449E+02
     -4.770  0.7445E+01  0.4543E+02
     -4.643  0.1036E+02  0.4675E+02
     -4.517  0.1163E+02  0.4822E+02
     -4.390  0.7753E+01  0.4920E+02
     -4.263  0.1229E+02  0.5076E+02
     -4.136  0.6628E+01  0.5160E+02
     -4.010  0.1022E+02  0.5290E+02
     -3.883  0.7697E+01  0.5387E+02
     -3.756  0.6565E+01  0.5470E+02
     -3.629  0.7234E+01  0.5562E+02
     -3.503  0.1041E+02  0.5694E+02
     -3.376  0.5225E+01  0.5760E+02
     -3.249  0.9012E+01  0.5874E+02
     -3.122  0.9619E+01  0.5996E+02
     -2.996  0.9189E+01  0.6113E+02
     -2.869  0.9836E+01  0.6238E+02
     -2.742  0.7150E+01  0.6328E+02
     -2.615  0.6836E+01  0.6415E+02
     -2.489  0.1124E+02  0.6557E+02
     -2.362  0.1009E+02  0.6685E+02
     -2.235  0.8987E+01  0.6799E+02
     -2.108  0.1147E+02  0.6944E+02
     -1.982  0.6627E+01  0.7028E+02
     -1.855  0.9192E+01  0.7145E+02
     -1.728  0.9581E+01  0.7266E+02
     -1.601  0.1029E+02  0.7397E+02
     -1.475  0.1309E+02  0.7563E+02
     -1.348  0.1882E+02  0.7801E+02
     -1.221  0.2255E+02  0.8087E+02
     -1.094  0.2162E+02  0.8361E+02
     -0.968  0.1224E+02  0.8516E+02
     -0.841  0.1132E+02  0.8660E+02
     -0.714  0.1059E+02  0.8794E+02
     -0.587  0.1074E+02  0.8930E+02
     -0.461  0.1299E+02  0.9095E+02
     -0.334  0.1744E+02  0.9316E+02
     -0.207  0.1168E+02  0.9464E+02
     -0.080  0.8693E+01  0.9574E+02
      0.046  0.4900E+01  0.9636E+02
      0.173  0.9406E+01  0.9755E+02
      0.300  0.1019E+02  0.9884E+02
      0.427  0.7297E+01  0.9977E+02
      0.553  0.8074E+01  0.1008E+03
      0.680  0.1515E+02  0.1027E+03
      0.807  0.9670E+01  0.1039E+03
      0.934  0.6497E+01  0.1048E+03
      1.060  0.1262E+02  0.1064E+03
      1.187  0.1746E+02  0.1086E+03
      1.314  0.1280E+02  0.1102E+03
      1.441  0.1283E+02  0.1118E+03
      1.568  0.1268E+02  0.1134E+03
      1.694  0.2033E+02  0.1160E+03
      1.821  0.2087E+02  0.1187E+03
      1.948  0.1278E+02  0.1203E+03
      2.075  0.1176E+02  0.1218E+03
      2.201  0.1768E+02  0.1240E+03
      2.328  0.1354E+02  0.1257E+03
      2.455  0.1547E+02  0.1277E+03
      2.582  0.1769E+02  0.1299E+03
      2.708  0.1637E+02  0.1320E+03
      2.835  0.2287E+02  0.1349E+03
      2.962  0.1411E+02  0.1367E+03
      3.089  0.8620E+01  0.1378E+03
      3.215  0.2154E+02  0.1405E+03
      3.342  0.2430E+02  0.1436E+03
      3.469  0.1709E+02  0.1458E+03
      3.596  0.1584E+02  0.1478E+03
      3.722  0.2136E+02  0.1505E+03
      3.849  0.2130E+02  0.1532E+03
      3.976  0.2454E+02  0.1563E+03
      4.103  0.2383E+02  0.1593E+03
      4.229  0.2550E+02  0.1625E+03
      4.356  0.2032E+02  0.1651E+03
      4.483  0.2339E+02  0.1681E+03
      4.610  0.2714E+02  0.1715E+03
      4.736  0.2603E+02  0.1748E+03
      4.863  0.2094E+02  0.1775E+03
      4.990  0.1859E+02  0.1798E+03
      5.117  0.2071E+02  0.1824E+03
      5.243  0.2841E+02  0.1860E+03
      5.370  0.2653E+02  0.1894E+03
      5.497  0.1724E+02  0.1916E+03
      5.624  0.1729E+02  0.1938E+03
      5.750  0.2508E+02  0.1970E+03
      5.877  0.2159E+02  0.1997E+03
      6.004  0.2523E+02  0.2029E+03
      6.131  0.1697E+02  0.2050E+03
      6.257  0.1888E+02  0.2074E+03
      6.384  0.2149E+02  0.2102E+03
      6.511  0.2602E+02  0.2135E+03
      6.638  0.1708E+02  0.2156E+03
      6.764  0.1873E+02  0.2180E+03
      6.891  0.1785E+02  0.2203E+03
      7.018  0.2094E+02  0.2229E+03
      7.145  0.2536E+02  0.2261E+03
      7.271  0.1557E+02  0.2281E+03
      7.398  0.1849E+02  0.2305E+03
      7.525  0.1631E+02  0.2325E+03
      7.652  0.2035E+02  0.2351E+03
      7.778  0.2196E+02  0.2379E+03
      7.905  0.7705E+01  0.2389E+03
      8.032  0.1283E+02  0.2405E+03
      8.159  0.1463E+02  0.2423E+03
      8.285  0.1085E+02  0.2437E+03
      8.412  0.9764E+01  0.2450E+03
      8.539  0.7601E+01  0.2459E+03
      8.666  0.1027E+02  0.2472E+03
      8.792  0.8748E+01  0.2483E+03
      8.919  0.7391E+01  0.2493E+03
      9.046  0.6357E+01  0.2501E+03
      9.173  0.5309E+01  0.2507E+03
      9.299  0.7783E+01  0.2517E+03
      9.426  0.5523E+01  0.2524E+03
      9.553  0.4808E+01  0.2530E+03
      9.680  0.3333E+01  0.2535E+03
      9.806  0.5012E+01  0.2541E+03
      9.933  0.3939E+01  0.2546E+03
     10.060  0.3091E+01  0.2550E+03
     10.187  0.2748E+01  0.2553E+03
     10.313  0.2086E+01  0.2556E+03
     10.440  0.2170E+01  0.2559E+03
     10.567  0.7979E+00  0.2560E+03
     10.694  0.1894E+00  0.2560E+03
     10.820  0.8039E-03  0.2560E+03
     10.947  0.2974E-08  0.2560E+03
     11.074  0.0000E+00  0.2560E+03
     11.201  0.0000E+00  0.2560E+03
     11.327  0.0000E+00  0.2560E+03
     11.454  0.0000E+00  0.2560E+03
     11.581  0.0000E+00  0.2560E+03
     11.708  0.0000E+00  0.2560E+03
     11.834  0.0000E+00  0.2560E+03
     11.961  0.0000E+00  0.2560E+03
     12.088  0.0000E+00  0.2560E+03
     12.215  0.0000E+00  0.2560E+03
     12.341  0.0000E+00  0.2560E+03
     12.468  0.0000E+00  0.2560E+03
     12.595  0.0000E+00  0.2560E+03
     12.722  0.0000E+00  0.2560E+03
     12.848  0.0000E+00  0.2560E+03
     12.975  0.0000E+00  0.2560E+03
     13.102  0.0000E+00  0.2560E+03
     13.229  0.0000E+00  0.2560E+03
     13.355  0.0000E+00  0.2560E+03
     13.482  0.0000E+00  0.2560E+03
     13.609  0.0000E+00  0.2560E+03
     13.736  0.0000E+00  0.2560E+03
     13.862  0.0000E+00  0.2560E+03
     13.989  0.0000E+00  0.2560E+03
     14.116  0.0000E+00  0.2560E+03
     14.243  0.0000E+00  0.2560E+03
     14.369  0.0000E+00  0.2560E+03
     14.496  0.1950E-15  0.2560E+03
     14.623  0.8229E-07  0.2560E+03
     14.750  0.7045E-02  0.2560E+03
     14.876  0.4171E+00  0.2561E+03
     15.003  0.1364E+01  0.2562E+03
     15.130  0.3227E+01  0.2566E+03
     15.257  0.4024E+01  0.2571E+03
     15.383  0.2894E+01  0.2575E+03
     15.510  0.4881E+01  0.2581E+03
     15.637  0.9371E+01  0.2593E+03
     15.764  0.9196E+01  0.2605E+03
     15.890  0.5013E+01  0.2611E+03
     16.017  0.7992E+01  0.2621E+03
     16.144  0.1050E+02  0.2635E+03
     16.271  0.1517E+02  0.2654E+03
     16.397  0.1260E+02  0.2670E+03
     16.524  0.1273E+02  0.2686E+03
     16.651  0.1343E+02  0.2703E+03
     16.778  0.1203E+02  0.2718E+03
     16.904  0.1357E+02  0.2735E+03
     17.031  0.1797E+02  0.2758E+03
     17.158  0.1948E+02  0.2783E+03
     17.285  0.1479E+02  0.2802E+03
     17.411  0.1613E+02  0.2822E+03
     17.538  0.1843E+02  0.2845E+03
     17.665  0.1805E+02  0.2868E+03
     17.792  0.1640E+02  0.2889E+03
     17.918  0.2017E+02  0.2915E+03
     18.045  0.2331E+02  0.2944E+03
     18.172  0.1783E+02  0.2967E+03
     18.299  0.2489E+02  0.2998E+03
     18.425  0.2259E+02  0.3027E+03
     18.552  0.2239E+02  0.3055E+03
     18.679  0.2262E+02  0.3084E+03
     18.806  0.3252E+02  0.3125E+03
     18.932  0.2869E+02  0.3162E+03
     19.059  0.3143E+02  0.3201E+03
     19.186  0.2680E+02  0.3235E+03
     19.313  0.3013E+02  0.3274E+03
     19.439  0.2839E+02  0.3310E+03
     19.566  0.2854E+02  0.3346E+03
     19.693  0.3630E+02  0.3392E+03
     19.820  0.2262E+02  0.3420E+03
     19.946  0.2066E+02  0.3447E+03
     20.073  0.2902E+02  0.3483E+03
     20.200  0.2402E+02  0.3514E+03
     20.327  0.2387E+02  0.3544E+03
     20.453  0.3042E+02  0.3583E+03
     20.580  0.3203E+02  0.3623E+03
     20.707  0.2599E+02  0.3656E+03
     20.834  0.2517E+02  0.3688E+03
     20.960  0.2856E+02  0.3724E+03
     21.087  0.2371E+02  0.3754E+03
     21.214  0.1367E+02  0.3772E+03
     21.341  0.1244E+02  0.3788E+03
     21.467  0.1299E+02  0.3804E+03
     21.594  0.1018E+02  0.3817E+03
     21.721  0.5582E+01  0.3824E+03
     21.848  0.2557E+01  0.3827E+03
     21.975  0.2485E+01  0.3830E+03
     22.101  0.1628E+01  0.3832E+03
     22.228  0.2637E+01  0.3836E+03
     22.355  0.1370E+01  0.3837E+03
     22.482  0.1064E+01  0.3839E+03
     22.608  0.1805E+00  0.3839E+03
     22.735  0.2145E-02  0.3839E+03
     22.862  0.3645E+00  0.3840E+03
     22.989  0.3674E+00  0.3840E+03
     23.115  0.5615E-02  0.3840E+03
     23.242  0.9397E-07  0.3840E+03
     23.369  0.3079E-15  0.3840E+03
     23.496  0.0000E+00  0.3840E+03
     23.622  0.0000E+00  0.3840E+03
     23.749  0.0000E+00  0.3840E+03
     23.876  0.0000E+00  0.3840E+03
     24.003  0.0000E+00  0.3840E+03
     24.129  0.0000E+00  0.3840E+03
     24.256  0.0000E+00  0.3840E+03
     24.383  0.0000E+00  0.3840E+03
     24.510  0.0000E+00  0.3840E+03
     24.636  0.0000E+00  0.3840E+03
