mesh: [    48,    48,    48 ]
nqpoint: 2600   
reciprocal_lattice:
- [   0.28559140,   0.00000000,   0.00000000 ] # a*
- [   0.00000000,   0.28559140,   0.00000000 ] # b*
- [   0.00000000,   0.00000000,   0.28559140 ] # c*
natom:   8      
lattice:
- [     3.501506000000000,     0.000000000000000,     0.000000000000000 ] # a
- [     0.000000000000000,     3.501506000000000,     0.000000000000000 ] # b
- [     0.000000000000000,     0.000000000000000,     3.501506000000000 ] # c
points:
- symbol: C  # 1
  coordinates: [  0.250000000000000,  0.750000000000000,  0.250000000000000 ]
  mass: 12.010700
- symbol: C  # 2
  coordinates: [  0.000000000000000,  0.000000000000000,  0.500000000000000 ]
  mass: 12.010700
- symbol: C  # 3
  coordinates: [  0.250000000000000,  0.250000000000000,  0.750000000000000 ]
  mass: 12.010700
- symbol: C  # 4
  coordinates: [  0.000000000000000,  0.500000000000000,  0.000000000000000 ]
  mass: 12.010700
- symbol: C  # 5
  coordinates: [  0.750000000000000,  0.750000000000000,  0.750000000000000 ]
  mass: 12.010700
- symbol: C  # 6
  coordinates: [  0.500000000000000,  0.000000000000000,  0.000000000000000 ]
  mass: 12.010700
- symbol: C  # 7
  coordinates: [  0.750000000000000,  0.250000000000000,  0.250000000000000 ]
  mass: 12.010700
- symbol: C  # 8
  coordinates: [  0.500000000000000,  0.500000000000000,  0.500000000000000 ]
  mass: 12.010700

phonon:
- q-position: [    0.0104167,    0.0104167,    0.0104167 ]
  distance_from_gamma:  0.005152696
  weight: 8    
  band:
  - # 1
    frequency:     0.6127608640
  - # 2
    frequency:     0.6127608640
  - # 3
    frequency:     0.9843632137
  - # 4
    frequency:    23.6914735310
  - # 5
    frequency:    23.6914735310
  - # 6
    frequency:    23.6914735310
  - # 7
    frequency:    23.7067520025
  - # 8
    frequency:    23.7067520025
  - # 9
    frequency:    23.7067520025
  - # 10
    frequency:    34.7934079625
  - # 11
    frequency:    34.7934079625
  - # 12
    frequency:    34.7934079625
  - # 13
    frequency:    34.8023745929
  - # 14
    frequency:    34.8023745929
  - # 15
    frequency:    34.8023745929
  - # 16
    frequency:    37.5771847183
  - # 17
    frequency:    37.5771847183
  - # 18
    frequency:    37.5771847183
  - # 19
    frequency:    37.9318417911
  - # 20
    frequency:    37.9318417911
  - # 21
    frequency:    37.9318417911
  - # 22
    frequency:    41.2096018649
  - # 23
    frequency:    41.2096018649
  - # 24
    frequency:    41.2130733289

- q-position: [    0.0312500,    0.0104167,    0.0104167 ]
  distance_from_gamma:  0.009866662
  weight: 24   
  band:
  - # 1
    frequency:     1.1951032513
  - # 2
    frequency:     1.2336069950
  - # 3
    frequency:     1.8307483618
  - # 4
    frequency:    23.6634892651
  - # 5
    frequency:    23.6787717790
  - # 6
    frequency:    23.7031010249
  - # 7
    frequency:    23.7031010249
  - # 8
    frequency:    23.7488533143
  - # 9
    frequency:    23.7488533143
  - # 10
    frequency:    34.7694611929
  - # 11
    frequency:    34.7694611929
  - # 12
    frequency:    34.7963357761
  - # 13
    frequency:    34.7963357761
  - # 14
    frequency:    34.8101864968
  - # 15
    frequency:    34.8197419751
  - # 16
    frequency:    37.2045896810
  - # 17
    frequency:    37.5725658976
  - # 18
    frequency:    37.5725658976
  - # 19
    frequency:    37.9256526413
  - # 20
    frequency:    37.9256526413
  - # 21
    frequency:    38.2679129709
  - # 22
    frequency:    41.1981227733
  - # 23
    frequency:    41.1989332564
  - # 24
    frequency:    41.2164476580

- q-position: [    0.0520833,    0.0104167,    0.0104167 ]
  distance_from_gamma:  0.015458088
  weight: 24   
  band:
  - # 1
    frequency:     1.9208266649
  - # 2
    frequency:     1.9518902708
  - # 3
    frequency:     2.8192846336
  - # 4
    frequency:    23.6076278510
  - # 5
    frequency:    23.6229174603
  - # 6
    frequency:    23.7414821700
  - # 7
    frequency:    23.7414821700
  - # 8
    frequency:    23.8174621135
  - # 9
    frequency:    23.8174621135
  - # 10
    frequency:    34.7304392308
  - # 11
    frequency:    34.7304392308
  - # 12
    frequency:    34.7752128332
  - # 13
    frequency:    34.7752128332
  - # 14
    frequency:    34.8433782574
  - # 15
    frequency:    34.8543101912
  - # 16
    frequency:    36.8136776420
  - # 17
    frequency:    37.5635074096
  - # 18
    frequency:    37.5635074096
  - # 19
    frequency:    37.9134749899
  - # 20
    frequency:    37.9134749899
  - # 21
    frequency:    38.5860068689
  - # 22
    frequency:    41.1751930299
  - # 23
    frequency:    41.1760908441
  - # 24
    frequency:    41.2246671221

- q-position: [    0.0729167,    0.0104167,    0.0104167 ]
  distance_from_gamma:  0.021245110
  weight: 24   
  band:
  - # 1
    frequency:     2.6655297200
  - # 2
    frequency:     2.6889957775
  - # 3
    frequency:     3.8454855864
  - # 4
    frequency:    23.5240982751
  - # 5
    frequency:    23.5393961224
  - # 6
    frequency:    23.8062313136
  - # 7
    frequency:    23.8062313136
  - # 8
    frequency:    23.9120351754
  - # 9
    frequency:    23.9120351754
  - # 10
    frequency:    34.6761956448
  - # 11
    frequency:    34.6761956448
  - # 12
    frequency:    34.7388280171
  - # 13
    frequency:    34.7388280171
  - # 14
    frequency:    34.8920483402
  - # 15
    frequency:    34.9057523371
  - # 16
    frequency:    36.4049710231
  - # 17
    frequency:    37.5503555153
  - # 18
    frequency:    37.5503555153
  - # 19
    frequency:    37.8957000228
  - # 20
    frequency:    37.8957000228
  - # 21
    frequency:    38.8862708848
  - # 22
    frequency:    41.1408696145
  - # 23
    frequency:    41.1417899628
  - # 24
    frequency:    41.2369482853

- q-position: [    0.0937500,    0.0104167,    0.0104167 ]
  distance_from_gamma:  0.027102724
  weight: 24   
  band:
  - # 1
    frequency:     3.4129480818
  - # 2
    frequency:     3.4308493509
  - # 3
    frequency:     4.8844534224
  - # 4
    frequency:    23.4132015591
  - # 5
    frequency:    23.4285060825
  - # 6
    frequency:    23.8967334687
  - # 7
    frequency:    23.8967334687
  - # 8
    frequency:    24.0318097117
  - # 9
    frequency:    24.0318097117
  - # 10
    frequency:    34.6065428641
  - # 11
    frequency:    34.6065428641
  - # 12
    frequency:    34.6869397871
  - # 13
    frequency:    34.6869397871
  - # 14
    frequency:    34.9537206722
  - # 15
    frequency:    34.9735928506
  - # 16
    frequency:    35.9803286342
  - # 17
    frequency:    37.5336004360
  - # 18
    frequency:    37.5336004360
  - # 19
    frequency:    37.8728895525
  - # 20
    frequency:    37.8728895525
  - # 21
    frequency:    39.1689399387
  - # 22
    frequency:    41.0952382470
  - # 23
    frequency:    41.0961663281
  - # 24
    frequency:    41.2530549624

- q-position: [    0.1145833,    0.0104167,    0.0104167 ]
  distance_from_gamma:  0.032993353
  weight: 24   
  band:
  - # 1
    frequency:     4.1590001157
  - # 2
    frequency:     4.1727694142
  - # 3
    frequency:     5.9270268995
  - # 4
    frequency:    23.2753175322
  - # 5
    frequency:    23.2906238425
  - # 6
    frequency:    24.0121511381
  - # 7
    frequency:    24.0121511381
  - # 8
    frequency:    24.1758135354
  - # 9
    frequency:    24.1758135354
  - # 10
    frequency:    34.5212901354
  - # 11
    frequency:    34.5212901354
  - # 12
    frequency:    34.6192703130
  - # 13
    frequency:    34.6192703130
  - # 14
    frequency:    35.0172848391
  - # 15
    frequency:    35.0572234791
  - # 16
    frequency:    35.5501130081
  - # 17
    frequency:    37.5138440187
  - # 18
    frequency:    37.5138440187
  - # 19
    frequency:    37.8457470804
  - # 20
    frequency:    37.8457470804
  - # 21
    frequency:    39.4342788686
  - # 22
    frequency:    41.0384136799
  - # 23
    frequency:    41.0393440641
  - # 24
    frequency:    41.2727321748

- q-position: [    0.1354167,    0.0104167,    0.0104167 ]
  distance_from_gamma:  0.038902002
  weight: 24   
  band:
  - # 1
    frequency:     4.9018900539
  - # 2
    frequency:     4.9124543636
  - # 3
    frequency:     6.9687654739
  - # 4
    frequency:    23.1108896906
  - # 5
    frequency:    23.1261891433
  - # 6
    frequency:    24.1514327977
  - # 7
    frequency:    24.1514327977
  - # 8
    frequency:    24.3428765017
  - # 9
    frequency:    24.3428765017
  - # 10
    frequency:    34.4202866374
  - # 11
    frequency:    34.4202866374
  - # 12
    frequency:    34.5355441005
  - # 13
    frequency:    34.5355441005
  - # 14
    frequency:    34.9469842549
  - # 15
    frequency:    35.1559219700
  - # 16
    frequency:    35.2492288847
  - # 17
    frequency:    37.4917610831
  - # 18
    frequency:    37.4917610831
  - # 19
    frequency:    37.8150813030
  - # 20
    frequency:    37.8150813030
  - # 21
    frequency:    39.6825752681
  - # 22
    frequency:    40.9705400782
  - # 23
    frequency:    40.9714701297
  - # 24
    frequency:    41.2956743096

- q-position: [    0.1562500,    0.0104167,    0.0104167 ]
  distance_from_gamma:  0.044821545
  weight: 24   
  band:
  - # 1
    frequency:     5.6404537860
  - # 2
    frequency:     5.6484275233
  - # 3
    frequency:     8.0070168590
  - # 4
    frequency:    22.9204096529
  - # 5
    frequency:    22.9356896210
  - # 6
    frequency:    24.3133219388
  - # 7
    frequency:    24.3133219388
  - # 8
    frequency:    24.5316420434
  - # 9
    frequency:    24.5316420434
  - # 10
    frequency:    34.3034683592
  - # 11
    frequency:    34.3034683592
  - # 12
    frequency:    34.4355341371
  - # 13
    frequency:    34.4355341371
  - # 14
    frequency:    34.5246635352
  - # 15
    frequency:    35.2688718919
  - # 16
    frequency:    35.2948990244
  - # 17
    frequency:    37.4680580972
  - # 18
    frequency:    37.4680580972
  - # 19
    frequency:    37.7817644176
  - # 20
    frequency:    37.7817644176
  - # 21
    frequency:    39.9141371283
  - # 22
    frequency:    40.8917914779
  - # 23
    frequency:    40.8927196573
  - # 24
    frequency:    41.3215229229

- q-position: [    0.1770833,    0.0104167,    0.0104167 ]
  distance_from_gamma:  0.050748170
  weight: 24   
  band:
  - # 1
    frequency:     6.3737540223
  - # 2
    frequency:     6.3795607895
  - # 3
    frequency:     9.0399270575
  - # 4
    frequency:    22.7044025247
  - # 5
    frequency:    22.7196463578
  - # 6
    frequency:    24.4963652429
  - # 7
    frequency:    24.4963652429
  - # 8
    frequency:    24.7405773741
  - # 9
    frequency:    24.7405773741
  - # 10
    frequency:    34.0271937501
  - # 11
    frequency:    34.1709059820
  - # 12
    frequency:    34.1709059820
  - # 13
    frequency:    34.3191125489
  - # 14
    frequency:    34.3191125489
  - # 15
    frequency:    35.3951821790
  - # 16
    frequency:    35.4092606127
  - # 17
    frequency:    37.4434331945
  - # 18
    frequency:    37.4434331945
  - # 19
    frequency:    37.7466884605
  - # 20
    frequency:    37.7466884605
  - # 21
    frequency:    40.1292919341
  - # 22
    frequency:    40.8023723098
  - # 23
    frequency:    40.8032976171
  - # 24
    frequency:    41.3498687149

- q-position: [    0.1979167,    0.0104167,    0.0104167 ]
  distance_from_gamma:  0.056679656
  weight: 24   
  band:
  - # 1
    frequency:     7.1009523247
  - # 2
    frequency:     7.1048957080
  - # 3
    frequency:    10.0660472021
  - # 4
    frequency:    22.4634141365
  - # 5
    frequency:    22.4786012831
  - # 6
    frequency:    24.6989181072
  - # 7
    frequency:    24.6989181072
  - # 8
    frequency:    24.9679806283
  - # 9
    frequency:    24.9679806283
  - # 10
    frequency:    33.5025350765
  - # 11
    frequency:    34.0228514908
  - # 12
    frequency:    34.0228514908
  - # 13
    frequency:    34.1863025909
  - # 14
    frequency:    34.1863025909
  - # 15
    frequency:    35.5339053221
  - # 16
    frequency:    35.5433224364
  - # 17
    frequency:    37.4185413136
  - # 18
    frequency:    37.4185413136
  - # 19
    frequency:    37.7107234844
  - # 20
    frequency:    37.7107234844
  - # 21
    frequency:    40.3283864219
  - # 22
    frequency:    40.7025179788
  - # 23
    frequency:    40.7034397504
  - # 24
    frequency:    41.3802546679

- q-position: [    0.2187500,    0.0104167,    0.0104167 ]
  distance_from_gamma:  0.062614621
  weight: 24   
  band:
  - # 1
    frequency:     7.8212607995
  - # 2
    frequency:     7.8235661793
  - # 3
    frequency:    11.0841578309
  - # 4
    frequency:    22.1980007260
  - # 5
    frequency:    22.2131069850
  - # 6
    frequency:    24.9191452818
  - # 7
    frequency:    24.9191452818
  - # 8
    frequency:    25.2119827710
  - # 9
    frequency:    25.2119827710
  - # 10
    frequency:    32.9557166032
  - # 11
    frequency:    33.8597825537
  - # 12
    frequency:    33.8597825537
  - # 13
    frequency:    34.0373293532
  - # 14
    frequency:    34.0373293532
  - # 15
    frequency:    35.6840535260
  - # 16
    frequency:    35.6910026850
  - # 17
    frequency:    37.3939673652
  - # 18
    frequency:    37.3939673652
  - # 19
    frequency:    37.6746813721
  - # 20
    frequency:    37.6746813721
  - # 21
    frequency:    40.5117866895
  - # 22
    frequency:    40.5924954806
  - # 23
    frequency:    40.5934133245
  - # 24
    frequency:    41.4121797244

- q-position: [    0.2395833,    0.0104167,    0.0104167 ]
  distance_from_gamma:  0.068552161
  weight: 24   
  band:
  - # 1
    frequency:     8.5339214346
  - # 2
    frequency:     8.5347615296
  - # 3
    frequency:    12.0931830992
  - # 4
    frequency:    21.9087212595
  - # 5
    frequency:    21.9237191261
  - # 6
    frequency:    25.1550137232
  - # 7
    frequency:    25.1550137232
  - # 8
    frequency:    25.4705414592
  - # 9
    frequency:    25.4705414592
  - # 10
    frequency:    32.3879469505
  - # 11
    frequency:    33.6824457450
  - # 12
    frequency:    33.6824457450
  - # 13
    frequency:    33.8726680792
  - # 14
    frequency:    33.8726680792
  - # 15
    frequency:    35.8446125186
  - # 16
    frequency:    35.8500335254
  - # 17
    frequency:    37.3702089744
  - # 18
    frequency:    37.3702089744
  - # 19
    frequency:    37.6392883578
  - # 20
    frequency:    37.6392883578
  - # 21
    frequency:    40.4726040417
  - # 22
    frequency:    40.4735178357
  - # 23
    frequency:    40.6798784988
  - # 24
    frequency:    41.4451027989

- q-position: [    0.2604167,    0.0104167,    0.0104167 ]
  distance_from_gamma:  0.074491662
  weight: 24   
  band:
  - # 1
    frequency:     9.2377075185
  - # 2
    frequency:     9.2381964712
  - # 3
    frequency:    13.0921460132
  - # 4
    frequency:    21.5961322910
  - # 5
    frequency:    21.6109913624
  - # 6
    frequency:    25.4042737740
  - # 7
    frequency:    25.4042737740
  - # 8
    frequency:    25.7414229952
  - # 9
    frequency:    25.7414229952
  - # 10
    frequency:    31.7996542659
  - # 11
    frequency:    33.4919022793
  - # 12
    frequency:    33.4919022793
  - # 13
    frequency:    33.6930914683
  - # 14
    frequency:    33.6930914683
  - # 15
    frequency:    36.0145529970
  - # 16
    frequency:    36.0189339333
  - # 17
    frequency:    37.3476688515
  - # 18
    frequency:    37.3476688515
  - # 19
    frequency:    37.6051679997
  - # 20
    frequency:    37.6051679997
  - # 21
    frequency:    40.3431757645
  - # 22
    frequency:    40.3440856904
  - # 23
    frequency:    40.8330676782
  - # 24
    frequency:    41.4784470156

- q-position: [    0.2812500,    0.0104167,    0.0104167 ]
  distance_from_gamma:  0.080432688
  weight: 24   
  band:
  - # 1
    frequency:     9.9316560409
  - # 2
    frequency:     9.9333636824
  - # 3
    frequency:    14.0801438728
  - # 4
    frequency:    21.2607850589
  - # 5
    frequency:    21.2754724679
  - # 6
    frequency:    25.6644232444
  - # 7
    frequency:    25.6644232444
  - # 8
    frequency:    26.0221668369
  - # 9
    frequency:    26.0221668369
  - # 10
    frequency:    31.1910388810
  - # 11
    frequency:    33.2895829450
  - # 12
    frequency:    33.2895829450
  - # 13
    frequency:    33.4997206378
  - # 14
    frequency:    33.4997206378
  - # 15
    frequency:    36.1928399014
  - # 16
    frequency:    36.1964677052
  - # 17
    frequency:    37.3266555672
  - # 18
    frequency:    37.3266555672
  - # 19
    frequency:    37.5728347484
  - # 20
    frequency:    37.5728347484
  - # 21
    frequency:    40.2045762575
  - # 22
    frequency:    40.2054828599
  - # 23
    frequency:    40.9717805586
  - # 24
    frequency:    41.5116040944

- q-position: [    0.3020833,    0.0104167,    0.0104167 ]
  distance_from_gamma:  0.086374924
  weight: 24   
  band:
  - # 1
    frequency:    10.6158793400
  - # 2
    frequency:    10.6187140251
  - # 3
    frequency:    15.0563342953
  - # 4
    frequency:    20.9032244083
  - # 5
    frequency:    20.9177052599
  - # 6
    frequency:    25.9326466178
  - # 7
    frequency:    25.9326466178
  - # 8
    frequency:    26.3100244552
  - # 9
    frequency:    26.3100244552
  - # 10
    frequency:    30.5622268250
  - # 11
    frequency:    33.0773624027
  - # 12
    frequency:    33.0773624027
  - # 13
    frequency:    33.2940884644
  - # 14
    frequency:    33.2940884644
  - # 15
    frequency:    36.3784398197
  - # 16
    frequency:    36.3814987655
  - # 17
    frequency:    37.3073907061
  - # 18
    frequency:    37.3073907061
  - # 19
    frequency:    37.5426967993
  - # 20
    frequency:    37.5426967993
  - # 21
    frequency:    40.0572052333
  - # 22
    frequency:    40.0581094968
  - # 23
    frequency:    41.0964643943
  - # 24
    frequency:    41.5439388138

- q-position: [    0.3229167,    0.0104167,    0.0104167 ]
  distance_from_gamma:  0.092318138
  weight: 24   
  band:
  - # 1
    frequency:    11.2896666956
  - # 2
    frequency:    11.2935505159
  - # 3
    frequency:    16.0199270488
  - # 4
    frequency:    20.5239891016
  - # 5
    frequency:    20.5382268894
  - # 6
    frequency:    26.2057181280
  - # 7
    frequency:    26.2057181280
  - # 8
    frequency:    26.6018601562
  - # 9
    frequency:    26.6018601562
  - # 10
    frequency:    29.9133248132
  - # 11
    frequency:    32.8576671618
  - # 12
    frequency:    32.8576671618
  - # 13
    frequency:    33.0782289828
  - # 14
    frequency:    33.0782289828
  - # 15
    frequency:    36.5703268699
  - # 16
    frequency:    36.5729434892
  - # 17
    frequency:    37.2900201219
  - # 18
    frequency:    37.2900201219
  - # 19
    frequency:    37.5150659273
  - # 20
    frequency:    37.5150659273
  - # 21
    frequency:    39.9014970522
  - # 22
    frequency:    39.9024004966
  - # 23
    frequency:    41.2075877264
  - # 24
    frequency:    41.5747934911

- q-position: [    0.3437500,    0.0104167,    0.0104167 ]
  distance_from_gamma:  0.098262151
  weight: 24   
  band:
  - # 1
    frequency:    11.9523225258
  - # 2
    frequency:    11.9571877669
  - # 3
    frequency:    16.9701791929
  - # 4
    frequency:    20.1236130962
  - # 5
    frequency:    20.1375700842
  - # 6
    frequency:    26.4798527396
  - # 7
    frequency:    26.4798527396
  - # 8
    frequency:    26.8939953378
  - # 9
    frequency:    26.8939953378
  - # 10
    frequency:    29.2444438441
  - # 11
    frequency:    32.6336363966
  - # 12
    frequency:    32.6336363966
  - # 13
    frequency:    32.8548129186
  - # 14
    frequency:    32.8548129186
  - # 15
    frequency:    36.7674873923
  - # 16
    frequency:    36.7697532251
  - # 17
    frequency:    37.2746272171
  - # 18
    frequency:    37.2746272171
  - # 19
    frequency:    37.4901716130
  - # 20
    frequency:    37.4901716130
  - # 21
    frequency:    39.7379211925
  - # 22
    frequency:    39.7388259837
  - # 23
    frequency:    41.3056406553
  - # 24
    frequency:    41.6034924202

- q-position: [    0.3645833,    0.0104167,    0.0104167 ]
  distance_from_gamma:  0.104206827
  weight: 24   
  band:
  - # 1
    frequency:    12.6031653186
  - # 2
    frequency:    12.6089518824
  - # 3
    frequency:    17.9063921450
  - # 4
    frequency:    19.7026274270
  - # 5
    frequency:    19.7162649843
  - # 6
    frequency:    26.7504839683
  - # 7
    frequency:    26.7504839683
  - # 8
    frequency:    27.1819697319
  - # 9
    frequency:    27.1819697319
  - # 10
    frequency:    28.5557109102
  - # 11
    frequency:    32.4093589916
  - # 12
    frequency:    32.4093589916
  - # 13
    frequency:    32.6273577609
  - # 14
    frequency:    32.6273577609
  - # 15
    frequency:    36.9689237438
  - # 16
    frequency:    36.9709077954
  - # 17
    frequency:    37.2612466468
  - # 18
    frequency:    37.2612466468
  - # 19
    frequency:    37.4681769080
  - # 20
    frequency:    37.4681769080
  - # 21
    frequency:    39.5669826272
  - # 22
    frequency:    39.5678917054
  - # 23
    frequency:    41.3911349865
  - # 24
    frequency:    41.6293462157

- q-position: [    0.3854167,    0.0104167,    0.0104167 ]
  distance_from_gamma:  0.110152059
  weight: 24   
  band:
  - # 1
    frequency:    13.2415270550
  - # 2
    frequency:    13.2481805482
  - # 3
    frequency:    18.8279098818
  - # 4
    frequency:    19.2615623963
  - # 5
    frequency:    19.2748412774
  - # 6
    frequency:    27.0119461922
  - # 7
    frequency:    27.0119461922
  - # 8
    frequency:    27.4601868259
  - # 9
    frequency:    27.4601868259
  - # 10
    frequency:    27.8472755929
  - # 11
    frequency:    32.1902076458
  - # 12
    frequency:    32.1902076458
  - # 13
    frequency:    32.4005500496
  - # 14
    frequency:    32.4005500496
  - # 15
    frequency:    37.1736574320
  - # 16
    frequency:    37.1754134181
  - # 17
    frequency:    37.2498774005
  - # 18
    frequency:    37.2498774005
  - # 19
    frequency:    37.4491939766
  - # 20
    frequency:    37.4491939766
  - # 21
    frequency:    39.3892220891
  - # 22
    frequency:    39.3901393139
  - # 23
    frequency:    41.4646042232
  - # 24
    frequency:    41.6516560135

- q-position: [    0.4062500,    0.0104167,    0.0104167 ]
  distance_from_gamma:  0.116097761
  weight: 24   
  band:
  - # 1
    frequency:    13.8667529147
  - # 2
    frequency:    13.8742232079
  - # 3
    frequency:    18.8009498477
  - # 4
    frequency:    18.8138304123
  - # 5
    frequency:    19.7341178005
  - # 6
    frequency:    27.1193142169
  - # 7
    frequency:    27.2570553056
  - # 8
    frequency:    27.2570553056
  - # 9
    frequency:    27.7214195294
  - # 10
    frequency:    27.7214195294
  - # 11
    frequency:    31.9832614884
  - # 12
    frequency:    31.9832614884
  - # 13
    frequency:    32.1807208155
  - # 14
    frequency:    32.1807208155
  - # 15
    frequency:    37.2404947039
  - # 16
    frequency:    37.2404947039
  - # 17
    frequency:    37.3807317656
  - # 18
    frequency:    37.3823025402
  - # 19
    frequency:    37.4332978810
  - # 20
    frequency:    37.4332978810
  - # 21
    frequency:    39.2052162054
  - # 22
    frequency:    39.2061465204
  - # 23
    frequency:    41.5266033749
  - # 24
    frequency:    41.6697174886

- q-position: [    0.4270833,    0.0104167,    0.0104167 ]
  distance_from_gamma:  0.122043864
  weight: 24   
  band:
  - # 1
    frequency:    14.4782011280
  - # 2
    frequency:    14.4864412548
  - # 3
    frequency:    18.3213253599
  - # 4
    frequency:    18.3337677303
  - # 5
    frequency:    20.6244419517
  - # 6
    frequency:    26.3720327307
  - # 7
    frequency:    27.4766506831
  - # 8
    frequency:    27.4766506831
  - # 9
    frequency:    27.9562173840
  - # 10
    frequency:    27.9562173840
  - # 11
    frequency:    31.7976995259
  - # 12
    frequency:    31.7976995259
  - # 13
    frequency:    31.9764889620
  - # 14
    frequency:    31.9764889620
  - # 15
    frequency:    37.2330605283
  - # 16
    frequency:    37.2330605283
  - # 17
    frequency:    37.4205378086
  - # 18
    frequency:    37.4205378086
  - # 19
    frequency:    37.5892141487
  - # 20
    frequency:    37.5906345284
  - # 21
    frequency:    39.0155774868
  - # 22
    frequency:    39.0165271056
  - # 23
    frequency:    41.5777085573
  - # 24
    frequency:    41.6828246518

- q-position: [    0.4479167,    0.0104167,    0.0104167 ]
  distance_from_gamma:  0.127990313
  weight: 24   
  band:
  - # 1
    frequency:    15.0752428800
  - # 2
    frequency:    15.0842081891
  - # 3
    frequency:    17.8232302568
  - # 4
    frequency:    17.8351944093
  - # 5
    frequency:    21.4983484587
  - # 6
    frequency:    25.6056688583
  - # 7
    frequency:    27.6593503135
  - # 8
    frequency:    27.6593503135
  - # 9
    frequency:    28.1524694892
  - # 10
    frequency:    28.1524694892
  - # 11
    frequency:    31.6447542337
  - # 12
    frequency:    31.6447542337
  - # 13
    frequency:    31.7994779171
  - # 14
    frequency:    31.7994779171
  - # 15
    frequency:    37.2275326572
  - # 16
    frequency:    37.2275326572
  - # 17
    frequency:    37.4109454782
  - # 18
    frequency:    37.4109454782
  - # 19
    frequency:    37.7981981042
  - # 20
    frequency:    37.7994967402
  - # 21
    frequency:    38.8209541569
  - # 22
    frequency:    38.8219307751
  - # 23
    frequency:    41.6185163603
  - # 24
    frequency:    41.6902733964

- q-position: [    0.4687500,    0.0104167,    0.0104167 ]
  distance_from_gamma:  0.133937061
  weight: 24   
  band:
  - # 1
    frequency:    15.6572621952
  - # 2
    frequency:    15.6669096932
  - # 3
    frequency:    17.3072133698
  - # 4
    frequency:    17.3186591591
  - # 5
    frequency:    22.3553430070
  - # 6
    frequency:    24.8204937963
  - # 7
    frequency:    27.7921195414
  - # 8
    frequency:    27.7921195414
  - # 9
    frequency:    28.2958309611
  - # 10
    frequency:    28.2958309611
  - # 11
    frequency:    31.5362763755
  - # 12
    frequency:    31.5362763755
  - # 13
    frequency:    31.6647464331
  - # 14
    frequency:    31.6647464331
  - # 15
    frequency:    37.2238722784
  - # 16
    frequency:    37.2238722784
  - # 17
    frequency:    37.4045408856
  - # 18
    frequency:    37.4045408856
  - # 19
    frequency:    38.0068050753
  - # 20
    frequency:    38.0080057407
  - # 21
    frequency:    38.6220298121
  - # 22
    frequency:    38.6230428498
  - # 23
    frequency:    41.6496429612
  - # 24
    frequency:    41.6913647715

- q-position: [    0.4895833,    0.0104167,    0.0104167 ]
  distance_from_gamma:  0.139884071
  weight: 24   
  band:
  - # 1
    frequency:    16.2236557439
  - # 2
    frequency:    16.2339435886
  - # 3
    frequency:    16.7738325238
  - # 4
    frequency:    16.7847196386
  - # 5
    frequency:    23.1949703241
  - # 6
    frequency:    24.0168135979
  - # 7
    frequency:    27.8624914178
  - # 8
    frequency:    27.8624914178
  - # 9
    frequency:    28.3721436792
  - # 10
    frequency:    28.3721436792
  - # 11
    frequency:    31.4809089985
  - # 12
    frequency:    31.4809089985
  - # 13
    frequency:    31.5899667948
  - # 14
    frequency:    31.5899667948
  - # 15
    frequency:    37.2220499857
  - # 16
    frequency:    37.2220499857
  - # 17
    frequency:    37.4013358353
  - # 18
    frequency:    37.4013358353
  - # 19
    frequency:    38.2141860330
  - # 20
    frequency:    38.2153085417
  - # 21
    frequency:    38.4195229028
  - # 22
    frequency:    38.4205837887
  - # 23
    frequency:    41.6717229659
  - # 24
    frequency:    41.6854079619

- q-position: [    0.0312500,    0.0312500,    0.0104167 ]
  distance_from_gamma:  0.012967334
  weight: 24   
  band:
  - # 1
    frequency:     1.4923574090
  - # 2
    frequency:     1.6257509294
  - # 3
    frequency:     2.4500540364
  - # 4
    frequency:    23.6750446908
  - # 5
    frequency:    23.6750446908
  - # 6
    frequency:    23.6841271302
  - # 7
    frequency:    23.7208324917
  - # 8
    frequency:    23.7208324917
  - # 9
    frequency:    23.8211185454
  - # 10
    frequency:    34.7287183627
  - # 11
    frequency:    34.7838275565
  - # 12
    frequency:    34.7838275565
  - # 13
    frequency:    34.8082244990
  - # 14
    frequency:    34.8139047361
  - # 15
    frequency:    34.8139047361
  - # 16
    frequency:    37.2059443078
  - # 17
    frequency:    37.2059443078
  - # 18
    frequency:    37.5588237558
  - # 19
    frequency:    37.9275326069
  - # 20
    frequency:    38.2581562590
  - # 21
    frequency:    38.2581562590
  - # 22
    frequency:    41.1870036953
  - # 23
    frequency:    41.1930561025
  - # 24
    frequency:    41.2147114994

- q-position: [    0.0520833,    0.0312500,    0.0104167 ]
  distance_from_gamma:  0.017599807
  weight: 48   
  band:
  - # 1
    frequency:     2.0616347611
  - # 2
    frequency:     2.2207256890
  - # 3
    frequency:     3.2887909342
  - # 4
    frequency:    23.6190417117
  - # 5
    frequency:    23.6648981965
  - # 6
    frequency:    23.6919487607
  - # 7
    frequency:    23.7132558747
  - # 8
    frequency:    23.7893844309
  - # 9
    frequency:    23.9194206832
  - # 10
    frequency:    34.6741071914
  - # 11
    frequency:    34.7392021274
  - # 12
    frequency:    34.7941721251
  - # 13
    frequency:    34.8048412906
  - # 14
    frequency:    34.8115207106
  - # 15
    frequency:    34.8488173840
  - # 16
    frequency:    36.8229010401
  - # 17
    frequency:    37.2085991090
  - # 18
    frequency:    37.5329560287
  - # 19
    frequency:    37.9301672465
  - # 20
    frequency:    38.2388701594
  - # 21
    frequency:    38.5739233530
  - # 22
    frequency:    41.1642785173
  - # 23
    frequency:    41.1728764350
  - # 24
    frequency:    41.2201454989

- q-position: [    0.0729167,    0.0312500,    0.0104167 ]
  distance_from_gamma:  0.022850720
  weight: 48   
  band: