       N       E                     dE             d eps       ncg     rms          rms(c)
DAV:   1     0.517614122820E+03    0.51761E+03   -0.11471E+05 13440   0.107E+03
DAV:   2    -0.563955423633E+03   -0.10816E+04   -0.10329E+04 17664   0.235E+02
DAV:   3    -0.603637511220E+03   -0.39682E+02   -0.39465E+02 17856   0.421E+01
DAV:   4    -0.604024830296E+03   -0.38732E+00   -0.38653E+00 17568   0.464E+00
DAV:   5    -0.604032774583E+03   -0.79443E-02   -0.79412E-02 16608   0.603E-01    0.287E+01
DAV:   6    -0.586114264289E+03    0.17919E+02   -0.11688E+01 15776   0.702E+00    0.156E+01
DAV:   7    -0.580075329457E+03    0.60389E+01   -0.13121E+01 16640   0.765E+00    0.201E+00
DAV:   8    -0.580142482554E+03   -0.67153E-01   -0.29035E-01 16448   0.109E+00    0.226E-01
DAV:   9    -0.580144550924E+03   -0.20684E-02   -0.36066E-03 17568   0.147E-01    0.828E-02
DAV:  10    -0.580144980855E+03   -0.42993E-03   -0.36012E-04 15840   0.514E-02    0.814E-03
DAV:  11    -0.580144987111E+03   -0.62559E-05   -0.10290E-05 17664   0.775E-03    0.196E-03
DAV:  12    -0.580144986886E+03    0.22438E-06   -0.27328E-07 17024   0.135E-03    0.242E-04
DAV:  13    -0.580144986921E+03   -0.35152E-07   -0.48495E-09 12928   0.183E-04    0.369E-05
DAV:  14    -0.580144986948E+03   -0.26717E-07   -0.58897E-10 10752   0.642E-05    0.219E-05
DAV:  15    -0.580144986948E+03   -0.17099E-09   -0.92302E-11 10080   0.242E-05
   1 F= -.58014499E+03 E0= -.58014499E+03  d E =-.937955E-12
 Linear response reoptimize wavefunctions
DAV:   1    -0.580144986947E+03    0.12769E-08   -0.14104E-11 10048   0.107E-05
DAV:   2    -0.580144986947E+03   -0.99135E-10    0.37688E-12 10080   0.525E-06
 Linear response DOF=           1
 Linear response progress:
  Degree of freedom:   1/  1
       N       E                     dE             d eps       ncg     rms          rms(c)
RMM:   1    -0.150264612625E+00   -0.15026E+00    0.34295E-03114124   0.753E-01
RMM:   2    -0.126625814291E+00    0.23639E-01   -0.71749E-03 67845   0.192E-01    0.198E-01
RMM:   3    -0.126356894038E+00    0.26892E-03   -0.11163E-03 71531   0.564E-02    0.987E-02
RMM:   4    -0.126670478514E+00   -0.31358E-03   -0.31011E-04 71698   0.312E-02    0.291E-02
RMM:   5    -0.126776658407E+00   -0.10618E-03   -0.18120E-05 72985   0.853E-03    0.687E-03
RMM:   6    -0.126761553585E+00    0.15105E-04   -0.14814E-06 73711   0.205E-03    0.142E-03
RMM:   7    -0.126752868287E+00    0.86853E-05    0.18515E-06 74976   0.632E-04    0.405E-04
RMM:   8    -0.126752302084E+00    0.56620E-06    0.20938E-06 76246   0.292E-04    0.850E-05
RMM:   9    -0.126752058472E+00    0.24361E-06    0.19181E-06 77655   0.191E-04    0.369E-05
RMM:  10    -0.126752139331E+00   -0.80858E-07    0.17037E-06 78996   0.184E-04    0.100E-05
RMM:  11    -0.126752164120E+00   -0.24789E-07    0.14467E-06 79313   0.180E-04    0.390E-06
 Linear response finished
