# Thermal properties / unit cell (natom)

unit:
  temperature:   K
  free_energy:   kJ/mol
  entropy:       J/K/mol
  heat_capacity: J/K/mol

natom: 8    
cutoff_frequency:    0.000
num_modes: 2654208
num_integrated_modes: 2654208

zero_point_energy:     146.7398311
high_T_entropy:        422.5044689

thermal_properties:
- temperature:         0.0000000
  free_energy:       146.7398311
  entropy:             0.0000000
  heat_capacity:       0.0000000
  energy:            146.7398311

- temperature:         2.0000000
  free_energy:       146.7398311
  entropy:             0.0000000
  heat_capacity:       0.0000000
  energy:            146.7398311

- temperature:         4.0000000
  free_energy:       146.7398311
  entropy:             0.0000065
  heat_capacity:       0.0000428
  energy:            146.7398311

- temperature:         6.0000000
  free_energy:       146.7398310
  entropy:             0.0000578
  heat_capacity:       0.0002560
  energy:            146.7398313

- temperature:         8.0000000
  free_energy:       146.7398308
  entropy:             0.0001826
  heat_capacity:       0.0006667
  energy:            146.7398322

- temperature:        10.0000000
  free_energy:       146.7398302
  entropy:             0.0003968
  heat_capacity:       0.0013243
  energy:            146.7398342

- temperature:        12.0000000
  free_energy:       146.7398291
  entropy:             0.0007190
  heat_capacity:       0.0022978
  energy:            146.7398377

- temperature:        14.0000000
  free_energy:       146.7398272
  entropy:             0.0011698
  heat_capacity:       0.0036554
  energy:            146.7398436

- temperature:        16.0000000
  free_energy:       146.7398243
  entropy:             0.0017706
  heat_capacity:       0.0054645
  energy:            146.7398527

- temperature:        18.0000000
  free_energy:       146.7398201
  entropy:             0.0025432
  heat_capacity:       0.0077924
  energy:            146.7398658

- temperature:        20.0000000
  free_energy:       146.7398140
  entropy:             0.0035096
  heat_capacity:       0.0107073
  energy:            146.7398842

- temperature:        22.0000000
  free_energy:       146.7398059
  entropy:             0.0046921
  heat_capacity:       0.0142782
  energy:            146.7399091

- temperature:        24.0000000
  free_energy:       146.7397951
  entropy:             0.0061132
  heat_capacity:       0.0185754
  energy:            146.7399418

- temperature:        26.0000000
  free_energy:       146.7397812
  entropy:             0.0077956
  heat_capacity:       0.0236707
  energy:            146.7399839

- temperature:        28.0000000
  free_energy:       146.7397637
  entropy:             0.0097626
  heat_capacity:       0.0296374
  energy:            146.7400371

- temperature:        30.0000000
  free_energy:       146.7397420
  entropy:             0.0120374
  heat_capacity:       0.0365507
  energy:            146.7401031

- temperature:        32.0000000
  free_energy:       146.7397154
  entropy:             0.0146440
  heat_capacity:       0.0444882
  energy:            146.7401840

- temperature:        34.0000000
  free_energy:       146.7396832
  entropy:             0.0176066
  heat_capacity:       0.0535296
  energy:            146.7402818

- temperature:        36.0000000
  free_energy:       146.7396447
  entropy:             0.0209500
  heat_capacity:       0.0637575
  energy:            146.7403989

- temperature:        38.0000000
  free_energy:       146.7395991
  entropy:             0.0246993
  heat_capacity:       0.0752577
  energy:            146.7405377

- temperature:        40.0000000
  free_energy:       146.7395456
  entropy:             0.0288805
  heat_capacity:       0.0881197
  energy:            146.7407008

- temperature:        42.0000000
  free_energy:       146.7394833
  entropy:             0.0335203
  heat_capacity:       0.1024374
  energy:            146.7408911

- temperature:        44.0000000
  free_energy:       146.7394112
  entropy:             0.0386457
  heat_capacity:       0.1183095
  energy:            146.7411116

- temperature:        46.0000000
  free_energy:       146.7393283
  entropy:             0.0442852
  heat_capacity:       0.1358403
  energy:            146.7413655

- temperature:        48.0000000
  free_energy:       146.7392337
  entropy:             0.0504678
  heat_capacity:       0.1551407
  energy:            146.7416561

- temperature:        50.0000000
  free_energy:       146.7391261
  entropy:             0.0572239
  heat_capacity:       0.1763288
  energy:            146.7419873

- temperature:        52.0000000
  free_energy:       146.7390044
  entropy:             0.0645849
  heat_capacity:       0.1995302
  energy:            146.7423628

- temperature:        54.0000000
  free_energy:       146.7388673
  entropy:             0.0725835
  heat_capacity:       0.2248794
  energy:            146.7427868

- temperature:        56.0000000
  free_energy:       146.7387136
  entropy:             0.0812543
  heat_capacity:       0.2525196
  energy:            146.7432638

- temperature:        58.0000000
  free_energy:       146.7385418
  entropy:             0.0906329
  heat_capacity:       0.2826033
  energy:            146.7437985

- temperature:        60.0000000
  free_energy:       146.7383506
  entropy:             0.1007570
  heat_capacity:       0.3152923
  energy:            146.7443960

- temperature:        62.0000000
  free_energy:       146.7381383
  entropy:             0.1116658
  heat_capacity:       0.3507576
  energy:            146.7450616

- temperature:        64.0000000
  free_energy:       146.7379034
  entropy:             0.1234005
  heat_capacity:       0.3891791
  energy:            146.7458010

- temperature:        66.0000000
  free_energy:       146.7376441
  entropy:             0.1360041
  heat_capacity:       0.4307452
  energy:            146.7466204

- temperature:        68.0000000
  free_energy:       146.7373587
  entropy:             0.1495216
  heat_capacity:       0.4756518
  energy:            146.7475262

- temperature:        70.0000000
  free_energy:       146.7370454
  entropy:             0.1639996
  heat_capacity:       0.5241015
  energy:            146.7485254

- temperature:        72.0000000
  free_energy:       146.7367021
  entropy:             0.1794867
  heat_capacity:       0.5763024
  energy:            146.7496251

- temperature:        74.0000000
  free_energy:       146.7363267
  entropy:             0.1960334
  heat_capacity:       0.6324670
  energy:            146.7508332

- temperature:        76.0000000
  free_energy:       146.7359172
  entropy:             0.2136917
  heat_capacity:       0.6928111
  energy:            146.7521578

- temperature:        78.0000000
  free_energy:       146.7354712
  entropy:             0.2325153
  heat_capacity:       0.7575521
  energy:            146.7536074

- temperature:        80.0000000
  free_energy:       146.7349863
  entropy:             0.2525592
  heat_capacity:       0.8269077
  energy:            146.7551911

- temperature:        82.0000000
  free_energy:       146.7344601
  entropy:             0.2738797
  heat_capacity:       0.9010947
  energy:            146.7569182

- temperature:        84.0000000
  free_energy:       146.7338899
  entropy:             0.2965343
  heat_capacity:       0.9803274
  energy:            146.7587988

- temperature:        86.0000000
  free_energy:       146.7332730
  entropy:             0.3205815
  heat_capacity:       1.0648167
  energy:            146.7608430

- temperature:        88.0000000
  free_energy:       146.7326066
  entropy:             0.3460805
  heat_capacity:       1.1547684
  energy:            146.7630617

- temperature:        90.0000000
  free_energy:       146.7318877
  entropy:             0.3730910
  heat_capacity:       1.2503824
  energy:            146.7654659

- temperature:        92.0000000
  free_energy:       146.7311132
  entropy:             0.4016732
  heat_capacity:       1.3518518
  energy:            146.7680671

- temperature:        94.0000000
  free_energy:       146.7302799
  entropy:             0.4318873
  heat_capacity:       1.4593615
  energy:            146.7708773

- temperature:        96.0000000
  free_energy:       146.7293845
  entropy:             0.4637937
  heat_capacity:       1.5730881
  energy:            146.7739087

- temperature:        98.0000000
  free_energy:       146.7284236
  entropy:             0.4974526
  heat_capacity:       1.6931986
  energy:            146.7771739

- temperature:       100.0000000
  free_energy:       146.7273935
  entropy:             0.5329237
  heat_capacity:       1.8198504
  energy:            146.7806859

- temperature:       102.0000000
  free_energy:       146.7262906
  entropy:             0.5702663
  heat_capacity:       1.9531905
  energy:            146.7844578

- temperature:       104.0000000
  free_energy:       146.7251112
  entropy:             0.6095388
  heat_capacity:       2.0933553
  energy:            146.7885032

- temperature:       106.0000000
  free_energy:       146.7238512
  entropy:             0.6507990
  heat_capacity:       2.2404708
  energy:            146.7928359

- temperature:       108.0000000
  free_energy:       146.7225066
  entropy:             0.6941036
  heat_capacity:       2.3946519
  energy:            146.7974698

- temperature:       110.0000000
  free_energy:       146.7210733
  entropy:             0.7395082
  heat_capacity:       2.5560029
  energy:            146.8024192

- temperature:       112.0000000
  free_energy:       146.7195471
  entropy:             0.7870671
  heat_capacity:       2.7246172
  energy:            146.8076986

- temperature:       114.0000000
  free_energy:       146.7179236
  entropy:             0.8368334
  heat_capacity:       2.9005778
  energy:            146.8133226

- temperature:       116.0000000
  free_energy:       146.7161983
  entropy:             0.8888587
  heat_capacity:       3.0839574
  energy:            146.8193059

- temperature:       118.0000000
  free_energy:       146.7143666
  entropy:             0.9431932
  heat_capacity:       3.2748186
  energy:            146.8256634

- temperature:       120.0000000
  free_energy:       146.7124239
  entropy:             0.9998854
  heat_capacity:       3.4732144
  energy:            146.8324102

- temperature:       122.0000000
  free_energy:       146.7103655
  entropy:             1.0589824
  heat_capacity:       3.6791884
  energy:            146.8395613

- temperature:       124.0000000
  free_energy:       146.7081864
  entropy:             1.1205294
  heat_capacity:       3.8927752
  energy:            146.8471320

- temperature:       126.0000000
  free_energy:       146.7058817
  entropy:             1.1845700
  heat_capacity:       4.1140011
  energy:            146.8551375

- temperature:       128.0000000
  free_energy:       146.7034464
  entropy:             1.2511463
  heat_capacity:       4.3428840
  energy:            146.8635931

- temperature:       130.0000000
  free_energy:       146.7008754
  entropy:             1.3202983
  heat_capacity:       4.5794344
  energy:            146.8725142

- temperature:       132.0000000
  free_energy:       146.6981635
  entropy:             1.3920645
  heat_capacity:       4.8236553
  energy:            146.8819160

- temperature:       134.0000000
  free_energy:       146.6953054
  entropy:             1.4664816
  heat_capacity:       5.0755432
  energy:            146.8918139

- temperature:       136.0000000
  free_energy:       146.6922958
  entropy:             1.5435846
  heat_capacity:       5.3350879
  energy:            146.9022233

- temperature:       138.0000000
  free_energy:       146.6891292
  entropy:             1.6234067
  heat_capacity:       5.6022735
  energy:            146.9131594

- temperature:       140.0000000
  free_energy:       146.6858003
  entropy:             1.7059796
  heat_capacity:       5.8770782
  energy:            146.9246374

- temperature:       142.0000000
  free_energy:       146.6823035
  entropy:             1.7913329
  heat_capacity:       6.1594753
  energy:            146.9366727

- temperature:       144.0000000
  free_energy:       146.6786331
  entropy:             1.8794950
  heat_capacity:       6.4494332
  energy:            146.9492804

- temperature:       146.0000000
  free_energy:       146.6747836
  entropy:             1.9704924
  heat_capacity:       6.7469155
  energy:            146.9624755

- temperature:       148.0000000
  free_energy:       146.6707492
  entropy:             2.0643501
  heat_capacity:       7.0518821
  energy:            146.9762730

- temperature:       150.0000000
  free_energy:       146.6665243
  entropy:             2.1610914
  heat_capacity:       7.3642885
  energy:            146.9906880

- temperature:       152.0000000
  free_energy:       146.6621029
  entropy:             2.2607382
  heat_capacity:       7.6840870
  energy:            147.0057351

- temperature:       154.0000000
  free_energy:       146.6574794
  entropy:             2.3633107
  heat_capacity:       8.0112264
  energy:            147.0214292

- temperature:       156.0000000
  free_energy:       146.6526477
  entropy:             2.4688280
  heat_capacity:       8.3456523
  energy:            147.0377849

- temperature:       158.0000000
  free_energy:       146.6476021
  entropy:             2.5773074
  heat_capacity:       8.6873075
  energy:            147.0548166

- temperature:       160.0000000
  free_energy:       146.6423365
  entropy:             2.6887650
  heat_capacity:       9.0361320
  energy:            147.0725389

- temperature:       162.0000000
  free_energy:       146.6368450
  entropy:             2.8032154
  heat_capacity:       9.3920634
  energy:            147.0909659

- temperature:       164.0000000
  free_energy:       146.6311216
  entropy:             2.9206720
  heat_capacity:       9.7550368
  energy:            147.1101118

- temperature:       166.0000000
  free_energy:       146.6251603
  entropy:             3.0411469
  heat_capacity:      10.1249853
  energy:            147.1299907

- temperature:       168.0000000
  free_energy:       146.6189550
  entropy:             3.1646509
  heat_capacity:      10.5018397
  energy:            147.1506164

- temperature:       170.0000000
  free_energy:       146.6124997
  entropy:             3.2911937
  heat_capacity:      10.8855290
  energy:            147.1720026

- temperature:       172.0000000
  free_energy:       146.6057882
  entropy:             3.4207837
  heat_capacity:      11.2759801
  energy:            147.1941630

- temperature:       174.0000000
  free_energy:       146.5988145
  entropy:             3.5534281
  heat_capacity:      11.6731185
  energy:            147.2171110

- temperature:       176.0000000
  free_energy:       146.5915725
  entropy:             3.6891331
  heat_capacity:      12.0768677
  energy:            147.2408599

- temperature:       178.0000000
  free_energy:       146.5840559
  entropy:             3.8279038
  heat_capacity:      12.4871498
  energy:            147.2654228

- temperature:       180.0000000
  free_energy:       146.5762588
  entropy:             3.9697444
  heat_capacity:      12.9038853
  energy:            147.2908128

- temperature:       182.0000000
  free_energy:       146.5681749
  entropy:             4.1146577
  heat_capacity:      13.3269932
  energy:            147.3170426

- temperature:       184.0000000
  free_energy:       146.5597981
  entropy:             4.2626458
  heat_capacity:      13.7563913
  energy:            147.3441250

- temperature:       186.0000000
  free_energy:       146.5511223
  entropy:             4.4137099
  heat_capacity:      14.1919957
  energy:            147.3720723

- temperature:       188.0000000
  free_energy:       146.5421412
  entropy:             4.5678499
  heat_capacity:      14.6337216
  energy:            147.4008970

- temperature:       190.0000000
  free_energy:       146.5328488
  entropy:             4.7250652
  heat_capacity:      15.0814826
  energy:            147.4306112

- temperature:       192.0000000
  free_energy:       146.5232389
  entropy:             4.8853541
  heat_capacity:      15.5351912
  energy:            147.4612269

- temperature:       194.0000000
  free_energy:       146.5133054
  entropy:             5.0487141
  heat_capacity:      15.9947590
  energy:            147.4927559

- temperature:       196.0000000
  free_energy:       146.5030420
  entropy:             5.2151417
  heat_capacity:      16.4600960
  energy:            147.5252098

- temperature:       198.0000000
  free_energy:       146.4924428
  entropy:             5.3846329
  heat_capacity:      16.9311115
  energy:            147.5586001

- temperature:       200.0000000
  free_energy:       146.4815014
  entropy:             5.5571826
  heat_capacity:      17.4077134
  energy:            147.5929380

- temperature:       202.0000000
  free_energy:       146.4702120
  entropy:             5.7327851
  heat_capacity:      17.8898091
  energy:            147.6282346

- temperature:       204.0000000
  free_energy:       146.4585683
  entropy:             5.9114339
  heat_capacity:      18.3773044
  energy:            147.6645008

- temperature:       206.0000000
  free_energy:       146.4465642
  entropy:             6.0931219
  heat_capacity:      18.8701047
  energy:            147.7017473

- temperature:       208.0000000
  free_energy:       146.4341938
  entropy:             6.2778410
  heat_capacity:      19.3681142
  energy:            147.7399847

- temperature:       210.0000000
  free_energy:       146.4214508
  entropy:             6.4655826
  heat_capacity:      19.8712364
  energy:            147.7792232

- temperature:       212.0000000
  free_energy:       146.4083294
  entropy:             6.6563375
  heat_capacity:      20.3793739
  energy:            147.8194730

- temperature:       214.0000000
  free_energy:       146.3948235
  entropy:             6.8500957
  heat_capacity:      20.8924286
  energy:            147.8607440

- temperature:       216.0000000
  free_energy:       146.3809270
  entropy:             7.0468466
  heat_capacity:      21.4103016
  energy:            147.9030459

- temperature:       218.0000000
  free_energy:       146.3666341
  entropy:             7.2465789
  heat_capacity:      21.9328934
  energy:            147.9463883

- temperature:       220.0000000
  free_energy:       146.3519388
  entropy:             7.4492809
  heat_capacity:      22.4601039
  energy:            147.9907806

- temperature:       222.0000000
  free_energy:       146.3368350
  entropy:             7.6549402
  heat_capacity:      22.9918323
  energy:            148.0362318

- temperature:       224.0000000
  free_energy:       146.3213170
  entropy:             7.8635438
  heat_capacity:      23.5279775
  energy:            148.0827508

- temperature:       226.0000000
  free_energy:       146.3053789
  entropy:             8.0750781
  heat_capacity:      24.0684375
  energy:            148.1303465

- temperature:       228.0000000
  free_energy:       146.2890148
  entropy:             8.2895290
  heat_capacity:      24.6131104
  energy:            148.1790274

- temperature:       230.0000000
  free_energy:       146.2722188
  entropy:             8.5068821
  heat_capacity:      25.1618935
  energy:            148.2288017

- temperature:       232.0000000
  free_energy:       146.2549853
  entropy:             8.7271221
  heat_capacity:      25.7146841
  energy:            148.2796776

- temperature:       234.0000000
  free_energy:       146.2373084
  entropy:             8.9502334
  heat_capacity:      26.2713788
  energy:            148.3316631

- temperature:       236.0000000
  free_energy:       146.2191825
  entropy:             9.1762000
  heat_capacity:      26.8318744
  energy:            148.3847657

- temperature:       238.0000000
  free_energy:       146.2006017
  entropy:             9.4050053
  heat_capacity:      27.3960673
  energy:            148.4389930

- temperature:       240.0000000
  free_energy:       146.1815606
  entropy:             9.6366324
  heat_capacity:      27.9638540
  energy:            148.4943524

- temperature:       242.0000000
  free_energy:       146.1620534
  entropy:             9.8710637
  heat_capacity:      28.5351306
  energy:            148.5508508

- temperature:       244.0000000
  free_energy:       146.1420745
  entropy:            10.1082814
  heat_capacity:      29.1097936
  energy:            148.6084951

- temperature:       246.0000000
  free_energy:       146.1216184
  entropy:            10.3482673
  heat_capacity:      29.6877392
  energy:            148.6672921

- temperature:       248.0000000
  free_energy:       146.1006796
  entropy:            10.5910026
  heat_capacity:      30.2688639
  energy:            148.7272482

- temperature:       250.0000000
  free_energy:       146.0792525
  entropy:            10.8364683
  heat_capacity:      30.8530642
  energy:            148.7883696

- temperature:       252.0000000
  free_energy:       146.0573319
  entropy:            11.0846451
  heat_capacity:      31.4402371
  energy:            148.8506624

- temperature:       254.0000000
  free_energy:       146.0349122
  entropy:            11.3355131
  heat_capacity:      32.0302796
  energy:            148.9141325

- temperature:       256.0000000
  free_energy:       146.0119881
  entropy:            11.5890522
  heat_capacity:      32.6230890
  energy:            148.9787854

- temperature:       258.0000000
  free_energy:       145.9885542
  entropy:            11.8452420
  heat_capacity:      33.2185632
  energy:            149.0446266

- temperature:       260.0000000
  free_energy:       145.9646053
  entropy:            12.1040617
  heat_capacity:      33.8166003
  energy:            149.1116614

- temperature:       262.0000000
  free_energy:       145.9401362
  entropy:            12.3654903
  heat_capacity:      34.4170988
  energy:            149.1798947

- temperature:       264.0000000
  free_energy:       145.9151416
  entropy:            12.6295064
  heat_capacity:      35.0199580
  energy:            149.2493313

- temperature:       266.0000000
  free_energy:       145.8896165
  entropy:            12.8960885
  heat_capacity:      35.6250776
  energy:            149.3199760

- temperature:       268.0000000
  free_energy:       145.8635556
  entropy:            13.1652145
  heat_capacity:      36.2323577
  energy:            149.3918331

- temperature:       270.0000000
  free_energy:       145.8369539
  entropy:            13.4368625
  heat_capacity:      36.8416995
  energy:            149.4649068

- temperature:       272.0000000
  free_energy:       145.8098065
  entropy:            13.7110100
  heat_capacity:      37.4530044
  energy:            149.5392012

- temperature:       274.0000000
  free_energy:       145.7821082
  entropy:            13.9876344
  heat_capacity:      38.0661748
  energy:            149.6147201

- temperature:       276.0000000
  free_energy:       145.7538543
  entropy:            14.2667129
  heat_capacity:      38.6811140
  energy:            149.6914671

- temperature:       278.0000000
  free_energy:       145.7250398
  entropy:            14.5482226
  heat_capacity:      39.2977257
  energy:            149.7694456

- temperature:       280.0000000
  free_energy:       145.6956598
  entropy:            14.8321401
  heat_capacity:      39.9159148
  energy:            149.8486590

- temperature:       282.0000000
  free_energy:       145.6657096
  entropy:            15.1184421
  heat_capacity:      40.5355870
  energy:            149.9291103

- temperature:       284.0000000
  free_energy:       145.6351845
  entropy:            15.4071051
  heat_capacity:      41.1566488
  energy:            150.0108023

- temperature:       286.0000000
  free_energy:       145.6040796
  entropy:            15.6981053
  heat_capacity:      41.7790078
  energy:            150.0937378

- temperature:       288.0000000
  free_energy:       145.5723905
  entropy:            15.9914189
  heat_capacity:      42.4025723
  energy:            150.1779191

- temperature:       290.0000000
  free_energy:       145.5401124
  entropy:            16.2870219
  heat_capacity:      43.0272521
  energy:            150.2633488

- temperature:       292.0000000
  free_energy:       145.5072409
  entropy:            16.5848902
  heat_capacity:      43.6529576
  energy:            150.3500288

- temperature:       294.0000000
  free_energy:       145.4737714
  entropy:            16.8849995
  heat_capacity:      44.2796004
  energy:            150.4379612

- temperature:       296.0000000
  free_energy:       145.4396994
  entropy:            17.1873256
  heat_capacity:      44.9070932
  energy:            150.5271478

- temperature:       298.0000000
  free_energy:       145.4050206
  entropy:            17.4918440
  heat_capacity:      45.5353498
  energy:            150.6175901

- temperature:       300.0000000
  free_energy:       145.3697306
  entropy:            17.7985301
  heat_capacity:      46.1642853
  energy:            150.7092897

- temperature:       302.0000000
  free_energy:       145.3338251
  entropy:            18.1073596
  heat_capacity:      46.7938156
  energy:            150.8022477

- temperature:       304.0000000
  free_energy:       145.2972998
  entropy:            18.4183076
  heat_capacity:      47.4238580
  energy:            150.8964653

- temperature:       306.0000000
  free_energy:       145.2601504
  entropy:            18.7313494
  heat_capacity:      48.0543311
  energy:            150.9919434

- temperature:       308.0000000
  free_energy:       145.2223730
  entropy:            19.0464605
  heat_capacity:      48.6851544
  energy:            151.0886828

- temperature:       310.0000000
  free_energy:       145.1839632
  entropy:            19.3636159
  heat_capacity:      49.3162488
  energy:            151.1866842

- temperature:       312.0000000
  free_energy:       145.1449172
  entropy:            19.6827909
  heat_capacity:      49.9475365
  energy:            151.2859479

- temperature:       314.0000000
  free_energy:       145.1052308
  entropy:            20.0039607
  heat_capacity:      50.5789409
  energy:            151.3864744

- temperature:       316.0000000
  free_energy:       145.0649000
  entropy:            20.3271004
  heat_capacity:      51.2103864
  energy:            151.4882637

- temperature:       318.0000000
  free_energy:       145.0239211
  entropy:            20.6521851
  heat_capacity:      51.8417991
  energy:            151.5913159

- temperature:       320.0000000
  free_energy:       144.9822900
  entropy:            20.9791902
  heat_capacity:      52.4731060
  energy:            151.6956309

- temperature:       322.0000000
  free_energy:       144.9400030
  entropy:            21.3080907
  heat_capacity:      53.1042356
  energy:            151.8012082

- temperature:       324.0000000
  free_energy:       144.8970564
  entropy:            21.6388619
  heat_capacity:      53.7351176
  energy:            151.9080476

- temperature:       326.0000000
  free_energy:       144.8534463
  entropy:            21.9714790
  heat_capacity:      54.3656829
  energy:            152.0161485

- temperature:       328.0000000
  free_energy:       144.8091693
  entropy:            22.3059172
  heat_capacity:      54.9958640
  energy:            152.1255101

- temperature:       330.0000000
  free_energy:       144.7642215
  entropy:            22.6421520
  heat_capacity:      55.6255942
  energy:            152.2361316

- temperature:       332.0000000
  free_energy:       144.7185995
  entropy:            22.9801587
  heat_capacity:      56.2548086
  energy:            152.3480121

- temperature:       334.0000000
  free_energy:       144.6722997
  entropy:            23.3199126
  heat_capacity:      56.8834432
  energy:            152.4611505

- temperature:       336.0000000
  free_energy:       144.6253187
  entropy:            23.6613893
  heat_capacity:      57.5114355
  energy:            152.5755455

- temperature:       338.0000000
  free_energy:       144.5776530
  entropy:            24.0045644
  heat_capacity:      58.1387243
  energy:            152.6911958

- temperature:       340.0000000
  free_energy:       144.5292993
  entropy:            24.3494135
  heat_capacity:      58.7652496
  energy:            152.8080999

- temperature:       342.0000000
  free_energy:       144.4802542
  entropy:            24.6959122
  heat_capacity:      59.3909527
  energy:            152.9262562

- temperature:       344.0000000
  free_energy:       144.4305146
  entropy:            25.0440364
  heat_capacity:      60.0157762
  energy:            153.0456631

- temperature:       346.0000000
  free_energy:       144.3800770
  entropy:            25.3937621
  heat_capacity:      60.6396640
  energy:            153.1663187

- temperature:       348.0000000
  free_energy:       144.3289385
  entropy:            25.7450650
  heat_capacity:      61.2625611
  energy:            153.2882211

- temperature:       350.0000000
  free_energy:       144.2770957
  entropy:            26.0979215
  heat_capacity:      61.8844140
  energy:            153.4113682

- temperature:       352.0000000
  free_energy:       144.2245458
  entropy:            26.4523076
  heat_capacity:      62.5051703
  energy:            153.5357580

- temperature:       354.0000000
  free_energy:       144.1712855
  entropy:            26.8081996
  heat_capacity:      63.1247788
  energy:            153.6613882

- temperature:       356.0000000
  free_energy:       144.1173120
  entropy:            27.1655741