<?xml version="1.0" encoding="ISO-8859-1"?>
<modeling>
 <generator>
  <i name="program" type="string">vasp </i>
  <i name="version" type="string">5.4.4.18Apr17-6-g9f103f2a35  </i>
  <i name="subversion" type="string">(build Mar 12 2022 03:36:41) complex            parallel </i>
  <i name="platform" type="string">IFC19.0.3.199_CrayMPICH7.7.19 </i>
  <i name="date" type="string">2022 12 01 </i>
  <i name="time" type="string">05:25:33 </i>
 </generator>
 <incar>
  <i type="string" name="PREC">accurate</i>
  <i type="int" name="IALGO">    38</i>
  <i type="logical" name="ADDGRID"> T  </i>
  <i type="int" name="IBRION">     8</i>
  <i name="EDIFF">      0.00000001</i>
  <i type="logical" name="LREAL"> F  </i>
  <i type="int" name="ISMEAR">     0</i>
  <i name="SIGMA">      0.06000000</i>
  <i type="logical" name="LWAVE"> F  </i>
  <i type="logical" name="LCHARG"> F  </i>
  <v type="int" name="KPOINT_BSE">    -1     0     0     0</v>
 </incar>
 <structure name="primitive_cell" >
  <crystal>
   <varray name="basis" >
    <v>       1.75075300       1.75075300      -0.00000000 </v>
    <v>       1.75075300       0.00000000      -1.75075300 </v>
    <v>       0.00000000       1.75075300      -1.75075300 </v>
   </varray>
   <i name="volume">     10.73259233 </i>
   <varray name="rec_basis" >
    <v>       0.28559140       0.28559140       0.28559140 </v>
    <v>       0.28559140      -0.28559140      -0.28559140 </v>
    <v>      -0.28559140       0.28559140      -0.28559140 </v>
   </varray>
  </crystal>
  <varray name="positions" >
   <v>       0.25000000       0.25000000       0.25000000 </v>
   <v>      -0.50000000      -0.50000000      -0.50000000 </v>
  </varray>
 </structure>
 <varray name="primitive_index" >
  <v type="int" >        1 </v>
  <v type="int" >       11 </v>
 </varray>
 <kpoints>
  <generation param="Gamma">
   <v type="int" name="divisions">       8        8        8 </v>
   <v name="usershift">      0.00000000       0.00000000       0.00000000 </v>
   <v name="genvec1">      0.12500000       0.00000000       0.00000000 </v>
   <v name="genvec2">      0.00000000       0.12500000       0.00000000 </v>
   <v name="genvec3">      0.00000000       0.00000000       0.12500000 </v>
   <v name="shift">      0.00000000       0.00000000       0.00000000 </v>
  </generation>
  <varray name="kpointlist" >
   <v>       0.00000000       0.00000000       0.00000000 </v>
   <v>       0.12500000       0.00000000       0.00000000 </v>
   <v>       0.25000000       0.00000000       0.00000000 </v>
   <v>       0.37500000       0.00000000       0.00000000 </v>
   <v>       0.50000000       0.00000000       0.00000000 </v>
   <v>       0.12500000       0.12500000       0.00000000 </v>
   <v>       0.25000000       0.12500000       0.00000000 </v>
   <v>       0.37500000       0.12500000       0.00000000 </v>
   <v>       0.50000000       0.12500000       0.00000000 </v>
   <v>       0.25000000       0.25000000       0.00000000 </v>
   <v>       0.37500000       0.25000000       0.00000000 </v>
   <v>       0.50000000       0.25000000       0.00000000 </v>
   <v>       0.37500000       0.37500000       0.00000000 </v>
   <v>       0.50000000       0.37500000       0.00000000 </v>
   <v>       0.50000000       0.50000000       0.00000000 </v>
   <v>       0.12500000       0.12500000       0.12500000 </v>
   <v>       0.25000000       0.12500000       0.12500000 </v>
   <v>       0.37500000       0.12500000       0.12500000 </v>
   <v>       0.50000000       0.12500000       0.12500000 </v>
   <v>       0.25000000       0.25000000       0.12500000 </v>
   <v>       0.37500000       0.25000000       0.12500000 </v>
   <v>       0.50000000       0.25000000       0.12500000 </v>
   <v>       0.37500000       0.37500000       0.12500000 </v>
   <v>       0.50000000       0.37500000       0.12500000 </v>
   <v>       0.50000000       0.50000000       0.12500000 </v>
   <v>       0.25000000       0.25000000       0.25000000 </v>
   <v>       0.37500000       0.25000000       0.25000000 </v>
   <v>       0.50000000       0.25000000       0.25000000 </v>
   <v>       0.37500000       0.37500000       0.25000000 </v>
   <v>       0.50000000       0.37500000       0.25000000 </v>
   <v>       0.50000000       0.50000000       0.25000000 </v>
   <v>       0.37500000       0.37500000       0.37500000 </v>
   <v>       0.50000000       0.37500000       0.37500000 </v>
   <v>       0.50000000       0.50000000       0.37500000 </v>
   <v>       0.50000000       0.50000000       0.50000000 </v>
  </varray>
  <varray name="weights" >
   <v>       0.00195312 </v>
   <v>       0.01171875 </v>
   <v>       0.01171875 </v>
   <v>       0.01171875 </v>
   <v>       0.00585938 </v>
   <v>       0.02343750 </v>
   <v>       0.04687500 </v>
   <v>       0.04687500 </v>
   <v>       0.02343750 </v>
   <v>       0.02343750 </v>
   <v>       0.04687500 </v>
   <v>       0.02343750 </v>
   <v>       0.02343750 </v>
   <v>       0.02343750 </v>
   <v>       0.00585938 </v>
   <v>       0.01562500 </v>
   <v>       0.04687500 </v>
   <v>       0.04687500 </v>
   <v>       0.02343750 </v>
   <v>       0.04687500 </v>
   <v>       0.09375000 </v>
   <v>       0.04687500 </v>
   <v>       0.04687500 </v>
   <v>       0.04687500 </v>
   <v>       0.01171875 </v>
   <v>       0.01562500 </v>
   <v>       0.04687500 </v>
   <v>       0.02343750 </v>
   <v>       0.04687500 </v>
   <v>       0.04687500 </v>
   <v>       0.01171875 </v>
   <v>       0.01562500 </v>
   <v>       0.02343750 </v>
   <v>       0.01171875 </v>
   <v>       0.00195312 </v>
  </varray>
 </kpoints>
 <parameters>
  <separator name="general" >
   <i type="string" name="SYSTEM">unknown system</i>
   <i type="logical" name="LCOMPAT"> F  </i>
  </separator>
  <separator name="electronic" >
   <i type="string" name="PREC">accura</i>
   <i name="ENMAX">    400.00000000</i>
   <i name="ENAUG">    644.87300000</i>
   <i name="EDIFF">      0.00000001</i>
   <i type="int" name="IALGO">    38</i>
   <i type="int" name="IWAVPR">    11</i>
   <i type="int" name="NBANDS">   192</i>
   <i name="NELECT">    256.00000000</i>
   <i type="int" name="TURBO">     0</i>
   <i type="int" name="IRESTART">     0</i>
   <i type="int" name="NREBOOT">     0</i>
   <i type="int" name="NMIN">     0</i>
   <i name="EREF">      0.00000000</i>
   <separator name="electronic smearing" >
    <i type="int" name="ISMEAR">     0</i>
    <i name="SIGMA">      0.06000000</i>
    <i name="KSPACING">      0.50000000</i>
    <i type="logical" name="KGAMMA"> T  </i>
   </separator>
   <separator name="electronic projectors" >
    <i type="logical" name="LREAL"> F  </i>
    <v name="ROPT">      0.00000000</v>
    <i type="int" name="LMAXPAW">  -100</i>
    <i type="int" name="LMAXMIX">     2</i>
    <i type="logical" name="NLSPLINE"> F  </i>
   </separator>
   <separator name="electronic startup" >
    <i type="int" name="ISTART">     0</i>
    <i type="int" name="ICHARG">     2</i>
    <i type="int" name="INIWAV">     1</i>
   </separator>
   <separator name="electronic spin" >
    <i type="int" name="ISPIN">     1</i>
    <i type="logical" name="LNONCOLLINEAR"> F  </i>
    <v name="MAGMOM">      1.00000000      1.00000000      1.00000000      1.00000000      1.00000000      1.00000000      1.00000000      1.00000000      1.00000000      1.00000000      1.00000000      1.00000000      1.00000000      1.00000000      1.00000000      1.00000000      1.00000000      1.00000000      1.00000000      1.00000000
      1.00000000      1.00000000      1.00000000      1.00000000      1.00000000      1.00000000      1.00000000      1.00000000      1.00000000      1.00000000      1.00000000      1.00000000      1.00000000      1.00000000      1.00000000      1.00000000      1.00000000      1.00000000      1.00000000      1.00000000
      1.00000000      1.00000000      1.00000000      1.00000000      1.00000000      1.00000000      1.00000000      1.00000000      1.00000000      1.00000000      1.00000000      1.00000000      1.00000000      1.00000000      1.00000000      1.00000000      1.00000000      1.00000000      1.00000000      1.00000000
      1.00000000      1.00000000      1.00000000      1.00000000</v>
    <i name="NUPDOWN">     -1.00000000</i>
    <i type="logical" name="LSORBIT"> F  </i>
    <v name="SAXIS">      0.00000000      0.00000000      1.00000000</v>
    <i type="logical" name="LSPIRAL"> F  </i>
    <v name="QSPIRAL">      0.00000000      0.00000000      0.00000000</v>
    <i type="logical" name="LZEROZ"> F  </i>
   </separator>
   <separator name="electronic exchange-correlation" >
    <i type="logical" name="LASPH"> F  </i>
    <i type="logical" name="LMETAGGA"> F  </i>
   </separator>
   <separator name="electronic convergence" >
    <i type="int" name="NELM">    60</i>
    <i type="int" name="NELMDL">    -5</i>
    <i type="int" name="NELMIN">     2</i>
    <i name="ENINI">    400.00000000</i>
    <separator name="electronic convergence detail" >
     <i type="logical" name="LDIAG"> T  </i>
     <i type="logical" name="LSUBROT"> F  </i>
     <i name="WEIMIN">      0.00100000</i>
     <i name="EBREAK">      0.00000000</i>
     <i name="DEPER">      0.30000000</i>
     <i type="int" name="NRMM">     4</i>
     <i name="TIME">      0.40000000</i>
    </separator>
   </separator>
   <separator name="electronic mixer" >
    <i name="AMIX">      0.40000000</i>
    <i name="BMIX">      1.00000000</i>
    <i name="AMIN">      0.10000000</i>
    <i name="AMIX_MAG">      1.60000000</i>
    <i name="BMIX_MAG">      1.00000000</i>
    <separator name="electronic mixer details" >
     <i type="int" name="IMIX">     4</i>
     <i type="logical" name="MIXFIRST"> F  </i>
     <i type="int" name="MAXMIX">   -45</i>
     <i name="WC">    100.00000000</i>
     <i type="int" name="INIMIX">     1</i>
     <i type="int" name="MIXPRE">     1</i>
     <i type="int" name="MREMOVE">     5</i>
    </separator>
   </separator>
   <separator name="electronic dipolcorrection" >
    <i type="logical" name="LDIPOL"> F  </i>
    <i type="logical" name="LMONO"> F  </i>
    <i type="int" name="IDIPOL">     0</i>
    <i name="EPSILON">      1.00000000</i>
    <v name="DIPOL">   -100.00000000   -100.00000000   -100.00000000</v>
    <i name="EFIELD">      0.00000000</i>
   </separator>
  </separator>
  <separator name="grids" >
   <i type="int" name="NGX">    48</i>
   <i type="int" name="NGY">    48</i>
   <i type="int" name="NGZ">    48</i>
   <i type="int" name="NGXF">    96</i>
   <i type="int" name="NGYF">    96</i>
   <i type="int" name="NGZF">    96</i>
   <i type="logical" name="ADDGRID"> T  </i>
  </separator>
  <separator name="ionic" >
   <i type="int" name="NSW">     1</i>
   <i type="int" name="IBRION">     8</i>
   <i type="int" name="MDALGO">     0</i>
   <i type="int" name="ISIF">     2</i>
   <i name="PSTRESS">      0.00000000</i>
   <i name="EDIFFG">      0.00000010</i>
   <i type="int" name="NFREE">     0</i>
   <i name="POTIM">      0.50000000</i>
   <i name="SMASS">     -3.00000000</i>
   <i name="SCALEE">      1.00000000</i>
  </separator>
  <separator name="ionic md" >
   <i name="TEBEG">      0.00010000</i>
   <i name="TEEND">      0.00010000</i>
   <i type="int" name="NBLOCK">     1</i>
   <i type="int" name="KBLOCK">     1</i>
   <i type="int" name="NPACO">   256</i>
   <i name="APACO">     16.00000000</i>
  </separator>
  <separator name="symmetry" >
   <i type="int" name="ISYM">     2</i>
   <i name="SYMPREC">      0.00001000</i>
  </separator>
  <separator name="dos" >
   <i type="int" name="LORBIT">     0</i>
   <v name="RWIGS">     -1.00000000</v>
   <i type="int" name="NEDOS">   301</i>
   <i name="EMIN">     10.00000000</i>
   <i name="EMAX">    -10.00000000</i>
   <i name="EFERMI">      0.00000000</i>
  </separator>
  <separator name="writing" >
   <i type="int" name="NWRITE">     2</i>
   <i type="logical" name="LWAVE"> F  </i>
   <i type="logical" name="LDOWNSAMPLE"> F  </i>
   <i type="logical" name="LCHARG"> F  </i>
   <i type="logical" name="LPARD"> F  </i>
   <i type="logical" name="LVTOT"> F  </i>
   <i type="logical" name="LVHAR"> F  </i>
   <i type="logical" name="LELF"> F  </i>
   <i type="logical" name="LOPTICS"> F  </i>
   <v name="STM">      0.00000000      0.00000000      0.00000000      0.00000000      0.00000000      0.00000000      0.00000000</v>
  </separator>
  <separator name="performance" >
   <i type="int" name="NPAR">    32</i>
   <i type="int" name="NSIM">     4</i>
   <i type="int" name="NBLK">    -1</i>
   <i type="logical" name="LPLANE"> T  </i>
   <i type="logical" name="LSCALAPACK"> T  </i>
   <i type="logical" name="LSCAAWARE"> F  </i>
   <i type="logical" name="LSCALU"> F  </i>
   <i type="logical" name="LASYNC"> F  </i>
   <i type="logical" name="LORBITALREAL"> F  </i>
  </separator>
  <separator name="miscellaneous" >
   <i type="int" name="IDIOT">     3</i>
   <i type="int" name="ISPECIAL">     0</i>
   <i type="logical" name="LMUSIC"> F  </i>
   <v name="POMASS">     12.01100000</v>
   <v name="DARWINR">      0.00000000</v>
   <v name="DARWINV">      1.00000000</v>
   <i type="logical" name="LCORR"> T  </i>
  </separator>
  <i type="logical" name="GGA_COMPAT"> T  </i>
  <i type="logical" name="LBERRY"> F  </i>
  <i type="int" name="ICORELEVEL">     0</i>
  <i type="logical" name="LDAU"> F  </i>
  <i type="int" name="I_CONSTRAINED_M">     0</i>
  <separator name="electronic exchange-correlation" >
   <i type="string" name="GGA">--</i>
   <i type="int" name="VOSKOWN">     0</i>
   <i type="logical" name="LHFCALC"> F  </i>
   <i type="string" name="PRECFOCK"></i>
   <i type="logical" name="LSYMGRAD"> F  </i>
   <i type="logical" name="LHFONE"> F  </i>
   <i type="logical" name="LRHFCALC"> F  </i>
   <i type="logical" name="LTHOMAS"> F  </i>
   <i type="logical" name="LMODELHF"> F  </i>
   <i name="ENCUT4O">     -1.00000000</i>
   <i type="int" name="EXXOEP">     0</i>
   <i type="int" name="FOURORBIT">     0</i>
   <i name="AEXX">      0.00000000</i>
   <i name="HFALPHA">      0.00000000</i>
   <i name="MCALPHA">      0.00000000</i>
   <i name="ALDAX">      1.00000000</i>
   <i name="AGGAX">      1.00000000</i>
   <i name="ALDAC">      1.00000000</i>
   <i name="AGGAC">      1.00000000</i>
   <i type="int" name="NKREDX">     1</i>
   <i type="int" name="NKREDY">     1</i>
   <i type="int" name="NKREDZ">     1</i>
   <i type="logical" name="SHIFTRED"> F  </i>
   <i type="logical" name="ODDONLY"> F  </i>
   <i type="logical" name="EVENONLY"> F  </i>
   <i type="int" name="LMAXFOCK">     0</i>
   <i type="int" name="NMAXFOCKAE">     0</i>
   <i type="logical" name="LFOCKAEDFT"> F  </i>
   <i name="HFSCREEN">      0.00000000</i>
   <i name="HFSCREENC">      0.00000000</i>
   <i type="int" name="NBANDSGWLOW">     0</i>
  </separator>
  <separator name="vdW DFT" >
   <i type="logical" name="LUSE_VDW"> F  </i>
   <i name="Zab_VDW">     -0.84910000</i>
   <i name="PARAM1">      0.12340000</i>
   <i name="PARAM2">      1.00000000</i>
   <i name="PARAM3">      0.00000000</i>
  </separator>
  <separator name="model GW" >
   <i type="int" name="MODEL_GW">     0</i>
   <i name="MODEL_EPS0">      3.21977770</i>
   <i name="MODEL_ALPHA">      1.00000000</i>
  </separator>
  <separator name="linear response parameters" >
   <i type="logical" name="LEPSILON"> F  </i>
   <i type="logical" name="LRPA"> F  </i>
   <i type="logical" name="LNABLA"> F  </i>
   <i type="logical" name="LVEL"> F  </i>
   <i type="int" name="KINTER">     0</i>
   <i name="CSHIFT">      0.10000000</i>
   <i name="OMEGAMAX">     -1.00000000</i>
   <i name="DEG_THRESHOLD">      0.00200000</i>
   <i name="RTIME">     -0.10000000</i>
   <i name="WPLASMAI">      0.00000000</i>
   <v name="DFIELD">      0.00000000      0.00000000      0.00000000</v>
   <v name="WPLASMA">      0.00000000      0.00000000      0.00000000      0.00000000      0.00000000      0.00000000      0.00000000      0.00000000      0.00000000</v>
  </separator>
  <separator name="orbital magnetization" >
   <i type="logical" name="NUCIND"> F  </i>
   <v name="MAGPOS">      0.00000000      0.00000000      0.00000000</v>
   <i type="logical" name="LNICSALL"> T  </i>
   <i type="logical" name="ORBITALMAG"> F  </i>
   <i type="logical" name="LMAGBLOCH"> F  </i>
   <i type="logical" name="LCHIMAG"> F  </i>
   <i type="logical" name="LGAUGE"> T  </i>
   <i type="int" name="MAGATOM">     0</i>
   <v name="MAGDIPOL">      0.00000000      0.00000000      0.00000000</v>
   <v name="AVECCONST">      0.00000000      0.00000000      0.00000000</v>
  </separator>
  <separator name="response functions" >
   <i type="logical" name="LADDER"> F  </i>
   <i type="logical" name="LRPAFORCE"> F  </i>
   <i type="logical" name="LFXC"> F  </i>
   <i type="logical" name="LHARTREE"> T  </i>
   <i type="int" name="IBSE">     0</i>
   <v type="int" name="KPOINT">    -1     0     0     0</v>
   <i type="logical" name="LTCTE"> F  </i>
   <i type="logical" name="LTETE"> F  </i>
   <i type="logical" name="LTRIPLET"> F  </i>
   <i type="logical" name="LFXCEPS"> F  </i>
   <i type="logical" name="LFXHEG"> F  </i>
   <i type="int" name="NATURALO">     2</i>
   <i type="logical" name="L2ORDER"> F  </i>
   <i type="logical" name="LMP2LT"> F  </i>
   <i type="logical" name="LUSEW"> F  </i>
   <i name="ENCUTGW">     -2.00000000</i>
   <i name="ENCUTGWSOFT">     -2.00000000</i>
   <i name="ENCUTLF">     -1.00000000</i>
   <i type="int" name="LMAXMP2">    -1</i>
   <i name="SCISSOR">      0.00000000</i>
   <i type="int" name="NOMEGA">     0</i>
   <i type="int" name="NOMEGAR">     0</i>
   <i type="int" name="NBANDSGW">    -1</i>
   <i type="int" name="NBANDSO">    -1</i>
   <i type="int" name="NBANDSV">    -1</i>
   <i type="int" name="NELM">     1</i>
   <i type="int" name="NELMHF">     1</i>
   <i type="int" name="DIM">     3</i>
   <i type="int" name="ANTIRES">     0</i>
   <i name="OMEGAMAX">    -30.00000000</i>
   <i name="OMEGAMIN">    -30.00000000</i>
   <i name="OMEGATL">   -200.00000000</i>
   <i type="int" name="OMEGAGRID">   140</i>
   <i name="CSHIFT">     -0.10000000</i>
   <i type="logical" name="SELFENERGY"> F  </i>
   <i type="logical" name="LSPECTRAL"> F  </i>
   <i type="logical" name="LSPECTRALGW"> F  </i>
   <i type="logical" name="LSINGLES"> F  </i>
   <i type="logical" name="LFERMIGW"> F  </i>
   <i type="logical" name="ODDONLYGW"> F  </i>
   <i type="logical" name="EVENONLYGW"> F  </i>
   <i type="int" name="NKREDLFX">     1</i>
   <i type="int" name="NKREDLFY">     1</i>
   <i type="int" name="NKREDLFZ">     1</i>
   <i type="int" name="MAXMEM">  2800</i>
   <i type="int" name="TELESCOPE">     0</i>
   <i type="int" name="TAUPAR">     1</i>
   <i type="int" name="OMEGAPAR">    -1</i>
   <i name="LAMBDA">      1.00000000</i>
  </separator>
  <separator name="External order field" >
   <i name="OFIELD_KAPPA">      0.00000000</i>
   <v name="OFIELD_K">      0.00000000      0.00000000      0.00000000</v>
   <i name="OFIELD_Q6_NEAR">      0.00000000</i>
   <i name="OFIELD_Q6_FAR">      0.00000000</i>
   <i name="OFIELD_A">      0.00000000</i>
  </separator>
 </parameters>
 <atominfo>
  <atoms>      64 </atoms>
  <types>       1 </types>
  <array name="atoms" >
   <dimension dim="1">ion</dimension>
   <field type="string">element</field>
   <field type="int">atomtype</field>
   <set>
    <rc><c>C </c><c>   1</c></rc>
    <rc><c>C </c><c>   1</c></rc>
    <rc><c>C </c><c>   1</c></rc>
    <rc><c>C </c><c>   1</c></rc>
    <rc><c>C </c><c>   1</c></rc>
    <rc><c>C </c><c>   1</c></rc>
    <rc><c>C </c><c>   1</c></rc>
    <rc><c>C </c><c>   1</c></rc>
    <rc><c>C </c><c>   1</c></rc>
    <rc><c>C </c><c>   1</c></rc>
    <rc><c>C </c><c>   1</c></rc>
    <rc><c>C </c><c>   1</c></rc>
    <rc><c>C </c><c>   1</c></rc>
    <rc><c>C </c><c>   1</c></rc>
    <rc><c>C </c><c>   1</c></rc>
    <rc><c>C </c><c>   1</c></rc>
    <rc><c>C </c><c>   1</c></rc>
    <rc><c>C </c><c>   1</c></rc>
    <rc><c>C </c><c>   1</c></rc>
    <rc><c>C </c><c>   1</c></rc>
    <rc><c>C </c><c>   1</c></rc>
    <rc><c>C </c><c>   1</c></rc>
    <rc><c>C </c><c>   1</c></rc>
    <rc><c>C </c><c>   1</c></rc>
    <rc><c>C </c><c>   1</c></rc>
    <rc><c>C </c><c>   1</c></rc>
    <rc><c>C </c><c>   1</c></rc>
    <rc><c>C </c><c>   1</c></rc>
    <rc><c>C </c><c>   1</c></rc>
    <rc><c>C </c><c>   1</c></rc>
    <rc><c>C </c><c>   1</c></rc>
    <rc><c>C </c><c>   1</c></rc>
    <rc><c>C </c><c>   1</c></rc>
    <rc><c>C </c><c>   1</c></rc>
    <rc><c>C </c><c>   1</c></rc>
    <rc><c>C </c><c>   1</c></rc>
    <rc><c>C </c><c>   1</c></rc>
    <rc><c>C </c><c>   1</c></rc>
    <rc><c>C </c><c>   1</c></rc>
    <rc><c>C </c><c>   1</c></rc>
    <rc><c>C </c><c>   1</c></rc>
    <rc><c>C </c><c>   1</c></rc>
    <rc><c>C </c><c>   1</c></rc>
    <rc><c>C </c><c>   1</c></rc>
    <rc><c>C </c><c>   1</c></rc>
    <rc><c>C </c><c>   1</c></rc>
    <rc><c>C </c><c>   1</c></rc>
    <rc><c>C </c><c>   1</c></rc>
    <rc><c>C </c><c>   1</c></rc>
    <rc><c>C </c><c>   1</c></rc>
    <rc><c>C </c><c>   1</c></rc>
    <rc><c>C </c><c>   1</c></rc>
    <rc><c>C </c><c>   1</c></rc>
    <rc><c>C </c><c>   1</c></rc>
    <rc><c>C </c><c>   1</c></rc>
    <rc><c>C </c><c>   1</c></rc>
    <rc><c>C </c><c>   1</c></rc>
    <rc><c>C </c><c>   1</c></rc>
    <rc><c>C </c><c>   1</c></rc>
    <rc><c>C </c><c>   1</c></rc>
    <rc><c>C </c><c>   1</c></rc>
    <rc><c>C </c><c>   1</c></rc>
    <rc><c>C </c><c>   1</c></rc>
    <rc><c>C </c><c>   1</c></rc>
   </set>
  </array>
  <array name="atomtypes" >
   <dimension dim="1">type</dimension>
   <field type="int">atomspertype</field>
   <field type="string">element</field>
   <field>mass</field>
   <field>valence</field>
   <field type="string">pseudopotential</field>
   <set>
    <rc><c>  64</c><c>C </c><c>     12.01100000</c><c>      4.00000000</c><c> PAW_PBE C 08Apr2002                    </c></rc>
   </set>
  </array>
 </atominfo>
 <structure name="initialpos" >
  <crystal>
   <varray name="basis" >
    <v>       7.00301200       0.00000000       0.00000000 </v>
    <v>       0.00000000       7.00301200       0.00000000 </v>
    <v>       0.00000000       0.00000000       7.00301200 </v>
   </varray>
   <i name="volume">    343.44295454 </i>
   <varray name="rec_basis" >
    <v>       0.14279570       0.00000000       0.00000000 </v>
    <v>       0.00000000       0.14279570       0.00000000 </v>
    <v>       0.00000000       0.00000000       0.14279570 </v>
   </varray>
  </crystal>
  <varray name="positions" >
   <v>       0.12500000       0.37500000       0.12500000 </v>
   <v>       0.62500000       0.37500000       0.12500000 </v>
   <v>       0.12500000       0.87500000       0.12500000 </v>
   <v>       0.62500000       0.87500000       0.12500000 </v>
   <v>       0.12500000       0.37500000       0.62500000 </v>
   <v>       0.62500000       0.37500000       0.62500000 </v>
   <v>       0.12500000       0.87500000       0.62500000 </v>
   <v>       0.62500000       0.87500000       0.62500000 </v>
   <v>       0.00000000       0.00000000       0.25000000 </v>
   <v>       0.50000000       0.00000000       0.25000000 </v>
   <v>       0.00000000       0.50000000       0.25000000 </v>
   <v>       0.50000000       0.50000000       0.25000000 </v>
   <v>       0.00000000       0.00000000       0.75000000 </v>
   <v>       0.50000000       0.00000000       0.75000000 </v>
   <v>       0.00000000       0.50000000       0.75000000 </v>
   <v>       0.50000000       0.50000000       0.75000000 </v>
   <v>       0.12500000       0.12500000       0.37500000 </v>
   <v>       0.62500000       0.12500000       0.37500000 </v>
   <v>       0.12500000       0.62500000       0.37500000 </v>
   <v>       0.62500000       0.62500000       0.37500000 </v>
   <v>       0.12500000       0.12500000       0.87500000 </v>
   <v>       0.62500000       0.12500000       0.87500000 </v>
   <v>       0.12500000       0.62500000       0.87500000 </v>
   <v>       0.62500000       0.62500000       0.87500000 </v>
   <v>       0.00000000       0.25000000       0.00000000 </v>
   <v>       0.50000000       0.25000000       0.00000000 </v>
   <v>       0.00000000       0.75000000       0.00000000 </v>
   <v>       0.50000000       0.75000000       0.00000000 </v>
   <v>       0.00000000       0.25000000       0.50000000 </v>
   <v>       0.50000000       0.25000000       0.50000000 </v>
   <v>       0.00000000       0.75000000       0.50000000 </v>
   <v>       0.50000000       0.75000000       0.50000000 </v>
   <v>       0.37500000       0.37500000       0.37500000 </v>
   <v>       0.87500000       0.37500000       0.37500000 </v>
   <v>       0.37500000       0.87500000       0.37500000 </v>
   <v>       0.87500000       0.87500000       0.37500000 </v>
   <v>       0.37500000       0.37500000       0.87500000 </v>
   <v>       0.87500000       0.37500000       0.87500000 </v>
   <v>       0.37500000       0.87500000       0.87500000 </v>
   <v>       0.87500000       0.87500000       0.87500000 </v>
   <v>       0.25000000       0.00000000       0.00000000 </v>
   <v>       0.75000000       0.00000000       0.00000000 </v>
   <v>       0.25000000       0.50000000       0.00000000 </v>
   <v>       0.75000000       0.50000000       0.00000000 </v>
   <v>       0.25000000       0.00000000       0.50000000 </v>
   <v>       0.75000000       0.00000000       0.50000000 </v>
   <v>       0.25000000       0.50000000       0.50000000 </v>
   <v>       0.75000000       0.50000000       0.50000000 </v>
   <v>       0.37500000       0.12500000       0.12500000 </v>
   <v>       0.87500000       0.12500000       0.12500000 </v>
   <v>       0.37500000       0.62500000       0.12500000 </v>
   <v>       0.87500000       0.62500000       0.12500000 </v>
   <v>       0.37500000       0.12500000       0.62500000 </v>
   <v>       0.87500000       0.12500000       0.62500000 </v>
   <v>       0.37500000       0.62500000       0.62500000 </v>
   <v>       0.87500000       0.62500000       0.62500000 </v>
   <v>       0.25000000       0.25000000       0.25000000 </v>
   <v>       0.75000000       0.25000000       0.25000000 </v>
   <v>       0.25000000       0.75000000       0.25000000 </v>
   <v>       0.75000000       0.75000000       0.25000000 </v>
   <v>       0.25000000       0.25000000       0.75000000 </v>
   <v>       0.75000000       0.25000000       0.75000000 </v>
   <v>       0.25000000       0.75000000       0.75000000 </v>
   <v>       0.75000000       0.75000000       0.75000000 </v>
  </varray>
 </structure>
 <calculation>
  <scstep>
   <time name="dav">   22.80   22.82</time>
   <time name="total">   22.92   23.01</time>
   <energy>
    <i name="alphaZ">    971.75600003 </i>
    <i name="ewald"> -11342.32089811 </i>
    <i name="hartreedc">   -525.47203978 </i>
    <i name="XCdc">    926.56400821 </i>
    <i name="pawpsdc">   2421.21235816 </i>
    <i name="pawaedc">  -2494.84305711 </i>
    <i name="eentropy">     -0.01344107 </i>
    <i name="bandstr">   1144.58886472 </i>
    <i name="atom">   9416.14232778 </i>
    <i name="e_fr_energy">    517.61412282 </i>
    <i name="e_wo_entrp">    517.62756389 </i>
    <i name="e_0_energy">    517.62084336 </i>
   </energy>
  </scstep>
  <scstep>
   <time name="dav">   28.53   28.54</time>
   <time name="total">   28.54   28.54</time>
   <energy>
    <i name="e_fr_energy">   -563.95542363 </i>
    <i name="e_wo_entrp">   -563.95542363 </i>
    <i name="e_0_energy">   -563.95542363 </i>
   </energy>
  </scstep>
  <scstep>
   <time name="dav">   29.10   29.10</time>
   <time name="total">   29.10   29.11</time>
   <energy>
    <i name="e_fr_energy">   -603.63751122 </i>
    <i name="e_wo_entrp">   -603.63751122 </i>
    <i name="e_0_energy">   -603.63751122 </i>
   </energy>
  </scstep>
  <scstep>
   <time name="dav">   28.53   28.54</time>
   <time name="total">   28.54   28.54</time>
   <energy>
    <i name="e_fr_energy">   -604.02483030 </i>
    <i name="e_wo_entrp">   -604.02483030 </i>
    <i name="e_0_energy">   -604.02483030 </i>
   </energy>
  </scstep>
  <scstep>
   <time name="dav">   26.61   26.61</time>
   <time name="total">   27.34   27.35</time>
   <energy>
    <i name="e_fr_energy">   -604.03277458 </i>
    <i name="e_wo_entrp">   -604.03277458 </i>
    <i name="e_0_energy">   -604.03277458 </i>
   </energy>
  </scstep>
  <scstep>
   <time name="dav">   25.82   25.82</time>
   <time name="total">   26.66   26.67</time>
   <energy>
    <i name="e_fr_energy">   -586.11426429 </i>
    <i name="e_wo_entrp">   -586.11426429 </i>
    <i name="e_0_energy">   -586.11426429 </i>
   </energy>
  </scstep>
  <scstep>
   <time name="dav">   27.33   27.33</time>
   <time name="total">   28.17   28.18</time>
   <energy>
    <i name="e_fr_energy">   -580.07532946 </i>
    <i name="e_wo_entrp">   -580.07532946 </i>
    <i name="e_0_energy">   -580.07532946 </i>
   </energy>
  </scstep>
  <scstep>
   <time name="dav">   26.96   26.97</time>
   <time name="total">   27.81   27.81</time>
   <energy>
    <i name="e_fr_energy">   -580.14248255 </i>
    <i name="e_wo_entrp">   -580.14248255 </i>
    <i name="e_0_energy">   -580.14248255 </i>
   </energy>
  </scstep>
  <scstep>
   <time name="dav">   28.79   28.79</time>
   <time name="total">   29.63   29.64</time>
   <energy>
    <i name="e_fr_energy">   -580.14455092 </i>
    <i name="e_wo_entrp">   -580.14455092 </i>
    <i name="e_0_energy">   -580.14455092 </i>
   </energy>
  </scstep>
  <scstep>
   <time name="dav">   25.98   25.98</time>
   <time name="total">   26.82   26.82</time>
   <energy>
    <i name="e_fr_energy">   -580.14498085 </i>
    <i name="e_wo_entrp">   -580.14498085 </i>
    <i name="e_0_energy">   -580.14498085 </i>
   </energy>
  </scstep>
  <scstep>
   <time name="dav">   29.01   29.01</time>
   <time name="total">   29.85   29.86</time>
   <energy>
    <i name="e_fr_energy">   -580.14498711 </i>
    <i name="e_wo_entrp">   -580.14498711 </i>
    <i name="e_0_energy">   -580.14498711 </i>
   </energy>
  </scstep>
  <scstep>
   <time name="dav">   28.13   28.13</time>
   <time name="total">   28.97   28.97</time>
   <energy>
    <i name="e_fr_energy">   -580.14498689 </i>
    <i name="e_wo_entrp">   -580.14498689 </i>
    <i name="e_0_energy">   -580.14498689 </i>
   </energy>
  </scstep>
  <scstep>
   <time name="dav">   23.86   23.87</time>
   <time name="total">   24.71   24.72</time>
   <energy>
    <i name="e_fr_energy">   -580.14498692 </i>
    <i name="e_wo_entrp">   -580.14498692 </i>
    <i name="e_0_energy">   -580.14498692 </i>
   </energy>
  </scstep>
  <scstep>
   <time name="dav">   20.84   20.84</time>
   <time name="total">   21.68   21.68</time>
   <energy>
    <i name="e_fr_energy">   -580.14498695 </i>
    <i name="e_wo_entrp">   -580.14498695 </i>
    <i name="e_0_energy">   -580.14498695 </i>
   </energy>
  </scstep>
  <scstep>
   <time name="dav">   20.33   20.33</time>
   <time name="total">   20.44   20.44</time>
   <energy>
    <i name="alphaZ">    971.75600003 </i>
    <i name="ewald"> -11342.32089811 </i>
    <i name="hartreedc">   -819.27351191 </i>
    <i name="XCdc">    954.41038415 </i>
    <i name="pawpsdc">   4456.52879534 </i>
    <i name="pawaedc">  -4538.69153578 </i>
    <i name="eentropy">     -0.00000000 </i>
    <i name="bandstr">    321.30345155 </i>
    <i name="atom">   9416.14232778 </i>
    <i name="e_fr_energy">   -580.14498695 </i>
    <i name="e_wo_entrp">   -580.14498695 </i>
    <i name="e_0_energy">   -580.14498695 </i>
   </energy>
  </scstep>
  <structure>
   <crystal>
    <varray name="basis" >
     <v>       7.00301200       0.00000000       0.00000000 </v>
     <v>       0.00000000       7.00301200       0.00000000 </v>
     <v>       0.00000000       0.00000000       7.00301200 </v>
    </varray>
    <i name="volume">    343.44295454 </i>
    <varray name="rec_basis" >
     <v>       0.14279570       0.00000000       0.00000000 </v>
     <v>       0.00000000       0.14279570       0.00000000 </v>
     <v>       0.00000000       0.00000000       0.14279570 </v>
    </varray>
   </crystal>
   <varray name="positions" >
    <v>       0.12500000       0.37500000       0.12500000 </v>
    <v>       0.62500000       0.37500000       0.12500000 </v>
    <v>       0.12500000       0.87500000       0.12500000 </v>
    <v>       0.62500000       0.87500000       0.12500000 </v>
    <v>       0.12500000       0.37500000       0.62500000 </v>
    <v>       0.62500000       0.37500000       0.62500000 </v>
    <v>       0.12500000       0.87500000       0.62500000 </v>
    <v>       0.62500000       0.87500000       0.62500000 </v>
    <v>       0.00000000       0.00000000       0.25000000 </v>
    <v>       0.50000000       0.00000000       0.25000000 </v>
    <v>       0.00000000       0.50000000       0.25000000 </v>
    <v>       0.50000000       0.50000000       0.25000000 </v>
    <v>       0.00000000       0.00000000       0.75000000 </v>
    <v>       0.50000000       0.00000000       0.75000000 </v>
    <v>       0.00000000       0.50000000       0.75000000 </v>
    <v>       0.50000000       0.50000000       0.75000000 </v>
    <v>       0.12500000       0.12500000       0.37500000 </v>
    <v>       0.62500000       0.12500000       0.37500000 </v>
    <v>       0.12500000       0.62500000       0.37500000 </v>
    <v>       0.62500000       0.62500000       0.37500000 </v>
    <v>       0.12500000       0.12500000       0.87500000 </v>
    <v>       0.62500000       0.12500000       0.87500000 </v>
    <v>       0.12500000       0.62500000       0.87500000 </v>
    <v>       0.62500000       0.62500000       0.87500000 </v>
    <v>       0.00000000       0.25000000       0.00000000 </v>
    <v>       0.50000000       0.25000000       0.00000000 </v>
    <v>       0.00000000       0.75000000       0.00000000 </v>
    <v>       0.50000000       0.75000000       0.00000000 </v>
    <v>       0.00000000       0.25000000       0.50000000 </v>
    <v>       0.50000000       0.25000000       0.50000000 </v>
    <v>       0.00000000       0.75000000       0.50000000 </v>
    <v>       0.50000000       0.75000000       0.50000000 </v>
    <v>       0.37500000       0.37500000       0.37500000 </v>
    <v>       0.87500000       0.37500000       0.37500000 </v>
    <v>       0.37500000       0.87500000       0.37500000 </v>
    <v>       0.87500000       0.87500000       0.37500000 </v>
    <v>       0.37500000       0.37500000       0.87500000 </v>
    <v>       0.87500000       0.37500000       0.87500000 </v>
    <v>       0.37500000       0.87500000       0.87500000 </v>
    <v>       0.87500000       0.87500000       0.87500000 </v>
    <v>       0.25000000       0.00000000       0.00000000 </v>
    <v>       0.75000000       0.00000000       0.00000000 </v>
    <v>       0.25000000       0.50000000       0.00000000 </v>
    <v>       0.75000000       0.50000000       0.00000000 </v>
    <v>       0.25000000       0.00000000       0.50000000 </v>
    <v>       0.75000000       0.00000000       0.50000000 </v>
    <v>       0.25000000       0.50000000       0.50000000 </v>
    <v>       0.75000000       0.50000000       0.50000000 </v>
    <v>       0.37500000       0.12500000       0.12500000 </v>
    <v>       0.87500000       0.12500000       0.12500000 </v>
    <v>       0.37500000       0.62500000       0.12500000 </v>
    <v>       0.87500000       0.62500000       0.12500000 </v>
    <v>       0.37500000       0.12500000       0.62500000 </v>
    <v>       0.87500000       0.12500000       0.62500000 </v>
    <v>       0.37500000       0.62500000       0.62500000 </v>
    <v>       0.87500000       0.62500000       0.62500000 </v>
    <v>       0.25000000       0.25000000       0.25000000 </v>
    <v>       0.75000000       0.25000000       0.25000000 </v>
    <v>       0.25000000       0.75000000       0.25000000 </v>
    <v>       0.75000000       0.75000000       0.25000000 </v>
    <v>       0.25000000       0.25000000       0.75000000 </v>
    <v>       0.75000000       0.25000000       0.75000000 </v>
    <v>       0.25000000       0.75000000       0.75000000 </v>
    <v>       0.75000000       0.75000000       0.75000000 </v>
   </varray>
  </structure>
  <varray name="forces" >
   <v>       0.00000000      -0.00000000      -0.00000000 </v>
   <v>      -0.00000000       0.00000000       0.00000000 </v>
   <v>       0.00000000       0.00000000       0.00000000 </v>
   <v>       0.00000000      -0.00000000       0.00000000 </v>
   <v>       0.00000000       0.00000000       0.00000000 </v>
   <v>       0.00000000      -0.00000000      -0.00000000 </v>
   <v>       0.00000000      -0.00000000       0.00000000 </v>
   <v>       0.00000000       0.00000000      -0.00000000 </v>
   <v>       0.00000000      -0.00000000      -0.00000000 </v>
   <v>      -0.00000000       0.00000000      -0.00000000 </v>
   <v>      -0.00000000       0.00000000      -0.00000000 </v>
   <v>       0.00000000       0.00000000      -0.00000000 </v>
   <v>      -0.00000000       0.00000000       0.00000000 </v>
   <v>       0.00000000      -0.00000000       0.00000000 </v>
   <v>       0.00000000      -0.00000000      -0.00000000 </v>
   <v>      -0.00000000       0.00000000       0.00000000 </v>
   <v>      -0.00000000      -0.00000000       0.00000000 </v>
   <v>       0.00000000      -0.00000000      -0.00000000 </v>
   <v>       0.00000000      -0.00000000      -0.00000000 </v>
   <v>      -0.00000000       0.00000000       0.00000000 </v>
   <v>       0.00000000      -0.00000000      -0.00000000 </v>
   <v>      -0.00000000       0.00000000       0.00000000 </v>
   <v>      -0.00000000       0.00000000       0.00000000 </v>
   <v>       0.00000000      -0.00000000      -0.00000000 </v>
   <v>      -0.00000000       0.00000000       0.00000000 </v>
   <v>       0.00000000      -0.00000000      -0.00000000 </v>
   <v>       0.00000000       0.00000000      -0.00000000 </v>
   <v>      -0.00000000       0.00000000      -0.00000000 </v>
   <v>      -0.00000000      -0.00000000      -0.00000000 </v>
   <v>      -0.00000000       0.00000000      -0.00000000 </v>
   <v>      -0.00000000       0.00000000      -0.00000000 </v>
   <v>      -0.00000000       0.00000000      -0.00000000 </v>
   <v>      -0.00000000       0.00000000       0.00000000 </v>
   <v>       0.00000000      -0.00000000      -0.00000000 </v>
   <v>       0.00000000      -0.00000000       0.00000000 </v>
   <v>      -0.00000000       0.00000000       0.00000000 </v>
   <v>       0.00000000      -0.00000000      -0.00000000 </v>
   <v>      -0.00000000       0.00000000       0.00000000 </v>
   <v>      -0.00000000       0.00000000       0.00000000 </v>
   <v>       0.00000000      -0.00000000      -0.00000000 </v>
   <v>       0.00000000      -0.00000000       0.00000000 </v>
   <v>      -0.00000000       0.00000000       0.00000000 </v>
   <v>      -0.00000000       0.00000000       0.00000000 </v>
   <v>       0.00000000      -0.00000000      -0.00000000 </v>
   <v>      -0.00000000       0.00000000       0.00000000 </v>
   <v>      -0.00000000      -0.00000000      -0.00000000 </v>
   <v>      -0.00000000      -0.00000000      -0.00000000 </v>
   <v>      -0.00000000       0.00000000      -0.00000000 </v>
   <v>       0.00000000       0.00000000       0.00000000 </v>
   <v>       0.00000000      -0.00000000      -0.00000000 </v>
   <v>       0.00000000      -0.00000000       0.00000000 </v>
   <v>      -0.00000000      -0.00000000       0.00000000 </v>
   <v>       0.00000000      -0.00000000       0.00000000 </v>
   <v>       0.00000000       0.00000000       0.00000000 </v>
   <v>      -0.00000000       0.00000000       0.00000000 </v>
   <v>       0.00000000      -0.00000000      -0.00000000 </v>
   <v>      -0.00000000      -0.00000000      -0.00000000 </v>
   <v>      -0.00000000       0.00000000       0.00000000 </v>
   <v>      -0.00000000       0.00000000      -0.00000000 </v>
   <v>       0.00000000       0.00000000      -0.00000000 </v>
   <v>      -0.00000000       0.00000000       0.00000000 </v>
   <v>       0.00000000      -0.00000000      -0.00000000 </v>
   <v>       0.00000000      -0.00000000       0.00000000 </v>
   <v>      -0.00000000       0.00000000       0.00000000 </v>
  </varray>
  <varray name="stress" >
   <v>     254.55615090       0.00000000      -0.00000000 </v>
   <v>       0.00000000     254.55615090      -0.00000000 </v>
   <v>       0.00000000       0.00000000     254.55615090 </v>
  </varray>
  <energy>
   <i name="e_fr_energy">   -580.14498695 </i>
   <i name="e_wo_entrp">   -580.14498695 </i>
   <i name="e_0_energy">     -0.00000000 </i>
  </energy>
  <kpoints>
   <generation param="Gamma">
    <v type="int" name="divisions">       8        8        8 </v>
    <v name="usershift">      0.00000000       0.00000000       0.00000000 </v>
    <v name="genvec1">      0.12500000       0.00000000       0.00000000 </v>
    <v name="genvec2">      0.00000000       0.12500000       0.00000000 </v>
    <v name="genvec3">      0.00000000       0.00000000       0.12500000 </v>
    <v name="shift">      0.00000000       0.00000000       0.00000000 </v>
   </generation>
   <varray name="kpointlist" >
    <v>       0.00000000       0.00000000       0.00000000 </v>
    <v>       0.12500000       0.00000000       0.00000000 </v>
    <v>       0.25000000       0.00000000       0.00000000 </v>
    <v>       0.37500000       0.00000000       0.00000000 </v>
    <v>       0.50000000       0.00000000       0.00000000 </v>
    <v>       0.00000000       0.12500000       0.00000000 </v>
    <v>       0.12500000       0.12500000       0.00000000 </v>
    <v>       0.25000000       0.12500000       0.00000000 </v>
    <v>       0.37500000       0.12500000       0.00000000 </v>
    <v>       0.50000000       0.12500000       0.00000000 </v>
    <v>       0.00000000       0.25000000       0.00000000 </v>
    <v>       0.12500000       0.25000000       0.00000000 </v>
    <v>       0.25000000       0.25000000       0.00000000 </v>
    <v>       0.37500000       0.25000000       0.00000000 </v>
    <v>       0.50000000       0.25000000       0.00000000 </v>
    <v>       0.00000000       0.37500000       0.00000000 </v>
    <v>       0.12500000       0.37500000       0.00000000 </v>
    <v>       0.25000000       0.37500000       0.00000000 </v>
    <v>       0.37500000       0.37500000       0.00000000 </v>
    <v>       0.50000000       0.37500000       0.00000000 </v>
    <v>       0.00000000       0.50000000       0.00000000 </v>
    <v>       0.12500000       0.50000000       0.00000000 </v>
    <v>       0.25000000       0.50000000       0.00000000 </v>
    <v>       0.37500000       0.50000000       0.00000000 </v>
    <v>       0.50000000       0.50000000       0.00000000 </v>
    <v>       0.00000000       0.12500000       0.12500000 </v>
    <v>       0.12500000       0.12500000       0.12500000 </v>
    <v>       0.25000000       0.12500000       0.12500000 </v>
    <v>       0.37500000       0.12500000       0.12500000 </v>
    <v>       0.50000000       0.12500000       0.12500000 </v>
    <v>       0.00000000       0.25000000       0.12500000 </v>
    <v>       0.12500000       0.25000000       0.12500000 </v>
    <v>       0.25000000       0.25000000       0.12500000 </v>
    <v>       0.37500000       0.25000000       0.12500000 </v>
    <v>       0.50000000       0.25000000       0.12500000 </v>
    <v>       0.00000000       0.37500000       0.12500000 </v>
    <v>       0.12500000       0.37500000       0.12500000 </v>
    <v>       0.25000000       0.37500000       0.12500000 </v>
    <v>       0.37500000       0.37500000       0.12500000 </v>
    <v>       0.50000000       0.37500000       0.12500000 </v>
    <v>       0.00000000       0.50000000       0.12500000 </v>
    <v>       0.12500000       0.50000000       0.12500000 </v>
    <v>       0.25000000       0.50000000       0.12500000 </v>
    <v>       0.37500000       0.50000000       0.12500000 </v>
    <v>       0.50000000       0.50000000       0.12500000 </v>
    <v>       0.00000000      -0.37500000       0.12500000 </v>
    <v>       0.12500000      -0.37500000       0.12500000 </v>
    <v>       0.25000000      -0.37500000       0.12500000 </v>
    <v>       0.37500000      -0.37500000       0.12500000 </v>
    <v>       0.50000000      -0.37500000       0.12500000 </v>
    <v>       0.00000000      -0.25000000       0.12500000 </v>
    <v>       0.12500000      -0.25000000       0.12500000 </v>
    <v>       0.25000000      -0.25000000       0.12500000 </v>
    <v>       0.37500000      -0.25000000       0.12500000 </v>
    <v>       0.50000000      -0.25000000       0.12500000 </v>
    <v>       0.00000000      -0.12500000       0.12500000 </v>
    <v>       0.12500000      -0.12500000       0.12500000 </v>
    <v>       0.25000000      -0.12500000       0.12500000 </v>
    <v>       0.37500000      -0.12500000       0.12500000 </v>
    <v>       0.50000000      -0.12500000       0.12500000 </v>
    <v>       0.00000000       0.25000000       0.25000000 </v>
    <v>       0.12500000       0.25000000       0.25000000 </v>
    <v>       0.25000000       0.25000000       0.25000000 </v>
    <v>       0.37500000       0.25000000       0.25000000 </v>
    <v>       0.50000000       0.25000000       0.25000000 </v>
    <v>       0.00000000       0.37500000       0.25000000 </v>
    <v>       0.12500000       0.37500000       0.25000000 </v>
    <v>       0.25000000       0.37500000       0.25000000 </v>
    <v>       0.37500000       0.37500000       0.25000000 </v>
    <v>       0.50000000       0.37500000       0.25000000 </v>
    <v>       0.00000000       0.50000000       0.25000000 </v>
    <v>       0.12500000       0.50000000       0.25000000 </v>
    <v>       0.25000000       0.50000000       0.25000000 </v>
    <v>       0.37500000       0.50000000       0.25000000 </v>
    <v>       0.50000000       0.50000000       0.25000000 </v>
    <v>       0.00000000      -0.37500000       0.25000000 </v>
    <v>       0.12500000      -0.37500000       0.25000000 </v>
    <v>       0.25000000      -0.37500000       0.25000000 </v>
    <v>       0.37500000      -0.37500000       0.25000000 </v>
    <v>       0.50000000      -0.37500000       0.25000000 </v>
    <v>       0.00000000      -0.25000000       0.25000000 </v>
    <v>       0.12500000      -0.25000000       0.25000000 </v>
    <v>       0.25000000      -0.25000000       0.25000000 </v>
    <v>       0.37500000      -0.25000000       0.25000000 </v>
    <v>       0.50000000      -0.25000000       0.25000000 </v>
    <v>       0.00000000       0.37500000       0.37500000 </v>
    <v>       0.12500000       0.37500000       0.37500000 </v>
    <v>       0.25000000       0.37500000       0.37500000 </v>
    <v>       0.37500000       0.37500000       0.37500000 </v>
    <v>       0.50000000       0.37500000       0.37500000 </v>
    <v>       0.00000000       0.50000000       0.37500000 </v>
    <v>       0.12500000       0.50000000       0.37500000 </v>
    <v>       0.25000000       0.50000000       0.37500000 </v>
    <v>       0.37500000       0.50000000       0.37500000 </v>
    <v>       0.50000000       0.50000000       0.37500000 </v>
    <v>       0.00000000      -0.37500000       0.37500000 </v>
    <v>       0.12500000      -0.37500000       0.37500000 </v>
    <v>       0.25000000      -0.37500000       0.37500000 </v>
    <v>       0.37500000      -0.37500000       0.37500000 </v>
    <v>       0.50000000      -0.37500000       0.37500000 </v>
    <v>       0.00000000       0.50000000       0.50000000 </v>
    <v>       0.12500000       0.50000000       0.50000000 </v>
    <v>       0.25000000       0.50000000       0.50000000 </v>
    <v>       0.37500000       0.50000000       0.50000000 </v>
    <v>       0.50000000       0.50000000       0.50000000 </v>
   </varray>
   <varray name="weights" >
    <v>       0.00195312 </v>
    <v>       0.00390625 </v>
    <v>       0.00390625 </v>
    <v>       0.00390625 </v>
    <v>       0.00195312 </v>
    <v>       0.00781250 </v>
    <v>       0.01562500 </v>
    <v>       0.01562500 </v>
    <v>       0.01562500 </v>
    <v>       0.00781250 </v>
    <v>       0.00781250 </v>
    <v>       0.01562500 </v>
    <v>       0.01562500 </v>
    <v>       0.01562500 </v>
    <v>       0.00781250 </v>
    <v>       0.00781250 </v>
    <v>       0.01562500 </v>
    <v>       0.01562500 </v>
    <v>       0.01562500 </v>
    <v>       0.00781250 </v>
    <v>       0.00390625 </v>
    <v>       0.00781250 </v>
    <v>       0.00781250 </v>
    <v>       0.00781250 </v>
    <v>       0.00390625 </v>
    <v>       0.00390625 </v>
    <v>       0.00781250 </v>
    <v>       0.00781250 </v>
    <v>       0.00781250 </v>
    <v>       0.00390625 </v>
    <v>       0.00781250 </v>
    <v>       0.01562500 </v>
    <v>       0.01562500 </v>
    <v>       0.01562500 </v>
    <v>       0.00781250 </v>
    <v>       0.00781250 </v>
    <v>       0.01562500 </v>
    <v>       0.01562500 </v>
    <v>       0.01562500 </v>
    <v>       0.00781250 </v>
    <v>       0.00781250 </v>
    <v>       0.01562500 </v>
    <v>       0.01562500 </v>
    <v>       0.01562500 </v>
    <v>       0.00781250 </v>
    <v>       0.00781250 </v>
    <v>       0.01562500 </v>
    <v>       0.01562500 </v>
    <v>       0.01562500 </v>
    <v>       0.00781250 </v>
    <v>       0.00781250 </v>
    <v>       0.01562500 </v>
    <v>       0.01562500 </v>
    <v>       0.01562500 </v>
    <v>       0.00781250 </v>
    <v>       0.00390625 </v>
    <v>       0.00781250 </v>
    <v>       0.00781250 </v>
    <v>       0.00781250 </v>
    <v>       0.00390625 </v>
    <v>       0.00390625 </v>
    <v>       0.00781250 </v>
    <v>       0.00781250 </v>
    <v>       0.00781250 </v>
    <v>       0.00390625 </v>
    <v>       0.00781250 </v>
    <v>       0.01562500 </v>
    <v>       0.01562500 </v>
    <v>       0.01562500 </v>
    <v>       0.00781250 </v>
    <v>       0.00781250 </v>
    <v>       0.01562500 </v>
    <v>       0.01562500 </v>
    <v>       0.01562500 </v>
    <v>       0.00781250 </v>
    <v>       0.00781250 </v>
    <v>       0.01562500 </v>
    <v>       0.01562500 </v>
    <v>       0.01562500 </v>
    <v>       0.00781250 </v>
    <v>       0.00390625 </v>
    <v>       0.00781250 </v>
    <v>       0.00781250 </v>
    <v>       0.00781250 </v>
    <v>       0.00390625 </v>
    <v>       0.00390625 </v>
    <v>       0.00781250 </v>
    <v>       0.00781250 </v>
    <v>       0.00781250 </v>
    <v>       0.00390625 </v>
    <v>       0.00781250 </v>
    <v>       0.01562500 </v>
    <v>       0.01562500 </v>
    <v>       0.01562500 </v>
    <v>       0.00781250 </v>
    <v>       0.00390625 </v>
    <v>       0.00781250 </v>
    <v>       0.00781250 </v>
    <v>       0.00781250 </v>
    <v>       0.00390625 </v>
    <v>       0.00195312 </v>
    <v>       0.00390625 </v>
    <v>       0.00390625 </v>
    <v>       0.00390625 </v>
    <v>       0.00195312 </v>
   </varray>
  </kpoints>
  <scstep>
   <time name="total">   84.53   84.54</time>
   <energy>
    <i name="e_fr_energy">   -375.66153156 </i>
    <i name="e_wo_entrp">   -375.66153156 </i>
    <i name="e_0_energy">   -375.66153156 </i>
   </energy>
  </scstep>
  <scstep>
   <time name="total">   62.04   62.04</time>
   <energy>
    <i name="e_fr_energy">   -316.56453573 </i>
    <i name="e_wo_entrp">   -316.56453573 </i>
    <i name="e_0_energy">   -316.56453573 </i>
   </energy>
  </scstep>
  <scstep>
   <time name="total">   62.64   62.64</time>
   <energy>
    <i name="e_fr_energy">   -315.89223510 </i>
    <i name="e_wo_entrp">   -315.89223510 </i>
    <i name="e_0_energy">   -315.89223510 </i>
   </energy>
  </scstep>
  <scstep>
   <time name="total">   62.95   62.95</time>
   <energy>
    <i name="e_fr_energy">   -316.67619629 </i>
    <i name="e_wo_entrp">   -316.67619629 </i>
    <i name="e_0_energy">   -316.67619629 </i>
   </energy>
  </scstep>
  <scstep>
   <time name="total">   63.20   63.20</time>
   <energy>
    <i name="e_fr_energy">   -316.94164602 </i>
    <i name="e_wo_entrp">   -316.94164602 </i>
    <i name="e_0_energy">   -316.94164602 </i>
   </energy>
  </scstep>
  <scstep>
   <time name="total">   64.19   64.19</time>
   <energy>
    <i name="e_fr_energy">   -316.90388396 </i>
    <i name="e_wo_entrp">   -316.90388396 </i>
    <i name="e_0_energy">   -316.90388396 </i>
   </energy>
  </scstep>
  <scstep>
   <time name="total">   64.84   64.84</time>
   <energy>
    <i name="e_fr_energy">   -316.88217072 </i>
    <i name="e_wo_entrp">   -316.88217072 </i>
    <i name="e_0_energy">   -316.88217072 </i>
   </energy>
  </scstep>
  <scstep>
   <time name="total">   65.16   65.16</time>
   <energy>
    <i name="e_fr_energy">   -316.88075521 </i>
    <i name="e_wo_entrp">   -316.88075521 </i>
    <i name="e_0_energy">   -316.88075521 </i>
   </energy>
  </scstep>
  <scstep>
   <time name="total">   66.10   66.10</time>
   <energy>
    <i name="e_fr_energy">   -316.88014618 </i>
    <i name="e_wo_entrp">   -316.88014618 </i>
    <i name="e_0_energy">   -316.88014618 </i>
   </energy>
  </scstep>
  <scstep>
   <time name="total">   68.21   68.21</time>
   <energy>
    <i name="e_fr_energy">   -316.88034833 </i>
    <i name="e_wo_entrp">   -316.88034833 </i>
    <i name="e_0_energy">   -316.88034833 </i>
   </energy>
  </scstep>
  <scstep>
   <time name="total">   67.20   67.20</time>
   <energy>
    <i name="e_fr_energy">   -316.88041030 </i>
    <i name="e_wo_entrp">   -316.88041030 </i>
    <i name="e_0_energy">   -316.88041030 </i>
   </energy>
  </scstep>
  <kpoints>
   <generation param="Gamma">
    <v type="int" name="divisions">       8        8        8 </v>
    <v name="usershift">      0.00000000       0.00000000       0.00000000 </v>
    <v name="genvec1">      0.12500000       0.00000000       0.00000000 </v>
    <v name="genvec2">      0.00000000       0.12500000       0.00000000 </v>
    <v name="genvec3">      0.00000000       0.00000000       0.12500000 </v>
    <v name="shift">      0.00000000       0.00000000       0.00000000 </v>
   </generation>
   <varray name="kpointlist" >
    <v>       0.00000000       0.00000000       0.00000000 </v>
    <v>       0.12500000       0.00000000       0.00000000 </v>
    <v>       0.25000000       0.00000000       0.00000000 </v>
    <v>       0.37500000       0.00000000       0.00000000 </v>
    <v>       0.50000000       0.00000000       0.00000000 </v>
    <v>       0.12500000       0.12500000       0.00000000 </v>
    <v>       0.25000000       0.12500000       0.00000000 </v>
    <v>       0.37500000       0.12500000       0.00000000 </v>
    <v>       0.50000000       0.12500000       0.00000000 </v>
    <v>       0.25000000       0.25000000       0.00000000 </v>
    <v>       0.37500000       0.25000000       0.00000000 </v>
    <v>       0.50000000       0.25000000       0.00000000 </v>
    <v>       0.37500000       0.37500000       0.00000000 </v>
    <v>       0.50000000       0.37500000       0.00000000 </v>
    <v>       0.50000000       0.50000000       0.00000000 </v>
    <v>       0.12500000       0.12500000       0.12500000 </v>
    <v>       0.25000000       0.12500000       0.12500000 </v>
    <v>       0.37500000       0.12500000       0.12500000 </v>
    <v>       0.50000000       0.12500000       0.12500000 </v>
    <v>       0.25000000       0.25000000       0.12500000 </v>
    <v>       0.37500000       0.25000000       0.12500000 </v>
    <v>       0.50000000       0.25000000       0.12500000 </v>
    <v>       0.37500000       0.37500000       0.12500000 </v>
    <v>       0.50000000       0.37500000       0.12500000 </v>
    <v>       0.50000000       0.50000000       0.12500000 </v>
    <v>       0.25000000       0.25000000       0.25000000 </v>
    <v>       0.37500000       0.25000000       0.25000000 </v>
    <v>       0.50000000       0.25000000       0.25000000 </v>
    <v>       0.37500000       0.37500000       0.25000000 </v>
    <v>       0.50000000       0.37500000       0.25000000 </v>
    <v>       0.50000000       0.50000000       0.25000000 </v>
    <v>       0.37500000       0.37500000       0.37500000 </v>
    <v>       0.50000000       0.37500000       0.37500000 </v>
    <v>       0.50000000       0.50000000       0.37500000 </v>
    <v>       0.50000000       0.50000000       0.50000000 </v>
   </varray>
   <varray name="weights" >
    <v>       0.00195312 </v>
    <v>       0.01171875 </v>
    <v>       0.01171875 </v>
    <v>       0.01171875 </v>
    <v>       0.00585938 </v>
    <v>       0.02343750 </v>
    <v>       0.04687500 </v>
    <v>       0.04687500 </v>
    <v>       0.02343750 </v>
    <v>       0.02343750 </v>
    <v>       0.04687500 </v>
    <v>       0.02343750 </v>
    <v>       0.02343750 </v>
    <v>       0.02343750 </v>
    <v>       0.00585938 </v>
    <v>       0.01562500 </v>
    <v>       0.04687500 </v>
    <v>       0.04687500 </v>
    <v>       0.02343750 </v>
    <v>       0.04687500 </v>
    <v>       0.09375000 </v>
    <v>       0.04687500 </v>
    <v>       0.04687500 </v>
    <v>       0.04687500 </v>
    <v>       0.01171875 </v>
    <v>       0.01562500 </v>
    <v>       0.04687500 </v>
    <v>       0.02343750 </v>
    <v>       0.04687500 </v>
    <v>       0.04687500 </v>
    <v>       0.01171875 </v>
    <v>       0.01562500 </v>
    <v>       0.02343750 </v>
    <v>       0.01171875 </v>
    <v>       0.00195312 </v>
   </varray>
  </kpoints>
  <dynmat>
   <varray name="hessian" >
    <v>      -4.15036263      -0.00000000      -0.00000000       0.01524180      -0.00000000       0.00000000       0.00809376       0.00000000       0.00000000       0.01150192      -0.00000000      -0.00000000       0.00809376       0.00000000      -0.00000000       0.01150192      -0.00000000      -0.00000000      -0.04891026      -0.00000000      -0.00000000       0.00476688      -0.00000000      -0.00000000      -0.01366886      -0.00807352       0.00336818       0.00799584      -0.01042354      -0.01967657       0.85892806      -0.26709164      -0.26709164      -0.00564746      -0.00807352      -0.00807352       0.02960914      -0.01967657      -0.01967657      -0.00284653      -0.00253972      -0.00253972      -0.01366886       0.00336818      -0.00807352       0.00799584      -0.01967657      -0.01042354      -0.12278326       0.06577619      -0.06577619      -0.00570229       0.00356313      -0.00356313      -0.12278326       0.06577619       0.06577619      -0.00570229       0.00356313       0.00356313      -0.12278326      -0.06577619      -0.06577619      -0.00570229      -0.00356313      -0.00356313      -0.12278326      -0.06577619       0.06577619      -0.00570229      -0.00356313       0.00356313       0.85892806       0.26709164       0.26709164      -0.00564746       0.00807352       0.00807352      -0.01366886       0.00807352      -0.00336818       0.00799584       0.01042354       0.01967657      -0.01366886      -0.00336818       0.00807352       0.00799584       0.01967657       0.01042354       0.02960914       0.01967657       0.01967657      -0.00284653       0.00253972       0.00253972       0.14000425      -0.06577619       0.14608276       0.14000425      -0.06577619      -0.14608276       0.00739904      -0.00356313      -0.00601746       0.00739904      -0.00356313       0.00601746       0.14000425       0.06577619      -0.14608276       0.14000425       0.06577619       0.14608276       0.00739904       0.00356313       0.00601746       0.00739904       0.00356313      -0.00601746      -0.01366886       0.00807352       0.00336818       0.00799584       0.01042354      -0.01967657       0.85892806       0.26709164      -0.26709164      -0.00564746       0.00807352      -0.00807352       0.02960914       0.01967657      -0.01967657      -0.00284653       0.00253972      -0.00253972      -0.01366886      -0.00336818      -0.00807352       0.00799584       0.01967657      -0.01042354       0.14000425      -0.14608276       0.06577619       0.14000425       0.14608276       0.06577619       0.14000425       0.14608276      -0.06577619       0.14000425      -0.14608276      -0.06577619       0.00739904       0.00601746       0.00356313       0.00739904      -0.00601746       0.00356313       0.00739904      -0.00601746      -0.00356313       0.00739904       0.00601746      -0.00356313       0.85892806      -0.26709164       0.26709164      -0.00564746      -0.00807352       0.00807352      -0.01366886      -0.00807352      -0.00336818       0.00799584      -0.01042354       0.01967657      -0.01366886       0.00336818       0.00807352       0.00799584      -0.01967657       0.01042354       0.02960914      -0.01967657       0.01967657      -0.00284653      -0.00253972       0.00253972 </v>
    <v>      -0.00000000      -4.15036263      -0.00000000      -0.00000000       0.00809376       0.00000000       0.00000000       0.01524180       0.00000000      -0.00000000       0.01150192      -0.00000000       0.00000000       0.00809376      -0.00000000      -0.00000000      -0.04891026      -0.00000000      -0.00000000       0.01150192      -0.00000000      -0.00000000       0.00476688      -0.00000000      -0.00807352      -0.00564746       0.00807352      -0.01042354       0.00799584       0.01967657      -0.26709164       0.85892806       0.26709164      -0.00807352      -0.01366886      -0.00336818      -0.01967657       0.00799584       0.01042354      -0.00253972      -0.00284653       0.00253972       0.00336818      -0.01366886       0.00807352      -0.01967657       0.02960914       0.01967657      -0.06577619       0.14000425      -0.14608276      -0.00356313       0.00739904       0.00601746      -0.06577619       0.14000425       0.14608276      -0.00356313       0.00739904      -0.00601746       0.06577619       0.14000425       0.14608276       0.00356313       0.00739904      -0.00601746       0.06577619       0.14000425      -0.14608276       0.00356313       0.00739904       0.00601746       0.26709164       0.85892806       0.26709164       0.00807352      -0.01366886      -0.00336818       0.00807352      -0.00564746       0.00807352       0.01042354       0.00799584       0.01967657      -0.00336818      -0.01366886       0.00807352       0.01967657       0.02960914       0.01967657       0.01967657       0.00799584       0.01042354       0.00253972      -0.00284653       0.00253972       0.06577619      -0.12278326       0.06577619       0.06577619      -0.12278326      -0.06577619       0.00356313      -0.00570229       0.00356313       0.00356313      -0.00570229      -0.00356313      -0.06577619      -0.12278326       0.06577619      -0.06577619      -0.12278326      -0.06577619      -0.00356313      -0.00570229       0.00356313      -0.00356313      -0.00570229      -0.00356313       0.00807352      -0.00564746      -0.00807352       0.01042354       0.00799584      -0.01967657       0.26709164       0.85892806      -0.26709164       0.00807352      -0.01366886       0.00336818       0.01967657       0.00799584      -0.01042354       0.00253972      -0.00284653      -0.00253972      -0.00336818      -0.01366886      -0.00807352       0.01967657       0.02960914      -0.01967657      -0.14608276       0.14000425      -0.06577619       0.14608276       0.14000425       0.06577619       0.14608276       0.14000425      -0.06577619      -0.14608276       0.14000425       0.06577619       0.00601746       0.00739904      -0.00356313      -0.00601746       0.00739904       0.00356313      -0.00601746       0.00739904      -0.00356313       0.00601746       0.00739904       0.00356313      -0.26709164       0.85892806      -0.26709164      -0.00807352      -0.01366886       0.00336818      -0.00807352      -0.00564746      -0.00807352      -0.01042354       0.00799584      -0.01967657       0.00336818      -0.01366886      -0.00807352      -0.01967657       0.02960914      -0.01967657      -0.01967657       0.00799584      -0.01042354      -0.00253972      -0.00284653      -0.00253972 </v>
    <v>      -0.00000000      -0.00000000      -4.15036263       0.00000000       0.00000000       0.00809376       0.00000000       0.00000000       0.00809376      -0.00000000      -0.00000000      -0.04891026      -0.00000000      -0.00000000       0.01524180      -0.00000000      -0.00000000       0.01150192      -0.00000000      -0.00000000       0.01150192      -0.00000000      -0.00000000       0.00476688       0.00336818       0.00807352      -0.01366886      -0.01967657       0.01967657       0.02960914      -0.26709164       0.26709164       0.85892806      -0.00807352      -0.00336818      -0.01366886      -0.01967657       0.01042354       0.00799584      -0.00253972       0.00253972      -0.00284653      -0.00807352       0.00807352      -0.00564746      -0.01042354       0.01967657       0.00799584       0.06577619      -0.14608276       0.14000425       0.00356313       0.00601746       0.00739904      -0.06577619       0.14608276       0.14000425      -0.00356313      -0.00601746       0.00739904       0.06577619       0.14608276       0.14000425       0.00356313      -0.00601746       0.00739904      -0.06577619      -0.14608276       0.14000425      -0.00356313       0.00601746       0.00739904       0.26709164       0.26709164       0.85892806       0.00807352      -0.00336818      -0.01366886      -0.00336818       0.00807352      -0.01366886       0.01967657       0.01967657       0.02960914       0.00807352       0.00807352      -0.00564746       0.01042354       0.01967657       0.00799584       0.01967657       0.01042354       0.00799584       0.00253972       0.00253972      -0.00284653       0.14608276      -0.06577619       0.14000425      -0.14608276       0.06577619       0.14000425      -0.00601746      -0.00356313       0.00739904       0.00601746       0.00356313       0.00739904      -0.14608276      -0.06577619       0.14000425       0.14608276       0.06577619       0.14000425       0.00601746      -0.00356313       0.00739904      -0.00601746       0.00356313       0.00739904       0.00336818      -0.00807352      -0.01366886      -0.01967657      -0.01967657       0.02960914      -0.26709164      -0.26709164       0.85892806      -0.00807352       0.00336818      -0.01366886      -0.01967657      -0.01042354       0.00799584      -0.00253972      -0.00253972      -0.00284653      -0.00807352      -0.00807352      -0.00564746      -0.01042354      -0.01967657       0.00799584      -0.06577619       0.06577619      -0.12278326      -0.06577619      -0.06577619      -0.12278326       0.06577619       0.06577619      -0.12278326       0.06577619      -0.06577619      -0.12278326      -0.00356313       0.00356313      -0.00570229      -0.00356313      -0.00356313      -0.00570229       0.00356313       0.00356313      -0.00570229       0.00356313      -0.00356313      -0.00570229       0.26709164      -0.26709164       0.85892806       0.00807352       0.00336818      -0.01366886      -0.00336818      -0.00807352      -0.01366886       0.01967657      -0.01967657       0.02960914       0.00807352      -0.00807352      -0.00564746       0.01042354      -0.01967657       0.00799584       0.01967657      -0.01042354       0.00799584       0.00253972      -0.00253972      -0.00284653 </v>
    <v>       0.01524180      -0.00000000       0.00000000      -4.15036263      -0.00000000      -0.00000000       0.01150192      -0.00000000      -0.00000000       0.00809376       0.00000000       0.00000000       0.01150192      -0.00000000      -0.00000000       0.00809376       0.00000000      -0.00000000       0.00476688      -0.00000000      -0.00000000      -0.04891026      -0.00000000      -0.00000000       0.00799584      -0.01042354      -0.01967657      -0.01366886      -0.00807352       0.00336818      -0.00564746      -0.00807352      -0.00807352       0.85892806      -0.26709164      -0.26709164      -0.00284653      -0.00253972      -0.00253972       0.02960914      -0.01967657      -0.01967657       0.00799584      -0.01967657      -0.01042354      -0.01366886       0.00336818      -0.00807352      -0.00570229       0.00356313      -0.00356313      -0.12278326       0.06577619      -0.06577619      -0.00570229       0.00356313       0.00356313      -0.12278326       0.06577619       0.06577619      -0.00570229      -0.00356313      -0.00356313      -0.12278326      -0.06577619      -0.06577619      -0.00570229      -0.00356313       0.00356313      -0.12278326      -0.06577619       0.06577619      -0.00564746       0.00807352       0.00807352       0.85892806       0.26709164       0.26709164       0.00799584       0.01042354       0.01967657      -0.01366886       0.00807352      -0.00336818       0.00799584       0.01967657       0.01042354      -0.01366886      -0.00336818       0.00807352      -0.00284653       0.00253972       0.00253972       0.02960914       0.01967657       0.01967657       0.14000425      -0.06577619      -0.14608276       0.14000425      -0.06577619       0.14608276       0.00739904      -0.00356313       0.00601746       0.00739904      -0.00356313      -0.00601746       0.14000425       0.06577619       0.14608276       0.14000425       0.06577619      -0.14608276       0.00739904       0.00356313      -0.00601746       0.00739904       0.00356313       0.00601746       0.00799584       0.01042354      -0.01967657      -0.01366886       0.00807352       0.00336818      -0.00564746       0.00807352      -0.00807352       0.85892806       0.26709164      -0.26709164      -0.00284653       0.00253972      -0.00253972       0.02960914       0.01967657      -0.01967657       0.00799584       0.01967657      -0.01042354      -0.01366886      -0.00336818      -0.00807352       0.14000425       0.14608276       0.06577619       0.14000425      -0.14608276       0.06577619       0.14000425      -0.14608276      -0.06577619       0.14000425       0.14608276      -0.06577619       0.00739904      -0.00601746       0.00356313       0.00739904       0.00601746       0.00356313       0.00739904       0.00601746      -0.00356313       0.00739904      -0.00601746      -0.00356313      -0.00564746      -0.00807352       0.00807352       0.85892806      -0.26709164       0.26709164       0.00799584      -0.01042354       0.01967657      -0.01366886      -0.00807352      -0.00336818       0.00799584      -0.01967657       0.01042354      -0.01366886       0.00336818       0.00807352      -0.00284653      -0.00253972       0.00253972       0.02960914      -0.01967657       0.01967657 </v>
    <v>      -0.00000000       0.00809376       0.00000000      -0.00000000      -4.15036263      -0.00000000      -0.00000000       0.01150192      -0.00000000       0.00000000       0.01524180       0.00000000      -0.00000000      -0.04891026      -0.00000000       0.00000000       0.00809376      -0.00000000      -0.00000000       0.00476688      -0.00000000      -0.00000000       0.01150192      -0.00000000      -0.01042354       0.00799584       0.01967657      -0.00807352      -0.00564746       0.00807352      -0.00807352      -0.01366886      -0.00336818      -0.26709164       0.85892806       0.26709164      -0.00253972      -0.00284653       0.00253972      -0.01967657       0.00799584       0.01042354      -0.01967657       0.02960914       0.01967657       0.00336818      -0.01366886       0.00807352      -0.00356313       0.00739904       0.00601746      -0.06577619       0.14000425      -0.14608276      -0.00356313       0.00739904      -0.00601746      -0.06577619       0.14000425       0.14608276       0.00356313       0.00739904      -0.00601746       0.06577619       0.14000425       0.14608276       0.00356313       0.00739904       0.00601746       0.06577619       0.14000425      -0.14608276       0.00807352      -0.01366886      -0.00336818       0.26709164       0.85892806       0.26709164       0.01042354       0.00799584       0.01967657       0.00807352      -0.00564746       0.00807352       0.01967657       0.02960914       0.01967657      -0.00336818      -0.01366886       0.00807352       0.00253972      -0.00284653       0.00253972       0.01967657       0.00799584       0.01042354       0.06577619      -0.12278326      -0.06577619       0.06577619      -0.12278326       0.06577619       0.00356313      -0.00570229      -0.00356313       0.00356313      -0.00570229       0.00356313      -0.06577619      -0.12278326      -0.06577619      -0.06577619      -0.12278326       0.06577619      -0.00356313      -0.00570229      -0.00356313      -0.00356313      -0.00570229       0.00356313       0.01042354       0.00799584      -0.01967657       0.00807352      -0.00564746      -0.00807352       0.00807352      -0.01366886       0.00336818       0.26709164       0.85892806      -0.26709164       0.00253972      -0.00284653      -0.00253972       0.01967657       0.00799584      -0.01042354       0.01967657       0.02960914      -0.01967657      -0.00336818      -0.01366886      -0.00807352       0.14608276       0.14000425       0.06577619      -0.14608276       0.14000425      -0.06577619      -0.14608276       0.14000425       0.06577619       0.14608276       0.14000425      -0.06577619      -0.00601746       0.00739904       0.00356313       0.00601746       0.00739904      -0.00356313       0.00601746       0.00739904       0.00356313      -0.00601746       0.00739904      -0.00356313      -0.00807352      -0.01366886       0.00336818      -0.26709164       0.85892806      -0.26709164      -0.01042354       0.00799584      -0.01967657      -0.00807352      -0.00564746      -0.00807352      -0.01967657       0.02960914      -0.01967657       0.00336818      -0.01366886      -0.00807352      -0.00253972      -0.00284653      -0.00253972      -0.01967657       0.00799584      -0.01042354 </v>
    <v>       0.00000000       0.00000000       0.00809376      -0.00000000      -0.00000000      -4.15036263      -0.00000000      -0.00000000      -0.04891026       0.00000000       0.00000000       0.00809376      -0.00000000      -0.00000000       0.01150192      -0.00000000      -0.00000000       0.01524180      -0.00000000      -0.00000000       0.00476688      -0.00000000      -0.00000000       0.01150192      -0.01967657       0.01967657       0.02960914       0.00336818       0.00807352      -0.01366886      -0.00807352      -0.00336818      -0.01366886      -0.26709164       0.26709164       0.85892806      -0.00253972       0.00253972      -0.00284653      -0.01967657       0.01042354       0.00799584      -0.01042354       0.01967657       0.00799584      -0.00807352       0.00807352      -0.00564746       0.00356313       0.00601746       0.00739904       0.06577619      -0.14608276       0.14000425      -0.00356313      -0.00601746       0.00739904      -0.06577619       0.14608276       0.14000425       0.00356313      -0.00601746       0.00739904       0.06577619       0.14608276       0.14000425      -0.00356313       0.00601746       0.00739904      -0.06577619      -0.14608276       0.14000425       0.00807352      -0.00336818      -0.01366886       0.26709164       0.26709164       0.85892806       0.01967657       0.01967657       0.02960914      -0.00336818       0.00807352      -0.01366886       0.01042354       0.01967657       0.00799584       0.00807352       0.00807352      -0.00564746       0.00253972       0.00253972      -0.00284653       0.01967657       0.01042354       0.00799584      -0.14608276       0.06577619       0.14000425       0.14608276      -0.06577619       0.14000425       0.00601746       0.00356313       0.00739904      -0.00601746      -0.00356313       0.00739904       0.14608276       0.06577619       0.14000425      -0.14608276      -0.06577619       0.14000425      -0.00601746       0.00356313       0.00739904       0.00601746      -0.00356313       0.00739904      -0.01967657      -0.01967657       0.02960914       0.00336818      -0.00807352      -0.01366886      -0.00807352       0.00336818      -0.01366886      -0.26709164      -0.26709164       0.85892806      -0.00253972      -0.00253972      -0.00284653      -0.01967657      -0.01042354       0.00799584      -0.01042354      -0.01967657       0.00799584      -0.00807352      -0.00807352      -0.00564746      -0.06577619      -0.06577619      -0.12278326      -0.06577619       0.06577619      -0.12278326       0.06577619      -0.06577619      -0.12278326       0.06577619       0.06577619      -0.12278326      -0.00356313      -0.00356313      -0.00570229      -0.00356313       0.00356313      -0.00570229       0.00356313      -0.00356313      -0.00570229       0.00356313       0.00356313      -0.00570229       0.00807352       0.00336818      -0.01366886       0.26709164      -0.26709164       0.85892806       0.01967657      -0.01967657       0.02960914      -0.00336818      -0.00807352      -0.01366886       0.01042354      -0.01967657       0.00799584       0.00807352      -0.00807352      -0.00564746       0.00253972      -0.00253972      -0.00284653       0.01967657      -0.01042354       0.00799584 </v>
[...]
      </set>
     </set>
    </set>
   </array>
  </eigenvalues>
  <separator name="orbital magnetization" >
   <v name="MAGDIPOLOUT">      0.00000000      0.00000000      0.00000000</v>
  </separator>
  <dos>
   <i name="efermi">     10.83621191 </i>
   <total>
    <array>
     <dimension dim="1">gridpoints</dimension>
     <dimension dim="2">spin</dimension>
     <field>energy</field>
     <field>total</field>
     <field>integrated</field>
     <set>
      <set comment="spin 1">
       <r>   -13.3892     0.0000     0.0000 </r>
       <r>   -13.2624     0.0000     0.0000 </r>
       <r>   -13.1357     0.0000     0.0000 </r>
       <r>   -13.0089     0.0000     0.0000 </r>
       <r>   -12.8822     0.0000     0.0000 </r>
       <r>   -12.7554     0.0000     0.0000 </r>
       <r>   -12.6287     0.0000     0.0000 </r>
       <r>   -12.5019     0.0000     0.0000 </r>
       <r>   -12.3752     0.0000     0.0000 </r>
       <r>   -12.2484     0.0000     0.0000 </r>
       <r>   -12.1217     0.0000     0.0000 </r>
       <r>   -11.9949     0.0000     0.0000 </r>
       <r>   -11.8682     0.0000     0.0000 </r>
       <r>   -11.7414     0.0014     0.0002 </r>
       <r>   -11.6147     0.2407     0.0307 </r>
       <r>   -11.4879     1.0523     0.1641 </r>
       <r>   -11.3612     1.5646     0.3624 </r>
       <r>   -11.2344     2.1941     0.6405 </r>
       <r>   -11.1076     2.3487     0.9382 </r>
       <r>   -10.9809     2.6370     1.2724 </r>
       <r>   -10.8541     3.2029     1.6784 </r>
       <r>   -10.7274     2.4989     1.9952 </r>
       <r>   -10.6006     4.0006     2.5022 </r>
       <r>   -10.4739     3.3862     2.9314 </r>
       <r>   -10.3471     3.9270     3.4292 </r>
       <r>   -10.2204     3.9042     3.9241 </r>
       <r>   -10.0936     4.7259     4.5231 </r>
       <r>    -9.9669     4.4202     5.0833 </r>
       <r>    -9.8401     3.3161     5.5037 </r>
       <r>    -9.7134     5.6322     6.2175 </r>
       <r>    -9.5866     5.4956     6.9141 </r>
       <r>    -9.4599     4.3493     7.4654 </r>
       <r>    -9.3331     5.2251     8.1277 </r>
       <r>    -9.2064     5.5586     8.8322 </r>
       <r>    -9.0796     6.2345     9.6225 </r>
       <r>    -8.9529     4.5854    10.2037 </r>
       <r>    -8.8261     6.9955    11.0904 </r>
       <r>    -8.6994     4.6011    11.6736 </r>
       <r>    -8.5726     6.4526    12.4914 </r>
       <r>    -8.4459     6.4833    13.3132 </r>
       <r>    -8.3191     8.3100    14.3665 </r>
       <r>    -8.1924     5.2169    15.0278 </r>
       <r>    -8.0656     5.1169    15.6763 </r>
       <r>    -7.9389     8.4416    16.7463 </r>
       <r>    -7.8121     6.6915    17.5945 </r>
       <r>    -7.6854     7.7070    18.5713 </r>
       <r>    -7.5586     6.6314    19.4119 </r>
       <r>    -7.4319     7.7254    20.3911 </r>
       <r>    -7.3051     7.3709    21.3254 </r>
       <r>    -7.1784     7.4325    22.2674 </r>
       <r>    -7.0516     8.2608    23.3145 </r>
       <r>    -6.9248     7.9540    24.3227 </r>
       <r>    -6.7981     9.4272    25.5176 </r>
       <r>    -6.6713     7.8480    26.5124 </r>
       <r>    -6.5446     8.2772    27.5615 </r>
       <r>    -6.4178     6.0567    28.3292 </r>
       <r>    -6.2911    10.8148    29.7000 </r>
       <r>    -6.1643    11.0727    31.1035 </r>
       <r>    -6.0376     8.0079    32.1185 </r>
       <r>    -5.9108     9.3028    33.2976 </r>
       <r>    -5.7841    10.5515    34.6351 </r>
       <r>    -5.6573     9.1171    35.7907 </r>
       <r>    -5.5306    12.1831    37.3349 </r>
       <r>    -5.4038    11.0543    38.7360 </r>
       <r>    -5.2771    11.1389    40.1479 </r>
       <r>    -5.1503    11.4304    41.5967 </r>
       <r>    -5.0236    13.2511    43.2763 </r>
       <r>    -4.8968     9.5678    44.4891 </r>
       <r>    -4.7701     7.4447    45.4327 </r>
       <r>    -4.6433    10.3591    46.7457 </r>
       <r>    -4.5166    11.6302    48.2199 </r>
       <r>    -4.3898     7.7525    49.2025 </r>
       <r>    -4.2631    12.2856    50.7597 </r>
       <r>    -4.1363     6.6275    51.5998 </r>
       <r>    -4.0096    10.2239    52.8957 </r>
       <r>    -3.8828     7.6974    53.8713 </r>
       <r>    -3.7561     6.5652    54.7035 </r>
       <r>    -3.6293     7.2339    55.6204 </r>
       <r>    -3.5026    10.4128    56.9402 </r>
       <r>    -3.3758     5.2250    57.6025 </r>
       <r>    -3.2491     9.0118    58.7447 </r>
       <r>    -3.1223     9.6193    59.9640 </r>
       <r>    -2.9956     9.1893    61.1288 </r>
       <r>    -2.8688     9.8356    62.3754 </r>
       <r>    -2.7420     7.1502    63.2817 </r>
       <r>    -2.6153     6.8359    64.1482 </r>
       <r>    -2.4885    11.2443    65.5734 </r>
       <r>    -2.3618    10.0856    66.8518 </r>
       <r>    -2.2350     8.9874    67.9910 </r>
       <r>    -2.1083    11.4664    69.4444 </r>
       <r>    -1.9815     6.6273    70.2844 </r>
       <r>    -1.8548     9.1917    71.4494 </r>
       <r>    -1.7280     9.5807    72.6638 </r>
       <r>    -1.6013    10.2894    73.9680 </r>
       <r>    -1.4745    13.0852    75.6266 </r>
       <r>    -1.3478    18.8235    78.0125 </r>
       <r>    -1.2210    22.5510    80.8708 </r>
       <r>    -1.0943    21.6158    83.6107 </r>
       <r>    -0.9675    12.2427    85.1625 </r>
       <r>    -0.8408    11.3165    86.5968 </r>
       <r>    -0.7140    10.5911    87.9393 </r>
       <r>    -0.5873    10.7363    89.3001 </r>
       <r>    -0.4605    12.9923    90.9469 </r>
       <r>    -0.3338    17.4355    93.1569 </r>
       <r>    -0.2070    11.6831    94.6377 </r>
       <r>    -0.0803     8.6926    95.7396 </r>
       <r>     0.0465     4.9001    96.3607 </r>
       <r>     0.1732     9.4056    97.5528 </r>
       <r>     0.3000    10.1858    98.8439 </r>
       <r>     0.4267     7.2968    99.7688 </r>
       <r>     0.5535     8.0736   100.7921 </r>
       <r>     0.6802    15.1482   102.7122 </r>
       <r>     0.8070     9.6699   103.9378 </r>
       <r>     0.9337     6.4975   104.7614 </r>
       <r>     1.0605    12.6197   106.3610 </r>
       <r>     1.1873    17.4565   108.5736 </r>
       <r>     1.3140    12.7956   110.1955 </r>
       <r>     1.4408    12.8344   111.8222 </r>
       <r>     1.5675    12.6788   113.4293 </r>
       <r>     1.6943    20.3327   116.0065 </r>
       <r>     1.8210    20.8703   118.6518 </r>
       <r>     1.9478    12.7751   120.2711 </r>
       <r>     2.0745    11.7605   121.7618 </r>
       <r>     2.2013    17.6764   124.0023 </r>
       <r>     2.3280    13.5440   125.7190 </r>
       <r>     2.4548    15.4736   127.6803 </r>
       <r>     2.5815    17.6916   129.9227 </r>
       <r>     2.7083    16.3744   131.9982 </r>
       <r>     2.8350    22.8663   134.8966 </r>
       <r>     2.9618    14.1136   136.6855 </r>
       <r>     3.0885     8.6204   137.7781 </r>
       <r>     3.2153    21.5442   140.5089 </r>
       <r>     3.3420    24.2987   143.5888 </r>
       <r>     3.4688    17.0927   145.7553 </r>
       <r>     3.5955    15.8366   147.7626 </r>
       <r>     3.7223    21.3596   150.4700 </r>
       <r>     3.8490    21.2976   153.1695 </r>
       <r>     3.9758    24.5431   156.2804 </r>
       <r>     4.1025    23.8267   159.3005 </r>
       <r>     4.2293    25.4965   162.5322 </r>
       <r>     4.3560    20.3177   165.1075 </r>
       <r>     4.4828    23.3914   168.0724 </r>
       <r>     4.6095    27.1391   171.5123 </r>
       <r>     4.7363    26.0313   174.8118 </r>
       <r>     4.8630    20.9407   177.4661 </r>
       <r>     4.9898    18.5867   179.8220 </r>
       <r>     5.1165    20.7094   182.4469 </r>
       <r>     5.2433    28.4070   186.0475 </r>
       <r>     5.3701    26.5254   189.4097 </r>
       <r>     5.4968    17.2359   191.5943 </r>
       <r>     5.6236    17.2875   193.7856 </r>
       <r>     5.7503    25.0790   196.9644 </r>
       <r>     5.8771    21.5852   199.7003 </r>
       <r>     6.0038    25.2306   202.8983 </r>
       <r>     6.1306    16.9732   205.0497 </r>
       <r>     6.2573    18.8787   207.4426 </r>
       <r>     6.3841    21.4946   210.1671 </r>
       <r>     6.5108    26.0228   213.4655 </r>
       <r>     6.6376    17.0840   215.6309 </r>
       <r>     6.7643    18.7297   218.0050 </r>
       <r>     6.8911    17.8500   220.2675 </r>
       <r>     7.0178    20.9353   222.9210 </r>
       <r>     7.1446    25.3612   226.1356 </r>
       <r>     7.2713    15.5675   228.1088 </r>
       <r>     7.3981    18.4913   230.4526 </r>
       <r>     7.5248    16.3058   232.5194 </r>
       <r>     7.6516    20.3511   235.0989 </r>
       <r>     7.7783    21.9572   237.8821 </r>
       <r>     7.9051     7.7050   238.8587 </r>
       <r>     8.0318    12.8314   240.4851 </r>
       <r>     8.1586    14.6283   242.3392 </r>
       <r>     8.2853    10.8492   243.7144 </r>
       <r>     8.4121     9.7644   244.9520 </r>
       <r>     8.5388     7.6012   245.9155 </r>
       <r>     8.6656    10.2738   247.2177 </r>
       <r>     8.7923     8.7483   248.3266 </r>
       <r>     8.9191     7.3905   249.2633 </r>
       <r>     9.0458     6.3572   250.0691 </r>
       <r>     9.1726     5.3086   250.7420 </r>
       <r>     9.2993     7.7833   251.7285 </r>
       <r>     9.4261     5.5234   252.4286 </r>
       <r>     9.5529     4.8081   253.0381 </r>
       <r>     9.6796     3.3333   253.4606 </r>
       <r>     9.8064     5.0119   254.0959 </r>
       <r>     9.9331     3.9395   254.5952 </r>
       <r>    10.0599     3.0906   254.9869 </r>
       <r>    10.1866     2.7484   255.3353 </r>
       <r>    10.3134     2.0856   255.5996 </r>
       <r>    10.4401     2.1705   255.8748 </r>
       <r>    10.5669     0.7979   255.9759 </r>
       <r>    10.6936     0.1894   255.9999 </r>
       <r>    10.8204     0.0008   256.0000 </r>
       <r>    10.9471     0.0000   256.0000 </r>
       <r>    11.0739     0.0000   256.0000 </r>
       <r>    11.2006     0.0000   256.0000 </r>
       <r>    11.3274     0.0000   256.0000 </r>
       <r>    11.4541     0.0000   256.0000 </r>
       <r>    11.5809     0.0000   256.0000 </r>
       <r>    11.7076     0.0000   256.0000 </r>
       <r>    11.8344     0.0000   256.0000 </r>
       <r>    11.9611     0.0000   256.0000 </r>
       <r>    12.0879     0.0000   256.0000 </r>
       <r>    12.2146     0.0000   256.0000 </r>
       <r>    12.3414     0.0000   256.0000 </r>
       <r>    12.4681     0.0000   256.0000 </r>
       <r>    12.5949     0.0000   256.0000 </r>
       <r>    12.7216     0.0000   256.0000 </r>
       <r>    12.8484     0.0000   256.0000 </r>
       <r>    12.9751     0.0000   256.0000 </r>
       <r>    13.1019     0.0000   256.0000 </r>
       <r>    13.2286     0.0000   256.0000 </r>
       <r>    13.3554     0.0000   256.0000 </r>
       <r>    13.4822     0.0000   256.0000 </r>
       <r>    13.6089     0.0000   256.0000 </r>
       <r>    13.7357     0.0000   256.0000 </r>
       <r>    13.8624     0.0000   256.0000 </r>
       <r>    13.9892     0.0000   256.0000 </r>
       <r>    14.1159     0.0000   256.0000 </r>
       <r>    14.2427     0.0000   256.0000 </r>
       <r>    14.3694     0.0000   256.0000 </r>
       <r>    14.4962     0.0000   256.0000 </r>
       <r>    14.6229     0.0000   256.0000 </r>
       <r>    14.7497     0.0070   256.0009 </r>
       <r>    14.8764     0.4171   256.0538 </r>
       <r>    15.0032     1.3645   256.2267 </r>
       <r>    15.1299     3.2265   256.6357 </r>
       <r>    15.2567     4.0245   257.1458 </r>
       <r>    15.3834     2.8936   257.5126 </r>
       <r>    15.5102     4.8808   258.1312 </r>
       <r>    15.6369     9.3711   259.3190 </r>
       <r>    15.7637     9.1957   260.4846 </r>
       <r>    15.8904     5.0134   261.1201 </r>
       <r>    16.0172     7.9917   262.1330 </r>
       <r>    16.1439    10.4970   263.4635 </r>
       <r>    16.2707    15.1738   265.3868 </r>
       <r>    16.3974    12.6036   266.9844 </r>
       <r>    16.5242    12.7265   268.5975 </r>
       <r>    16.6509    13.4301   270.2998 </r>
       <r>    16.7777    12.0265   271.8241 </r>
       <r>    16.9044    13.5664   273.5437 </r>
       <r>    17.0312    17.9671   275.8211 </r>
       <r>    17.1579    19.4786   278.2900 </r>
       <r>    17.2847    14.7944   280.1652 </r>
       <r>    17.4114    16.1266   282.2093 </r>
       <r>    17.5382    18.4314   284.5455 </r>
       <r>    17.6650    18.0454   286.8328 </r>
       <r>    17.7917    16.3981   288.9112 </r>
       <r>    17.9185    20.1744   291.4684 </r>
       <r>    18.0452    23.3055   294.4224 </r>
       <r>    18.1720    17.8347   296.6830 </r>
       <r>    18.2987    24.8859   299.8373 </r>
       <r>    18.4255    22.5905   302.7007 </r>
       <r>    18.5522    22.3902   305.5387 </r>
       <r>    18.6790    22.6166   308.4054 </r>
       <r>    18.8057    32.5186   312.5271 </r>
       <r>    18.9325    28.6892   316.1635 </r>
       <r>    19.0592    31.4346   320.1479 </r>
       <r>    19.1860    26.8041   323.5454 </r>
       <r>    19.3127    30.1334   327.3648 </r>
       <r>    19.4395    28.3883   330.9631 </r>
       <r>    19.5662    28.5426   334.5809 </r>
       <r>    19.6930    36.2993   339.1819 </r>
       <r>    19.8197    22.6156   342.0485 </r>
       <r>    19.9465    20.6623   344.6674 </r>
       <r>    20.0732    29.0174   348.3454 </r>
       <r>    20.2000    24.0246   351.3906 </r>
       <r>    20.3267    23.8673   354.4158 </r>
       <r>    20.4535    30.4161   358.2711 </r>
       <r>    20.5802    32.0346   362.3315 </r>
       <r>    20.7070    25.9863   365.6253 </r>
       <r>    20.8337    25.1742   368.8162 </r>
       <r>    20.9605    28.5582   372.4360 </r>
       <r>    21.0872    23.7138   375.4418 </r>
       <r>    21.2140    13.6693   377.1744 </r>
       <r>    21.3407    12.4397   378.7511 </r>
       <r>    21.4675    12.9888   380.3975 </r>
       <r>    21.5942    10.1782   381.6876 </r>
       <r>    21.7210     5.5823   382.3951 </r>
       <r>    21.8478     2.5568   382.7192 </r>
       <r>    21.9745     2.4851   383.0342 </r>
       <r>    22.1013     1.6282   383.2406 </r>
       <r>    22.2280     2.6367   383.5748 </r>
       <r>    22.3548     1.3703   383.7485 </r>
       <r>    22.4815     1.0642   383.8834 </r>
       <r>    22.6083     0.1805   383.9062 </r>
       <r>    22.7350     0.0021   383.9065 </r>
       <r>    22.8618     0.3645   383.9527 </r>
       <r>    22.9885     0.3674   383.9993 </r>
       <r>    23.1153     0.0056   384.0000 </r>
       <r>    23.2420     0.0000   384.0000 </r>
       <r>    23.3688     0.0000   384.0000 </r>
       <r>    23.4955     0.0000   384.0000 </r>
       <r>    23.6223     0.0000   384.0000 </r>
       <r>    23.7490     0.0000   384.0000 </r>
       <r>    23.8758     0.0000   384.0000 </r>
       <r>    24.0025     0.0000   384.0000 </r>
       <r>    24.1293     0.0000   384.0000 </r>
       <r>    24.2560     0.0000   384.0000 </r>
       <r>    24.3828     0.0000   384.0000 </r>
       <r>    24.5095     0.0000   384.0000 </r>
       <r>    24.6363     0.0000   384.0000 </r>
      </set>
     </set>
    </array>
   </total>
  </dos>
 </calculation>
 <structure name="finalpos" >
  <crystal>
   <varray name="basis" >
    <v>       7.00301200       0.00000000       0.00000000 </v>
    <v>       0.00000000       7.00301200       0.00000000 </v>
    <v>       0.00000000       0.00000000       7.00301200 </v>
   </varray>
   <i name="volume">    343.44295454 </i>
   <varray name="rec_basis" >
    <v>       0.14279570       0.00000000       0.00000000 </v>
    <v>       0.00000000       0.14279570       0.00000000 </v>
    <v>       0.00000000       0.00000000       0.14279570 </v>
   </varray>
  </crystal>
  <varray name="positions" >
   <v>       0.12500000       0.37500000       0.12500000 </v>
   <v>       0.62500000       0.37500000       0.12500000 </v>
   <v>       0.12500000       0.87500000       0.12500000 </v>
   <v>       0.62500000       0.87500000       0.12500000 </v>
   <v>       0.12500000       0.37500000       0.62500000 </v>
   <v>       0.62500000       0.37500000       0.62500000 </v>
   <v>       0.12500000       0.87500000       0.62500000 </v>
   <v>       0.62500000       0.87500000       0.62500000 </v>
   <v>       0.00000000       0.00000000       0.25000000 </v>
   <v>       0.50000000       0.00000000       0.25000000 </v>
   <v>       0.00000000       0.50000000       0.25000000 </v>
   <v>       0.50000000       0.50000000       0.25000000 </v>
   <v>       0.00000000       0.00000000       0.75000000 </v>
   <v>       0.50000000       0.00000000       0.75000000 </v>
   <v>       0.00000000       0.50000000       0.75000000 </v>
   <v>       0.50000000       0.50000000       0.75000000 </v>
   <v>       0.12500000       0.12500000       0.37500000 </v>
   <v>       0.62500000       0.12500000       0.37500000 </v>
   <v>       0.12500000       0.62500000       0.37500000 </v>
   <v>       0.62500000       0.62500000       0.37500000 </v>
   <v>       0.12500000       0.12500000       0.87500000 </v>
   <v>       0.62500000       0.12500000       0.87500000 </v>
   <v>       0.12500000       0.62500000       0.87500000 </v>
   <v>       0.62500000       0.62500000       0.87500000 </v>
   <v>       0.00000000       0.25000000       0.00000000 </v>
   <v>       0.50000000       0.25000000       0.00000000 </v>
   <v>       0.00000000       0.75000000       0.00000000 </v>
   <v>       0.50000000       0.75000000       0.00000000 </v>
   <v>       0.00000000       0.25000000       0.50000000 </v>
   <v>       0.50000000       0.25000000       0.50000000 </v>
   <v>       0.00000000       0.75000000       0.50000000 </v>
   <v>       0.50000000       0.75000000       0.50000000 </v>
   <v>       0.37500000       0.37500000       0.37500000 </v>
   <v>       0.87500000       0.37500000       0.37500000 </v>
   <v>       0.37500000       0.87500000       0.37500000 </v>
   <v>       0.87500000       0.87500000       0.37500000 </v>
   <v>       0.37500000       0.37500000       0.87500000 </v>
   <v>       0.87500000       0.37500000       0.87500000 </v>
   <v>       0.37500000       0.87500000       0.87500000 </v>
   <v>       0.87500000       0.87500000       0.87500000 </v>
   <v>       0.25000000       0.00000000       0.00000000 </v>
   <v>       0.75000000       0.00000000       0.00000000 </v>
   <v>       0.25000000       0.50000000       0.00000000 </v>
   <v>       0.75000000       0.50000000       0.00000000 </v>
   <v>       0.25000000       0.00000000       0.50000000 </v>
   <v>       0.75000000       0.00000000       0.50000000 </v>
   <v>       0.25000000       0.50000000       0.50000000 </v>
   <v>       0.75000000       0.50000000       0.50000000 </v>
   <v>       0.37500000       0.12500000       0.12500000 </v>
   <v>       0.87500000       0.12500000       0.12500000 </v>
   <v>       0.37500000       0.62500000       0.12500000 </v>
   <v>       0.87500000       0.62500000       0.12500000 </v>
   <v>       0.37500000       0.12500000       0.62500000 </v>
   <v>       0.87500000       0.12500000       0.62500000 </v>
   <v>       0.37500000       0.62500000       0.62500000 </v>
   <v>       0.87500000       0.62500000       0.62500000 </v>
   <v>       0.25000000       0.25000000       0.25000000 </v>
   <v>       0.75000000       0.25000000       0.25000000 </v>
   <v>       0.25000000       0.75000000       0.25000000 </v>
   <v>       0.75000000       0.75000000       0.25000000 </v>
   <v>       0.25000000       0.25000000       0.75000000 </v>
   <v>       0.75000000       0.25000000       0.75000000 </v>
   <v>       0.25000000       0.75000000       0.75000000 </v>
   <v>       0.75000000       0.75000000       0.75000000 </v>
  </varray>
 </structure>
</modeling>
