   8   8   0   0
  0.6581988E+01  0.3748139E-09  0.3748139E-09  0.3748139E-09  0.2000000E-16
  1.000000000000000E-004
  CAR 
 unknown system                          
     19.51804279    -13.36017039  301      7.79832972      1.00000000
    -13.360  0.0000E+00  0.0000E+00
    -13.251  0.0000E+00  0.0000E+00
    -13.141  0.0000E+00  0.0000E+00
    -13.031  0.0000E+00  0.0000E+00
    -12.922  0.0000E+00  0.0000E+00
    -12.812  0.0000E+00  0.0000E+00
    -12.703  0.0000E+00  0.0000E+00
    -12.593  0.0000E+00  0.0000E+00
    -12.483  0.0000E+00  0.0000E+00
    -12.374  0.0000E+00  0.0000E+00
    -12.264  0.0000E+00  0.0000E+00
    -12.155  0.0000E+00  0.0000E+00
    -12.045  0.0000E+00  0.0000E+00
    -11.935  0.0000E+00  0.0000E+00
    -11.826  0.3818E-01  0.5072E-03
    -11.716  0.1699E+00  0.1482E-01
    -11.607  0.2664E+00  0.3870E-01
    -11.497  0.3014E+00  0.6951E-01
    -11.387  0.3537E+00  0.1054E+00
    -11.278  0.3989E+00  0.1471E+00
    -11.168  0.4310E+00  0.1925E+00
    -11.059  0.4653E+00  0.2415E+00
    -10.949  0.5079E+00  0.2948E+00
    -10.840  0.5340E+00  0.3521E+00
    -10.730  0.5602E+00  0.4121E+00
    -10.620  0.5890E+00  0.4750E+00
    -10.511  0.6207E+00  0.5413E+00
    -10.401  0.6516E+00  0.6111E+00
    -10.292  0.6730E+00  0.6836E+00
    -10.182  0.6957E+00  0.7586E+00
    -10.072  0.7203E+00  0.8362E+00
     -9.963  0.7461E+00  0.9165E+00
     -9.853  0.7737E+00  0.9998E+00
     -9.744  0.7984E+00  0.1086E+01
     -9.634  0.8188E+00  0.1175E+01
     -9.524  0.8391E+00  0.1265E+01
     -9.415  0.8623E+00  0.1359E+01
     -9.305  0.8861E+00  0.1455E+01
     -9.196  0.9111E+00  0.1553E+01
     -9.086  0.9369E+00  0.1654E+01
     -8.976  0.9575E+00  0.1758E+01
     -8.867  0.9786E+00  0.1864E+01
     -8.757  0.1001E+01  0.1973E+01
     -8.648  0.1024E+01  0.2084E+01
     -8.538  0.1048E+01  0.2197E+01
     -8.428  0.1097E+01  0.2314E+01
     -8.319  0.1152E+01  0.2438E+01
     -8.209  0.1199E+01  0.2566E+01
     -8.100  0.1235E+01  0.2700E+01
     -7.990  0.1229E+01  0.2835E+01
     -7.880  0.1196E+01  0.2968E+01
     -7.771  0.1187E+01  0.3098E+01
     -7.661  0.1223E+01  0.3231E+01
     -7.552  0.1243E+01  0.3366E+01
     -7.442  0.1260E+01  0.3503E+01
     -7.332  0.1319E+01  0.3644E+01
     -7.223  0.1411E+01  0.3793E+01
     -7.113  0.1486E+01  0.3949E+01
     -7.004  0.1679E+01  0.4123E+01
     -6.894  0.1856E+01  0.4317E+01
     -6.785  0.1725E+01  0.4521E+01
     -6.675  0.1763E+01  0.4712E+01
     -6.565  0.1731E+01  0.4908E+01
     -6.456  0.1615E+01  0.5090E+01
     -6.346  0.1580E+01  0.5266E+01
     -6.237  0.1652E+01  0.5438E+01
     -6.127  0.1555E+01  0.5620E+01
     -6.017  0.1482E+01  0.5784E+01
     -5.908  0.1497E+01  0.5947E+01
     -5.798  0.1376E+01  0.6104E+01
     -5.689  0.1364E+01  0.6254E+01
     -5.579  0.1356E+01  0.6402E+01
     -5.469  0.1274E+01  0.6550E+01
     -5.360  0.1194E+01  0.6685E+01
     -5.250  0.1135E+01  0.6813E+01
     -5.141  0.1171E+01  0.6941E+01
     -5.031  0.1112E+01  0.7072E+01
     -4.921  0.1103E+01  0.7194E+01
     -4.812  0.1118E+01  0.7316E+01
     -4.702  0.1050E+01  0.7437E+01
     -4.593  0.9382E+00  0.7546E+01
     -4.483  0.8256E+00  0.7643E+01
     -4.373  0.7336E+00  0.7728E+01
     -4.264  0.6315E+00  0.7803E+01
     -4.154  0.5296E+00  0.7866E+01
     -4.045  0.9645E+00  0.7923E+01
     -3.935  0.6661E+00  0.7996E+01
     -3.825  0.6530E+00  0.8062E+01
     -3.716  0.7092E+00  0.8141E+01
     -3.606  0.8138E+00  0.8224E+01
     -3.497  0.1045E+01  0.8322E+01
     -3.387  0.1263E+01  0.8452E+01
     -3.278  0.1406E+01  0.8598E+01
     -3.168  0.1633E+01  0.8764E+01
     -3.058  0.1998E+01  0.8960E+01
     -2.949  0.2449E+01  0.9201E+01
     -2.839  0.3766E+01  0.9517E+01
     -2.730  0.3476E+01  0.9975E+01
     -2.620  0.2602E+01  0.1029E+02
     -2.510  0.2244E+01  0.1056E+02
     -2.401  0.2014E+01  0.1079E+02
     -2.291  0.1856E+01  0.1100E+02
     -2.182  0.1734E+01  0.1120E+02
     -2.072  0.1637E+01  0.1138E+02
     -1.962  0.1597E+01  0.1156E+02
     -1.853  0.1551E+01  0.1173E+02
     -1.743  0.1539E+01  0.1190E+02
     -1.634  0.1573E+01  0.1206E+02
     -1.524  0.1287E+01  0.1221E+02
     -1.414  0.1231E+01  0.1235E+02
     -1.305  0.1202E+01  0.1248E+02
     -1.195  0.1174E+01  0.1262E+02
     -1.086  0.1142E+01  0.1274E+02
     -0.976  0.1089E+01  0.1286E+02
     -0.866  0.1039E+01  0.1298E+02
     -0.757  0.1012E+01  0.1309E+02
     -0.647  0.1039E+01  0.1320E+02
     -0.538  0.1051E+01  0.1332E+02
     -0.428  0.1096E+01  0.1344E+02
     -0.318  0.1203E+01  0.1356E+02
     -0.209  0.1364E+01  0.1370E+02
     -0.099  0.1503E+01  0.1386E+02
      0.010  0.1904E+01  0.1404E+02
      0.120  0.2313E+01  0.1427E+02
      0.229  0.2779E+01  0.1457E+02
      0.339  0.3105E+01  0.1488E+02
      0.449  0.2679E+01  0.1522E+02
      0.558  0.1534E+01  0.1544E+02
      0.668  0.1249E+01  0.1559E+02
      0.777  0.1740E+01  0.1574E+02
      0.887  0.2432E+01  0.1597E+02
      0.997  0.2406E+01  0.1624E+02
      1.106  0.2476E+01  0.1650E+02
      1.216  0.2532E+01  0.1678E+02
      1.325  0.2544E+01  0.1706E+02
      1.435  0.2597E+01  0.1734E+02
      1.545  0.2541E+01  0.1762E+02
      1.654  0.2582E+01  0.1790E+02
      1.764  0.2931E+01  0.1820E+02
      1.873  0.3271E+01  0.1855E+02
      1.983  0.3875E+01  0.1893E+02
      2.093  0.2817E+01  0.1929E+02
      2.202  0.2349E+01  0.1958E+02
      2.312  0.2890E+01  0.1985E+02
      2.421  0.3293E+01  0.2020E+02
      2.531  0.3426E+01  0.2056E+02
      2.641  0.4486E+01  0.2099E+02
      2.750  0.4208E+01  0.2149E+02
      2.860  0.3621E+01  0.2191E+02
      2.969  0.3033E+01  0.2227E+02
      3.079  0.2780E+01  0.2259E+02
      3.189  0.2996E+01  0.2290E+02
      3.298  0.3259E+01  0.2330E+02
      3.408  0.3076E+01  0.2364E+02
      3.517  0.3409E+01  0.2401E+02
      3.627  0.3257E+01  0.2437E+02
      3.737  0.3354E+01  0.2473E+02
      3.846  0.3435E+01  0.2511E+02
      3.956  0.3659E+01  0.2550E+02
      4.065  0.3079E+01  0.2587E+02
      4.175  0.2778E+01  0.2619E+02
      4.284  0.2686E+01  0.2649E+02
      4.394  0.2697E+01  0.2678E+02
      4.504  0.2968E+01  0.2709E+02
      4.613  0.3250E+01  0.2742E+02
      4.723  0.3213E+01  0.2778E+02
      4.832  0.3084E+01  0.2813E+02
      4.942  0.3058E+01  0.2846E+02
      5.052  0.2762E+01  0.2877E+02
      5.161  0.2671E+01  0.2908E+02
      5.271  0.4016E+01  0.2942E+02
      5.380  0.2194E+01  0.2974E+02
      5.490  0.1970E+01  0.2997E+02
      5.600  0.1828E+01  0.3018E+02
      5.709  0.1656E+01  0.3037E+02
      5.819  0.1533E+01  0.3054E+02
      5.928  0.1442E+01  0.3070E+02
      6.038  0.1349E+01  0.3086E+02
      6.148  0.1228E+01  0.3100E+02
      6.257  0.1109E+01  0.3113E+02
      6.367  0.1026E+01  0.3124E+02
      6.476  0.9550E+00  0.3135E+02
      6.586  0.9105E+00  0.3145E+02
      6.696  0.8124E+00  0.3155E+02
      6.805  0.7274E+00  0.3163E+02
      6.915  0.6494E+00  0.3171E+02
      7.024  0.6125E+00  0.3178E+02
      7.134  0.4751E+00  0.3184E+02
      7.244  0.3944E+00  0.3188E+02
      7.353  0.4397E+00  0.3193E+02
      7.463  0.2345E+00  0.3197E+02
      7.572  0.1697E+00  0.3199E+02
      7.682  0.7090E-02  0.3200E+02
      7.791  0.0000E+00  0.3200E+02
      7.901  0.0000E+00  0.3200E+02
      8.011  0.0000E+00  0.3200E+02
      8.120  0.0000E+00  0.3200E+02
      8.230  0.0000E+00  0.3200E+02
      8.339  0.0000E+00  0.3200E+02
      8.449  0.0000E+00  0.3200E+02
      8.559  0.0000E+00  0.3200E+02
      8.668  0.0000E+00  0.3200E+02
      8.778  0.0000E+00  0.3200E+02
      8.887  0.0000E+00  0.3200E+02
      8.997  0.0000E+00  0.3200E+02
      9.107  0.0000E+00  0.3200E+02
      9.216  0.0000E+00  0.3200E+02
      9.326  0.0000E+00  0.3200E+02
      9.435  0.0000E+00  0.3200E+02
      9.545  0.0000E+00  0.3200E+02
      9.655  0.0000E+00  0.3200E+02
      9.764  0.0000E+00  0.3200E+02
      9.874  0.0000E+00  0.3200E+02
      9.983  0.0000E+00  0.3200E+02
     10.093  0.0000E+00  0.3200E+02
     10.203  0.0000E+00  0.3200E+02
     10.312  0.0000E+00  0.3200E+02
     10.422  0.0000E+00  0.3200E+02
     10.531  0.0000E+00  0.3200E+02
     10.641  0.0000E+00  0.3200E+02
     10.751  0.0000E+00  0.3200E+02
     10.860  0.0000E+00  0.3200E+02
     10.970  0.0000E+00  0.3200E+02
     11.079  0.0000E+00  0.3200E+02
     11.189  0.0000E+00  0.3200E+02
     11.298  0.0000E+00  0.3200E+02
     11.408  0.0000E+00  0.3200E+02
     11.518  0.0000E+00  0.3200E+02
     11.627  0.7967E-01  0.3200E+02
     11.737  0.2682E+00  0.3202E+02
     11.846  0.5041E+00  0.3206E+02
     11.956  0.6363E+00  0.3213E+02
     12.066  0.6758E+00  0.3220E+02
     12.175  0.7452E+00  0.3228E+02
     12.285  0.9668E+00  0.3237E+02
     12.394  0.1063E+01  0.3248E+02
     12.504  0.1515E+01  0.3262E+02
     12.614  0.1632E+01  0.3280E+02
     12.723  0.1577E+01  0.3298E+02
     12.833  0.1585E+01  0.3315E+02
     12.942  0.1747E+01  0.3333E+02
     13.052  0.1794E+01  0.3352E+02
     13.162  0.1979E+01  0.3373E+02
     13.271  0.2095E+01  0.3396E+02
     13.381  0.2349E+01  0.3420E+02
     13.490  0.3128E+01  0.3448E+02
     13.600  0.2395E+01  0.3476E+02
     13.710  0.2332E+01  0.3501E+02
     13.819  0.2354E+01  0.3527E+02
     13.929  0.2466E+01  0.3553E+02
     14.038  0.2637E+01  0.3581E+02
     14.148  0.2886E+01  0.3612E+02
     14.258  0.3085E+01  0.3644E+02
     14.367  0.3394E+01  0.3680E+02
     14.477  0.3407E+01  0.3717E+02
     14.586  0.3746E+01  0.3756E+02
     14.696  0.4444E+01  0.3800E+02
     14.805  0.5065E+01  0.3855E+02
     14.915  0.5187E+01  0.3910E+02
     15.025  0.4822E+01  0.3967E+02
     15.134  0.4939E+01  0.4021E+02
     15.244  0.4742E+01  0.4074E+02
     15.353  0.4082E+01  0.4122E+02
     15.463  0.4332E+01  0.4170E+02
     15.573  0.4534E+01  0.4217E+02
     15.682  0.4439E+01  0.4267E+02
     15.792  0.4245E+01  0.4314E+02
     15.901  0.4298E+01  0.4362E+02
     16.011  0.3633E+01  0.4405E+02
     16.121  0.2963E+01  0.4440E+02
     16.230  0.2818E+01  0.4472E+02
     16.340  0.2792E+01  0.4503E+02
     16.449  0.3001E+01  0.4535E+02
     16.559  0.3088E+01  0.4568E+02
     16.669  0.2984E+01  0.4601E+02
     16.778  0.3171E+01  0.4635E+02
     16.888  0.3174E+01  0.4670E+02
     16.997  0.2799E+01  0.4703E+02
     17.107  0.2567E+01  0.4732E+02
     17.217  0.1628E+01  0.4755E+02
     17.326  0.1177E+01  0.4770E+02
     17.436  0.8668E+00  0.4781E+02
     17.545  0.5771E+00  0.4789E+02
     17.655  0.3576E+00  0.4794E+02
     17.765  0.2147E+00  0.4797E+02
     17.874  0.1307E+00  0.4799E+02
     17.984  0.5241E-01  0.4800E+02
     18.093  0.0000E+00  0.4800E+02
     18.203  0.0000E+00  0.4800E+02
     18.313  0.0000E+00  0.4800E+02
     18.422  0.0000E+00  0.4800E+02
     18.532  0.0000E+00  0.4800E+02
     18.641  0.0000E+00  0.4800E+02
     18.751  0.0000E+00  0.4800E+02
     18.860  0.0000E+00  0.4800E+02
     18.970  0.0000E+00  0.4800E+02
     19.080  0.0000E+00  0.4800E+02
     19.189  0.0000E+00  0.4800E+02
     19.299  0.0000E+00  0.4800E+02
     19.408  0.0000E+00  0.4800E+02
     19.518  0.0000E+00  0.4800E+02
