  64  64   0   0
  0.5761077E+01  0.7179999E-09  0.7179999E-09  0.7179999E-09  0.5000000E-15
  1.000000000000000E-004
  CAR 
 unknown system                          
     22.69914192    -13.40569136  301      9.94962266      1.00000000
    -13.406  0.0000E+00  0.0000E+00
    -13.285  0.0000E+00  0.0000E+00
    -13.165  0.0000E+00  0.0000E+00
    -13.045  0.0000E+00  0.0000E+00
    -12.924  0.0000E+00  0.0000E+00
    -12.804  0.0000E+00  0.0000E+00
    -12.684  0.0000E+00  0.0000E+00
    -12.563  0.0000E+00  0.0000E+00
    -12.443  0.0000E+00  0.0000E+00
    -12.323  0.0000E+00  0.0000E+00
    -12.202  0.0000E+00  0.0000E+00
    -12.082  0.2891E-14  0.3480E-15
    -11.961  0.1330E-06  0.1601E-07
    -11.841  0.2957E-02  0.3559E-03
    -11.721  0.2356E+00  0.2871E-01
    -11.600  0.1221E+01  0.1756E+00
    -11.480  0.1431E+01  0.3478E+00
    -11.360  0.2767E+01  0.6808E+00
    -11.239  0.1648E+01  0.8792E+00
    -11.119  0.3410E+01  0.1290E+01
    -10.999  0.3063E+01  0.1658E+01
    -10.878  0.3556E+01  0.2086E+01
    -10.758  0.2643E+01  0.2404E+01
    -10.638  0.4489E+01  0.2944E+01
    -10.517  0.4420E+01  0.3476E+01
    -10.397  0.4621E+01  0.4032E+01
    -10.277  0.3079E+01  0.4403E+01
    -10.156  0.4350E+01  0.4927E+01
    -10.036  0.6166E+01  0.5669E+01
     -9.916  0.5618E+01  0.6345E+01
     -9.795  0.4095E+01  0.6838E+01
     -9.675  0.5978E+01  0.7557E+01
     -9.555  0.3902E+01  0.8027E+01
     -9.434  0.6282E+01  0.8783E+01
     -9.314  0.7007E+01  0.9626E+01
     -9.193  0.6002E+01  0.1035E+02
     -9.073  0.6816E+01  0.1117E+02
     -8.953  0.5552E+01  0.1184E+02
     -8.832  0.5091E+01  0.1245E+02
     -8.712  0.7444E+01  0.1335E+02
     -8.592  0.7521E+01  0.1425E+02
     -8.471  0.6429E+01  0.1502E+02
     -8.351  0.8108E+01  0.1600E+02
     -8.231  0.8617E+01  0.1704E+02
     -8.110  0.6679E+01  0.1784E+02
     -7.990  0.6156E+01  0.1858E+02
     -7.870  0.7288E+01  0.1946E+02
     -7.749  0.7575E+01  0.2037E+02
     -7.629  0.9828E+01  0.2155E+02
     -7.509  0.8599E+01  0.2259E+02
     -7.388  0.1047E+02  0.2385E+02
     -7.268  0.8669E+01  0.2489E+02
     -7.148  0.5624E+01  0.2557E+02
     -7.027  0.1003E+02  0.2678E+02
     -6.907  0.9447E+01  0.2791E+02
     -6.786  0.8535E+01  0.2894E+02
     -6.666  0.1110E+02  0.3028E+02
     -6.546  0.1187E+02  0.3171E+02
     -6.425  0.1099E+02  0.3303E+02
     -6.305  0.1187E+02  0.3446E+02
     -6.185  0.1016E+02  0.3568E+02
     -6.064  0.1583E+02  0.3758E+02
     -5.944  0.9692E+01  0.3875E+02
     -5.824  0.6730E+01  0.3956E+02
     -5.703  0.8987E+01  0.4064E+02
     -5.583  0.1563E+02  0.4252E+02
     -5.463  0.1199E+02  0.4397E+02
     -5.342  0.8839E+01  0.4503E+02
     -5.222  0.1168E+02  0.4643E+02
     -5.102  0.8945E+01  0.4751E+02
     -4.981  0.1130E+02  0.4887E+02
     -4.861  0.9402E+01  0.5000E+02
     -4.741  0.1104E+02  0.5133E+02
     -4.620  0.4573E+01  0.5188E+02
     -4.500  0.7790E+01  0.5282E+02
     -4.379  0.9694E+01  0.5399E+02
     -4.259  0.1111E+02  0.5532E+02
     -4.139  0.1115E+02  0.5666E+02
     -4.018  0.1032E+02  0.5791E+02
     -3.898  0.5873E+01  0.5861E+02
     -3.778  0.4982E+01  0.5921E+02
     -3.657  0.6230E+01  0.5996E+02
     -3.537  0.6516E+01  0.6075E+02
     -3.417  0.8122E+01  0.6172E+02
     -3.296  0.9374E+01  0.6285E+02
     -3.176  0.9487E+01  0.6399E+02
     -3.056  0.8579E+01  0.6503E+02
     -2.935  0.7140E+01  0.6589E+02
     -2.815  0.7204E+01  0.6675E+02
     -2.695  0.9282E+01  0.6787E+02
     -2.574  0.6547E+01  0.6866E+02
     -2.454  0.9187E+01  0.6976E+02
     -2.334  0.1101E+02  0.7109E+02
     -2.213  0.1054E+02  0.7236E+02
     -2.093  0.1506E+02  0.7417E+02
     -1.972  0.1220E+02  0.7564E+02
     -1.852  0.1474E+02  0.7741E+02
     -1.732  0.2246E+02  0.8011E+02
     -1.611  0.1924E+02  0.8243E+02
     -1.491  0.1577E+02  0.8433E+02
     -1.371  0.1814E+02  0.8651E+02
     -1.250  0.1394E+02  0.8819E+02
     -1.130  0.1415E+02  0.8989E+02
     -1.010  0.1084E+02  0.9120E+02
     -0.889  0.1233E+02  0.9268E+02
     -0.769  0.1153E+02  0.9407E+02
     -0.649  0.1039E+02  0.9532E+02
     -0.528  0.1284E+02  0.9686E+02
     -0.408  0.8958E+01  0.9794E+02
     -0.288  0.9280E+01  0.9906E+02
     -0.167  0.1027E+02  0.1003E+03
     -0.047  0.8568E+01  0.1013E+03
      0.073  0.7705E+01  0.1023E+03
      0.194  0.9708E+01  0.1034E+03
      0.314  0.7678E+01  0.1043E+03
      0.434  0.1162E+02  0.1057E+03
      0.555  0.1289E+02  0.1073E+03
      0.675  0.1005E+02  0.1085E+03
      0.796  0.1588E+02  0.1104E+03
      0.916  0.1690E+02  0.1124E+03
      1.036  0.1628E+02  0.1144E+03
      1.157  0.1778E+02  0.1165E+03
      1.277  0.2013E+02  0.1190E+03
      1.397  0.1420E+02  0.1207E+03
      1.518  0.1188E+02  0.1221E+03
      1.638  0.1716E+02  0.1242E+03
      1.758  0.1422E+02  0.1259E+03
      1.879  0.1749E+02  0.1280E+03
      1.999  0.2124E+02  0.1305E+03
      2.119  0.2130E+02  0.1331E+03
      2.240  0.1593E+02  0.1350E+03
      2.360  0.1361E+02  0.1367E+03
      2.480  0.1736E+02  0.1388E+03
      2.601  0.1775E+02  0.1409E+03
      2.721  0.2000E+02  0.1433E+03
      2.841  0.2391E+02  0.1462E+03
      2.962  0.2180E+02  0.1488E+03
      3.082  0.2420E+02  0.1517E+03
      3.203  0.1987E+02  0.1541E+03
      3.323  0.2426E+02  0.1570E+03
      3.443  0.1916E+02  0.1593E+03
      3.564  0.1788E+02  0.1615E+03
      3.684  0.2003E+02  0.1639E+03
      3.804  0.3202E+02  0.1677E+03
      3.925  0.2614E+02  0.1709E+03
      4.045  0.2456E+02  0.1738E+03
      4.165  0.2041E+02  0.1763E+03
      4.286  0.2434E+02  0.1792E+03
      4.406  0.2391E+02  0.1821E+03
      4.526  0.2433E+02  0.1850E+03
      4.647  0.2424E+02  0.1880E+03
      4.767  0.2118E+02  0.1905E+03
      4.887  0.2646E+02  0.1937E+03
      5.008  0.2794E+02  0.1971E+03
      5.128  0.1784E+02  0.1992E+03
      5.248  0.2288E+02  0.2020E+03
      5.369  0.1879E+02  0.2042E+03
      5.489  0.2484E+02  0.2072E+03
      5.610  0.2581E+02  0.2103E+03
      5.730  0.2222E+02  0.2130E+03
      5.850  0.2137E+02  0.2156E+03
      5.971  0.1709E+02  0.2176E+03
      6.091  0.2176E+02  0.2202E+03
      6.211  0.2168E+02  0.2228E+03
      6.332  0.2342E+02  0.2257E+03
      6.452  0.2016E+02  0.2281E+03
      6.572  0.1610E+02  0.2300E+03
      6.693  0.1749E+02  0.2321E+03
      6.813  0.1749E+02  0.2342E+03
      6.933  0.1764E+02  0.2364E+03
      7.054  0.2147E+02  0.2389E+03
      7.174  0.1537E+02  0.2408E+03
      7.294  0.9247E+01  0.2419E+03
      7.415  0.1117E+02  0.2433E+03
      7.535  0.1274E+02  0.2448E+03
      7.655  0.1284E+02  0.2463E+03
      7.776  0.1016E+02  0.2476E+03
      7.896  0.5828E+01  0.2483E+03
      8.017  0.9371E+01  0.2494E+03
      8.137  0.5739E+01  0.2501E+03
      8.257  0.9307E+01  0.2512E+03
      8.378  0.6908E+01  0.2520E+03
      8.498  0.3947E+01  0.2525E+03
      8.618  0.5210E+01  0.2531E+03
      8.739  0.6137E+01  0.2539E+03
      8.859  0.3909E+01  0.2543E+03
      8.979  0.4027E+01  0.2548E+03
      9.100  0.1917E+01  0.2550E+03
      9.220  0.3751E+01  0.2555E+03
      9.340  0.2441E+01  0.2558E+03
      9.461  0.9813E+00  0.2559E+03
      9.581  0.5960E+00  0.2560E+03
      9.701  0.1254E+00  0.2560E+03
      9.822  0.1077E-02  0.2560E+03
      9.942  0.9171E-08  0.2560E+03
     10.062  0.3417E-16  0.2560E+03
     10.183  0.0000E+00  0.2560E+03
     10.303  0.0000E+00  0.2560E+03
     10.423  0.0000E+00  0.2560E+03
     10.544  0.0000E+00  0.2560E+03
     10.664  0.0000E+00  0.2560E+03
     10.785  0.0000E+00  0.2560E+03
     10.905  0.0000E+00  0.2560E+03
     11.025  0.0000E+00  0.2560E+03
     11.146  0.0000E+00  0.2560E+03
     11.266  0.0000E+00  0.2560E+03
     11.386  0.0000E+00  0.2560E+03
     11.507  0.0000E+00  0.2560E+03
     11.627  0.0000E+00  0.2560E+03
     11.747  0.0000E+00  0.2560E+03
     11.868  0.0000E+00  0.2560E+03
     11.988  0.0000E+00  0.2560E+03
     12.108  0.0000E+00  0.2560E+03
     12.229  0.0000E+00  0.2560E+03
     12.349  0.0000E+00  0.2560E+03
     12.469  0.0000E+00  0.2560E+03
     12.590  0.0000E+00  0.2560E+03
     12.710  0.0000E+00  0.2560E+03
     12.830  0.0000E+00  0.2560E+03
     12.951  0.6150E-15  0.2560E+03
     13.071  0.1115E-06  0.2560E+03
     13.192  0.9189E-02  0.2560E+03
     13.312  0.7781E+00  0.2561E+03
     13.432  0.1702E+01  0.2563E+03
     13.553  0.4282E+01  0.2568E+03
     13.673  0.4688E+01  0.2574E+03
     13.793  0.4637E+01  0.2579E+03
     13.914  0.5011E+01  0.2585E+03
     14.034  0.4930E+01  0.2591E+03
     14.154  0.5715E+01  0.2598E+03
     14.275  0.9531E+01  0.2610E+03
     14.395  0.8655E+01  0.2620E+03
     14.515  0.8465E+01  0.2630E+03
     14.636  0.9077E+01  0.2641E+03
     14.756  0.9176E+01  0.2652E+03
     14.876  0.1430E+02  0.2669E+03
     14.997  0.1185E+02  0.2684E+03
     15.117  0.1248E+02  0.2699E+03
     15.237  0.9982E+01  0.2711E+03
     15.358  0.1357E+02  0.2727E+03
     15.478  0.1365E+02  0.2744E+03
     15.599  0.1194E+02  0.2758E+03
     15.719  0.1585E+02  0.2777E+03
     15.839  0.1835E+02  0.2799E+03
     15.960  0.1591E+02  0.2818E+03
     16.080  0.2183E+02  0.2844E+03
     16.200  0.1978E+02  0.2868E+03
     16.321  0.1852E+02  0.2891E+03
     16.441  0.1645E+02  0.2910E+03
     16.561  0.1887E+02  0.2933E+03
     16.682  0.2486E+02  0.2963E+03
     16.802  0.2566E+02  0.2994E+03
     16.922  0.3244E+02  0.3033E+03
     17.043  0.3185E+02  0.3071E+03
     17.163  0.2518E+02  0.3102E+03
     17.283  0.2929E+02  0.3137E+03
     17.404  0.3132E+02  0.3174E+03
     17.524  0.3135E+02  0.3212E+03
     17.644  0.3553E+02  0.3255E+03
     17.765  0.3287E+02  0.3295E+03
     17.885  0.2869E+02  0.3329E+03
     18.006  0.2656E+02  0.3361E+03
     18.126  0.3327E+02  0.3401E+03
     18.246  0.2802E+02  0.3435E+03
     18.367  0.1895E+02  0.3458E+03
     18.487  0.1907E+02  0.3481E+03
     18.607  0.2389E+02  0.3509E+03
     18.728  0.2554E+02  0.3540E+03
     18.848  0.2207E+02  0.3567E+03
     18.968  0.2303E+02  0.3594E+03
     19.089  0.2962E+02  0.3630E+03
     19.209  0.2605E+02  0.3661E+03
     19.329  0.2283E+02  0.3689E+03
     19.450  0.2164E+02  0.3715E+03
     19.570  0.2844E+02  0.3749E+03
     19.690  0.2061E+02  0.3774E+03
     19.811  0.2143E+02  0.3800E+03
     19.931  0.1626E+02  0.3819E+03
     20.051  0.6095E+01  0.3827E+03
     20.172  0.3679E+01  0.3831E+03
     20.292  0.2385E+01  0.3834E+03
     20.413  0.2753E+01  0.3837E+03
     20.533  0.9498E+00  0.3838E+03
     20.653  0.6045E+00  0.3839E+03
     20.774  0.4518E-01  0.3839E+03
     20.894  0.3863E+00  0.3840E+03
     21.014  0.9678E-01  0.3840E+03
     21.135  0.2503E+00  0.3840E+03
     21.255  0.1093E-01  0.3840E+03
     21.375  0.5313E-06  0.3840E+03
     21.496  0.1155E-13  0.3840E+03
     21.616  0.0000E+00  0.3840E+03
     21.736  0.0000E+00  0.3840E+03
     21.857  0.0000E+00  0.3840E+03
     21.977  0.0000E+00  0.3840E+03
     22.097  0.0000E+00  0.3840E+03
     22.218  0.0000E+00  0.3840E+03
     22.338  0.0000E+00  0.3840E+03
     22.458  0.0000E+00  0.3840E+03
     22.579  0.0000E+00  0.3840E+03
     22.699  0.0000E+00  0.3840E+03
