       N       E                     dE             d eps       ncg     rms          rms(c)
DAV:   1     0.512756793885E+03    0.51276E+03   -0.11354E+05 12288   0.106E+03
DAV:   2    -0.554195586096E+03   -0.10670E+04   -0.10154E+04 16224   0.231E+02
DAV:   3    -0.596476238844E+03   -0.42281E+02   -0.42014E+02 16224   0.430E+01
DAV:   4    -0.596939206291E+03   -0.46297E+00   -0.46195E+00 16032   0.499E+00
DAV:   5    -0.596950172778E+03   -0.10966E-01   -0.10961E-01 15360   0.703E-01    0.268E+01
DAV:   6    -0.581797010718E+03    0.15153E+02   -0.10212E+01 14336   0.656E+00    0.147E+01
DAV:   7    -0.576720802409E+03    0.50762E+01   -0.11995E+01 15296   0.730E+00    0.201E+00
DAV:   8    -0.576789493802E+03   -0.68691E-01   -0.39121E-01 15456   0.127E+00    0.240E-01
DAV:   9    -0.576792061761E+03   -0.25680E-02   -0.49852E-03 15808   0.170E-01    0.105E-01
DAV:  10    -0.576792580507E+03   -0.51875E-03   -0.33508E-04 14912   0.474E-02    0.151E-02
DAV:  11    -0.576792606977E+03   -0.26470E-04   -0.20074E-05 15904   0.117E-02    0.505E-03
DAV:  12    -0.576792606673E+03    0.30469E-06   -0.62088E-07 15680   0.198E-03    0.910E-04
DAV:  13    -0.576792606693E+03   -0.20513E-07   -0.46656E-08 15520   0.502E-04    0.445E-04
DAV:  14    -0.576792606750E+03   -0.56574E-07   -0.85100E-09 11232   0.264E-04    0.242E-04
DAV:  15    -0.576792606740E+03    0.97625E-08   -0.47084E-10  9408   0.604E-05
   1 F= -.57679261E+03 E0= -.57679261E+03  d E =-.319306E-18
 Linear response reoptimize wavefunctions
DAV:   1    -0.576792606743E+03   -0.24465E-08   -0.41552E-11  9216   0.177E-05
DAV:   2    -0.576792606743E+03   -0.43656E-10   -0.83427E-12  9216   0.748E-06
 Linear response DOF=           1
 Linear response progress:
  Degree of freedom:   1/  1
       N       E                     dE             d eps       ncg     rms          rms(c)
RMM:   1    -0.145237041682E+00   -0.14524E+00    0.42373E-03 73353   0.736E-01
RMM:   2    -0.123692657195E+00    0.21544E-01   -0.71477E-03 44201   0.191E-01    0.180E-01
RMM:   3    -0.123531349061E+00    0.16131E-03   -0.90348E-04 46295   0.506E-02    0.917E-02
RMM:   4    -0.123790036275E+00   -0.25869E-03   -0.24601E-04 46347   0.276E-02    0.280E-02
RMM:   5    -0.123874467003E+00   -0.84431E-04   -0.16225E-05 46875   0.773E-03    0.669E-03
RMM:   6    -0.123857230351E+00    0.17237E-04   -0.20455E-06 47604   0.200E-03    0.138E-03
RMM:   7    -0.123848941031E+00    0.82893E-05   -0.22557E-06 48476   0.621E-04    0.390E-04
RMM:   8    -0.123848361431E+00    0.57960E-06   -0.18997E-06 50187   0.272E-04    0.929E-05
RMM:   9    -0.123848100006E+00    0.26143E-06   -0.17719E-06 51750   0.185E-04    0.379E-05
RMM:  10    -0.123848182433E+00   -0.82427E-07   -0.18198E-06 53239   0.176E-04    0.123E-05
RMM:  11    -0.123848176435E+00    0.59974E-08   -0.17406E-06 53612   0.174E-04    0.436E-06
 Linear response finished
