 vasp.5.4.4.18Apr17-6-g9f103f2a35 (build Mar 12 2022 03:36:41) complex          
  
 executed on IFC19.0.3.199_CrayMP date 2022.12.02  00:45:11
 running on   32 total cores
 distrk:  each k-point on   32 cores,    1 groups
 distr:  one band on NCORES_PER_BAND=   1 cores,   32 groups


--------------------------------------------------------------------------------------------------------


 INCAR:
 POTCAR:   PAW_PBE C 08Apr2002                    

 ----------------------------------------------------------------------------- 
|                                                                             |
|           W    W    AA    RRRRR   N    N  II  N    N   GGGG   !!!           |
|           W    W   A  A   R    R  NN   N  II  NN   N  G    G  !!!           |
|           W    W  A    A  R    R  N N  N  II  N N  N  G       !!!           |
|           W WW W  AAAAAA  RRRRR   N  N N  II  N  N N  G  GGG   !            |
|           WW  WW  A    A  R   R   N   NN  II  N   NN  G    G                |
|           W    W  A    A  R    R  N    N  II  N    N   GGGG   !!!           |
|                                                                             |
|      For optimal performance we recommend to set                            |
|        NCORE= 4 - approx SQRT( number of cores)                             |
|      NCORE specifies how many cores store one orbital (NPAR=cpu/NCORE).     |
|      This setting can  greatly improve the performance of VASP for DFT.     |
|      The default,   NCORE=1            might be grossly inefficient         |
|      on modern multi-core architectures or massively parallel machines.     |
|      Do your own testing !!!!                                               |
|      Unfortunately you need to use the default for GW and RPA calculations. |
|      (for HF NCORE is supported but not extensively tested yet)             |
|                                                                             |
 ----------------------------------------------------------------------------- 

 POTCAR:   PAW_PBE C 08Apr2002                    
   VRHFIN =C: s2p2                                                              
   LEXCH  = PE                                                                  
   EATOM  =   147.1560 eV,   10.8157 Ry                                         
                                                                                
   TITEL  = PAW_PBE C 08Apr2002                                                 
   LULTRA =        F    use ultrasoft PP ?                                      
   IUNSCR =        0    unscreen: 0-lin 1-nonlin 2-no                           
   RPACOR =     .000    partial core radius                                     
   POMASS =   12.011; ZVAL   =    4.000    mass and valenz                      
   RCORE  =    1.500    outmost cutoff radius                                   
   RWIGS  =    1.630; RWIGS  =     .863    wigner-seitz radius (au A)           
   ENMAX  =  400.000; ENMIN  =  300.000 eV                                      
   ICORE  =        2    local potential                                         
   LCOR   =        T    correct aug charges                                     
   LPAW   =        T    paw PP                                                  
   EAUG   =  644.873                                                            
   DEXC   =     .000                                                            
   RMAX   =    2.266    core radius for proj-oper                               
   RAUG   =    1.300    factor for augmentation sphere                          
   RDEP   =    1.501    radius for radial grids                                 
   RDEPT  =    1.300    core radius for aug-charge                              
   QCUT   =   -5.516; QGAM   =   11.032    optimization parameters              
                                                                                
   Description                                                                  
     l     E      TYP  RCUT    TYP  RCUT                                        
     0   .000     23  1.200                                                     
     0   .000     23  1.200                                                     
     1   .000     23  1.500                                                     
     1  2.500     23  1.500                                                     
     2   .000      7  1.500                                                     
  local pseudopotential read in
  atomic valenz-charges read in
  non local Contribution for L=           0  read in
    real space projection operators read in
  non local Contribution for L=           0  read in
    real space projection operators read in
  non local Contribution for L=           1  read in
    real space projection operators read in
  non local Contribution for L=           1  read in
    real space projection operators read in
    PAW grid and wavefunctions read in
 
   number of l-projection  operators is LMAX  =           4
   number of lm-projection operators is LMMAX =           8
 

 ----------------------------------------------------------------------------- 
|                                                                             |
|  ADVICE TO THIS USER RUNNING 'VASP/VAMP'   (HEAR YOUR MASTER'S VOICE ...):  |
|                                                                             |
|      You have a (more or less) 'large supercell' and for larger cells       |
|      it might be more efficient to use real space projection operators      |
|      So try LREAL= Auto  in the INCAR   file.                               |
|      Mind: If you want to do a very accurate calculations keep the          |
|      reciprocal projection scheme          (i.e. LREAL=.FALSE.)             |
|                                                                             |
 ----------------------------------------------------------------------------- 

 PAW_PBE C 08Apr2002                    :
 energy of atom  1       EATOM= -147.1560
 kinetic energy error for atom=    0.0288 (will be added to EATOM!!)
 
 
 POSCAR: generated by phonopy                    
  positions in direct lattice
  No initial velocities read in
 exchange correlation table for  LEXCH =        8
   RHO(1)=    0.500       N(1)  =     2000
   RHO(2)=  100.500       N(2)  =     4000
 


--------------------------------------------------------------------------------------------------------


 ion  position               nearest neighbor table
   1  0.125  0.375  0.125-  25 1.47  11 1.58  43 1.58  57 1.58
   2  0.625  0.375  0.125-  26 1.47  12 1.58  44 1.58  58 1.58
   3  0.125  0.875  0.125-  27 1.47   9 1.58  41 1.58  59 1.58
   4  0.625  0.875  0.125-  28 1.47  10 1.58  42 1.58  60 1.58
   5  0.125  0.375  0.625-  29 1.47  15 1.58  47 1.58  61 1.58
   6  0.625  0.375  0.625-  30 1.47  16 1.58  48 1.58  62 1.58
   7  0.125  0.875  0.625-  31 1.47  13 1.58  45 1.58  63 1.58
   8  0.625  0.875  0.625-  32 1.47  14 1.58  46 1.58  64 1.58
   9  0.000  0.000  0.250-  17 1.47   3 1.58  36 1.58  50 1.58
  10  0.500  0.000  0.250-  18 1.47   4 1.58  35 1.58  49 1.58
  11  0.000  0.500  0.250-  19 1.47   1 1.58  34 1.58  52 1.58
  12  0.500  0.500  0.250-  20 1.47   2 1.58  33 1.58  51 1.58
  13  0.000  0.000  0.750-  21 1.47   7 1.58  40 1.58  54 1.58
  14  0.500  0.000  0.750-  22 1.47   8 1.58  39 1.58  53 1.58
  15  0.000  0.500  0.750-  23 1.47   5 1.58  38 1.58  56 1.58
  16  0.500  0.500  0.750-  24 1.47   6 1.58  37 1.58  55 1.58
  17  0.125  0.125  0.375-   9 1.47  29 1.58  45 1.58  57 1.58
  18  0.625  0.125  0.375-  10 1.47  30 1.58  46 1.58  58 1.58
  19  0.125  0.625  0.375-  11 1.47  31 1.58  47 1.58  59 1.58
  20  0.625  0.625  0.375-  12 1.47  32 1.58  48 1.58  60 1.58
  21  0.125  0.125  0.875-  13 1.47  25 1.58  41 1.58  61 1.58
  22  0.625  0.125  0.875-  14 1.47  26 1.58  42 1.58  62 1.58
  23  0.125  0.625  0.875-  15 1.47  27 1.58  43 1.58  63 1.58
  24  0.625  0.625  0.875-  16 1.47  28 1.58  44 1.58  64 1.58
  25  0.000  0.250  0.000-   1 1.47  21 1.58  38 1.58  50 1.58
  26  0.500  0.250  0.000-   2 1.47  22 1.58  37 1.58  49 1.58
  27  0.000  0.750  0.000-   3 1.47  23 1.58  40 1.58  52 1.58
  28  0.500  0.750  0.000-   4 1.47  24 1.58  39 1.58  51 1.58
  29  0.000  0.250  0.500-   5 1.47  17 1.58  34 1.58  54 1.58
  30  0.500  0.250  0.500-   6 1.47  18 1.58  33 1.58  53 1.58
  31  0.000  0.750  0.500-   7 1.47  19 1.58  36 1.58  56 1.58
  32  0.500  0.750  0.500-   8 1.47  20 1.58  35 1.58  55 1.58
  33  0.375  0.375  0.375-  57 1.47  47 1.58  12 1.58  30 1.58
  34  0.875  0.375  0.375-  58 1.47  48 1.58  11 1.58  29 1.58
  35  0.375  0.875  0.375-  59 1.47  45 1.58  10 1.58  32 1.58
  36  0.875  0.875  0.375-  60 1.47  46 1.58   9 1.58  31 1.58
  37  0.375  0.375  0.875-  61 1.47  43 1.58  16 1.58  26 1.58
  38  0.875  0.375  0.875-  62 1.47  44 1.58  15 1.58  25 1.58
  39  0.375  0.875  0.875-  63 1.47  41 1.58  14 1.58  28 1.58
  40  0.875  0.875  0.875-  64 1.47  42 1.58  13 1.58  27 1.58
  41  0.250  0.000  0.000-  49 1.47  39 1.58   3 1.58  21 1.58
  42  0.750  0.000  0.000-  50 1.47  40 1.58   4 1.58  22 1.58
  43  0.250  0.500  0.000-  51 1.47  37 1.58   1 1.58  23 1.58
  44  0.750  0.500  0.000-  52 1.47  38 1.58   2 1.58  24 1.58
  45  0.250  0.000  0.500-  53 1.47  35 1.58   7 1.58  17 1.58
  46  0.750  0.000  0.500-  54 1.47  36 1.58   8 1.58  18 1.58
  47  0.250  0.500  0.500-  55 1.47  33 1.58   5 1.58  19 1.58
  48  0.750  0.500  0.500-  56 1.47  34 1.58   6 1.58  20 1.58
  49  0.375  0.125  0.125-  41 1.47  57 1.58  10 1.58  26 1.58
  50  0.875  0.125  0.125-  42 1.47  58 1.58   9 1.58  25 1.58
  51  0.375  0.625  0.125-  43 1.47  59 1.58  12 1.58  28 1.58
  52  0.875  0.625  0.125-  44 1.47  60 1.58  11 1.58  27 1.58
  53  0.375  0.125  0.625-  45 1.47  61 1.58  14 1.58  30 1.58
  54  0.875  0.125  0.625-  46 1.47  62 1.58  13 1.58  29 1.58
  55  0.375  0.625  0.625-  47 1.47  63 1.58  16 1.58  32 1.58
  56  0.875  0.625  0.625-  48 1.47  64 1.58  15 1.58  31 1.58
  57  0.250  0.250  0.250-  33 1.47  49 1.58   1 1.58  17 1.58
  58  0.750  0.250  0.250-  34 1.47  50 1.58   2 1.58  18 1.58
  59  0.250  0.750  0.250-  35 1.47  51 1.58   3 1.58  19 1.58
  60  0.750  0.750  0.250-  36 1.47  52 1.58   4 1.58  20 1.58
  61  0.250  0.250  0.750-  37 1.47  53 1.58   5 1.58  21 1.58
  62  0.750  0.250  0.750-  38 1.47  54 1.58   6 1.58  22 1.58
  63  0.250  0.750  0.750-  39 1.47  55 1.58   7 1.58  23 1.58
  64  0.750  0.750  0.750-  40 1.47  56 1.58   8 1.58  24 1.58
 
  LATTYP: Found a trigonal (rhomboedric) cell.
 ALAT       =     7.1799985332
 COS(alpha) =    -0.0499998614
  
  Lattice vectors:
  
 A1 = (   7.1799987179,   0.0000000000,   0.0000000000)
 A2 = (  -0.3589989313,   7.1710179684,   0.0000000000)
 A3 = (  -0.3589989313,  -0.3774225271,   7.1610788705)


Analysis of symmetry for initial positions (statically):
=====================================================================
 Subroutine PRICEL returns following result:
 
  LATTYP: Found a trigonal (rhomboedric) cell.
 ALAT       =     2.4742361263
 COS(alpha) =     0.4473684996
  
  Lattice vectors:
  
 A1 = (  -0.1794994657,   1.6983988603,   1.7902697176)
 A2 = (   1.7052499466,  -0.0943556318,   1.7902697176)
 A3 = (   1.7052499466,   1.7927544921,   0.0000000000)
 
  32 primitive cells build up your supercell.
 

 Routine SETGRP: Setting up the symmetry group for a 
 trigonal (rhombohedral) supercell.


 Subroutine GETGRP returns: Found 12 space group operations
 (whereof  6 operations were pure point group operations)
 out of a pool of 12 trial point group operations.


The static configuration has the point symmetry C_3v.
 The point group associated with its full space group is D_3d.


Analysis of symmetry for dynamics (positions and initial velocities):
=====================================================================
 Subroutine PRICEL returns following result:
 
  LATTYP: Found a trigonal (rhomboedric) cell.
 ALAT       =     2.4742361263
 COS(alpha) =     0.4473684996
  
  Lattice vectors:
  
 A1 = (  -0.1794994657,   1.6983988603,   1.7902697176)
 A2 = (   1.7052499466,  -0.0943556318,   1.7902697176)
 A3 = (   1.7052499466,   1.7927544921,   0.0000000000)
 
  32 primitive cells build up your supercell.
 

 Routine SETGRP: Setting up the symmetry group for a 
 trigonal (rhombohedral) supercell.


 Subroutine GETGRP returns: Found 12 space group operations
 (whereof  6 operations were pure point group operations)
 out of a pool of 12 trial point group operations.


The dynamic configuration has the point symmetry C_3v.
 The point group associated with its full space group is D_3d.


 Subroutine INISYM returns: Found 12 space group operations
 (whereof  6 operations are pure point group operations),
 and found    32 'primitive' translations

 
 
 KPOINTS: kpt_density=3000                        

Automatic generation of k-mesh.
Space group operators:
 irot       det(A)        alpha          n_x          n_y          n_z        tau_x        tau_y        tau_z
    1     1.000000     0.000000     1.000000     0.000000     0.000000     0.000000     0.000000     0.000000
    2    -1.000000   180.000000     0.000000    -0.725476     0.688247     0.000000     0.000000     0.000000
    3     1.000000   120.000000    -0.547723    -0.575829    -0.606977     0.000000     0.000000     0.000000
    4    -1.000000   180.000000    -0.724569     0.689202     0.000000     0.000000     0.000000     0.000000
    5     1.000000   120.000000     0.547723     0.575829     0.606977     0.000000     0.000000     0.000000
    6    -1.000000   180.000000     0.724569     0.036274    -0.688247     0.000000     0.000000     0.000000
    7    -1.000000     0.000000     1.000000     0.000000     0.000000     0.125000     0.125000     0.125000
    8     1.000000   180.000000     0.000000    -0.725476     0.688247     0.125000     0.125000     0.125000
    9    -1.000000   120.000000    -0.547723    -0.575829    -0.606977     0.125000     0.125000     0.125000
   10     1.000000   180.000000    -0.724569     0.689202     0.000000     0.125000     0.125000     0.125000
   11    -1.000000   120.000000     0.547723     0.575829     0.606977     0.125000     0.125000     0.125000
   12     1.000000   180.000000     0.724569     0.036274    -0.688247     0.125000     0.125000     0.125000
 
 Subroutine IBZKPT returns following result:
 ===========================================
 
 Found     32 irreducible k-points:
 
 Following reciprocal coordinates:
            Coordinates               Weight
  0.000000  0.000000  0.000000      1.000000
  0.166667 -0.000000  0.000000      6.000000
  0.333333 -0.000000  0.000000      6.000000
  0.500000  0.000000  0.000000      3.000000
  0.166667  0.166667  0.000000      6.000000
  0.333333  0.166667 -0.000000     12.000000
  0.500000  0.166667  0.000000     12.000000
 -0.333333  0.166667 -0.000000     12.000000
 -0.166667  0.166667  0.000000      6.000000
  0.333333  0.333333 -0.000000      6.000000
  0.500000  0.333333  0.000000     12.000000
 -0.333333  0.333333 -0.000000      6.000000
  0.500000  0.500000  0.000000      3.000000
  0.166667  0.166667  0.166667      2.000000
  0.333333  0.166667  0.166667      6.000000
  0.500000  0.166667  0.166667      6.000000
 -0.333333  0.166667  0.166667      6.000000
 -0.166667  0.166667  0.166667      6.000000
  0.333333  0.333333  0.166667      6.000000
  0.500000  0.333333  0.166667     12.000000
 -0.333333  0.333333  0.166667     12.000000
 -0.166667  0.333333  0.166667     12.000000
  0.500000  0.500000  0.166667      6.000000
 -0.333333  0.500000  0.166667     12.000000
 -0.166667  0.500000  0.166667      6.000000
 -0.333333 -0.333333  0.166667      6.000000
  0.333333  0.333333  0.333333      2.000000
  0.500000  0.333333  0.333333      6.000000
 -0.333333  0.333333  0.333333      6.000000
  0.500000  0.500000  0.333333      6.000000
 -0.333333  0.500000  0.333333      6.000000
  0.500000  0.500000  0.500000      1.000000
 
 Following cartesian coordinates:
            Coordinates               Weight
  0.000000  0.000000  0.000000      1.000000
  0.023213  0.001162  0.001225      6.000000
  0.046425  0.002324  0.002450      6.000000
  0.069638  0.003486  0.003675      3.000000
  0.023213  0.024404  0.002450      6.000000
  0.046425  0.025566  0.003675     12.000000
  0.069638  0.026728  0.004900     12.000000
 -0.046425  0.020918 -0.001225     12.000000
 -0.023213  0.022080  0.000000      6.000000
  0.046425  0.048808  0.004900      6.000000
  0.069638  0.049970  0.006125     12.000000
 -0.046425  0.044159  0.000000      6.000000
  0.069638  0.073211  0.007350      3.000000
  0.023213  0.024404  0.025724      2.000000
  0.046425  0.025566  0.026949      6.000000
  0.069638  0.026728  0.028174      6.000000
 -0.046425  0.020918  0.022049      6.000000
 -0.023213  0.022080  0.023274      6.000000
  0.046425  0.048808  0.028174      6.000000
  0.069638  0.049970  0.029399     12.000000
 -0.046425  0.044159  0.023274     12.000000
 -0.023213  0.045321  0.024499     12.000000
  0.069638  0.073211  0.030624      6.000000
 -0.046425  0.067401  0.024499     12.000000
 -0.023213  0.068563  0.025724      6.000000
 -0.046425 -0.048808  0.018374      6.000000
  0.046425  0.048808  0.051448      2.000000
  0.069638  0.049970  0.052673      6.000000
 -0.046425  0.044159  0.046548      6.000000
  0.069638  0.073211  0.053898      6.000000
 -0.046425  0.067401  0.047773      6.000000
  0.069638  0.073211  0.077172      1.000000
 
 
 Subroutine IBZKPT_HF returns following result:
 ==============================================
 
 Found    216 k-points in 1st BZ
 the following    216 k-points will be used (e.g. in the exchange kernel)
 Following reciprocal coordinates:   # in IRBZ
  0.000000  0.000000  0.000000    0.00462963   1 t-inv F
  0.166667 -0.000000  0.000000    0.00462963   2 t-inv F
  0.333333 -0.000000  0.000000    0.00462963   3 t-inv F
  0.500000  0.000000  0.000000    0.00462963   4 t-inv F
  0.166667  0.166667  0.000000    0.00462963   5 t-inv F
  0.333333  0.166667 -0.000000    0.00462963   6 t-inv F
  0.500000  0.166667  0.000000    0.00462963   7 t-inv F
 -0.333333  0.166667 -0.000000    0.00462963   8 t-inv F
 -0.166667  0.166667  0.000000    0.00462963   9 t-inv F
  0.333333  0.333333 -0.000000    0.00462963  10 t-inv F
  0.500000  0.333333  0.000000    0.00462963  11 t-inv F
 -0.333333  0.333333 -0.000000    0.00462963  12 t-inv F
  0.500000  0.500000  0.000000    0.00462963  13 t-inv F
  0.166667  0.166667  0.166667    0.00462963  14 t-inv F
  0.333333  0.166667  0.166667    0.00462963  15 t-inv F
  0.500000  0.166667  0.166667    0.00462963  16 t-inv F
 -0.333333  0.166667  0.166667    0.00462963  17 t-inv F
 -0.166667  0.166667  0.166667    0.00462963  18 t-inv F
  0.333333  0.333333  0.166667    0.00462963  19 t-inv F
  0.500000  0.333333  0.166667    0.00462963  20 t-inv F
 -0.333333  0.333333  0.166667    0.00462963  21 t-inv F
 -0.166667  0.333333  0.166667    0.00462963  22 t-inv F
  0.500000  0.500000  0.166667    0.00462963  23 t-inv F
 -0.333333  0.500000  0.166667    0.00462963  24 t-inv F
 -0.166667  0.500000  0.166667    0.00462963  25 t-inv F
 -0.333333 -0.333333  0.166667    0.00462963  26 t-inv F
  0.333333  0.333333  0.333333    0.00462963  27 t-inv F
  0.500000  0.333333  0.333333    0.00462963  28 t-inv F
 -0.333333  0.333333  0.333333    0.00462963  29 t-inv F
  0.500000  0.500000  0.333333    0.00462963  30 t-inv F
 -0.333333  0.500000  0.333333    0.00462963  31 t-inv F
  0.500000  0.500000  0.500000    0.00462963  32 t-inv F
  0.000000  0.166667 -0.000000    0.00462963   2 t-inv F
 -0.000000  0.000000  0.166667    0.00462963   2 t-inv F
 -0.166667  0.000000 -0.000000    0.00462963   2 t-inv F
 -0.000000 -0.166667  0.000000    0.00462963   2 t-inv F
  0.000000 -0.000000 -0.166667    0.00462963   2 t-inv F
  0.000000  0.333333 -0.000000    0.00462963   3 t-inv F
 -0.000000  0.000000  0.333333    0.00462963   3 t-inv F
 -0.333333  0.000000 -0.000000    0.00462963   3 t-inv F
 -0.000000 -0.333333  0.000000    0.00462963   3 t-inv F
  0.000000 -0.000000 -0.333333    0.00462963   3 t-inv F
  0.000000  0.500000  0.000000    0.00462963   4 t-inv F
  0.000000  0.000000  0.500000    0.00462963   4 t-inv F
  0.166667  0.000000  0.166667    0.00462963   5 t-inv F
  0.000000  0.166667  0.166667    0.00462963   5 t-inv F
 -0.166667 -0.166667 -0.000000    0.00462963   5 t-inv F
 -0.166667 -0.000000 -0.166667    0.00462963   5 t-inv F
 -0.000000 -0.166667 -0.166667    0.00462963   5 t-inv F
  0.333333 -0.000000  0.166667    0.00462963   6 t-inv F
 -0.000000  0.333333  0.166667    0.00462963   6 t-inv F
  0.166667  0.333333 -0.000000    0.00462963   6 t-inv F
  0.166667 -0.000000  0.333333    0.00462963   6 t-inv F
 -0.000000  0.166667  0.333333    0.00462963   6 t-inv F
 -0.333333 -0.166667  0.000000    0.00462963   6 t-inv F
 -0.333333  0.000000 -0.166667    0.00462963   6 t-inv F
  0.000000 -0.333333 -0.166667    0.00462963   6 t-inv F
 -0.166667 -0.333333  0.000000    0.00462963   6 t-inv F
 -0.166667  0.000000 -0.333333    0.00462963   6 t-inv F
  0.000000 -0.166667 -0.333333    0.00462963   6 t-inv F
  0.500000  0.000000  0.166667    0.00462963   7 t-inv F
  0.000000  0.500000  0.166667    0.00462963   7 t-inv F
  0.166667  0.500000  0.000000    0.00462963   7 t-inv F
  0.166667  0.000000  0.500000    0.00462963   7 t-inv F
  0.000000  0.166667  0.500000    0.00462963   7 t-inv F
 -0.500000 -0.166667 -0.000000    0.00462963   7 t-inv F
 -0.500000 -0.000000 -0.166667    0.00462963   7 t-inv F
 -0.000000 -0.500000 -0.166667    0.00462963   7 t-inv F
 -0.166667 -0.500000 -0.000000    0.00462963   7 t-inv F
 -0.166667 -0.000000 -0.500000    0.00462963   7 t-inv F
 -0.000000 -0.166667 -0.500000    0.00462963   7 t-inv F
 -0.333333 -0.000000  0.166667    0.00462963   8 t-inv F
 -0.000000 -0.333333  0.166667    0.00462963   8 t-inv F
  0.166667 -0.333333 -0.000000    0.00462963   8 t-inv F
  0.166667 -0.000000 -0.333333    0.00462963   8 t-inv F
 -0.000000  0.166667 -0.333333    0.00462963   8 t-inv F
  0.333333 -0.166667  0.000000    0.00462963   8 t-inv F
  0.333333  0.000000 -0.166667    0.00462963   8 t-inv F
  0.000000  0.333333 -0.166667    0.00462963   8 t-inv F
 -0.166667  0.333333  0.000000    0.00462963   8 t-inv F
 -0.166667  0.000000  0.333333    0.00462963   8 t-inv F
  0.000000 -0.166667  0.333333    0.00462963   8 t-inv F
 -0.166667  0.000000  0.166667    0.00462963   9 t-inv F
  0.000000 -0.166667  0.166667    0.00462963   9 t-inv F
  0.166667 -0.166667  0.000000    0.00462963   9 t-inv F
  0.166667  0.000000 -0.166667    0.00462963   9 t-inv F
  0.000000  0.166667 -0.166667    0.00462963   9 t-inv F
  0.333333 -0.000000  0.333333    0.00462963  10 t-inv F
 -0.000000  0.333333  0.333333    0.00462963  10 t-inv F
 -0.333333 -0.333333  0.000000    0.00462963  10 t-inv F
 -0.333333  0.000000 -0.333333    0.00462963  10 t-inv F
  0.000000 -0.333333 -0.333333    0.00462963  10 t-inv F
  0.500000  0.000000  0.333333    0.00462963  11 t-inv F
  0.000000  0.500000  0.333333    0.00462963  11 t-inv F
  0.333333  0.500000  0.000000    0.00462963  11 t-inv F
  0.333333  0.000000  0.500000    0.00462963  11 t-inv F
  0.000000  0.333333  0.500000    0.00462963  11 t-inv F
 -0.500000 -0.333333 -0.000000    0.00462963  11 t-inv F
 -0.500000 -0.000000 -0.333333    0.00462963  11 t-inv F
 -0.000000 -0.500000 -0.333333    0.00462963  11 t-inv F
 -0.333333 -0.500000 -0.000000    0.00462963  11 t-inv F
 -0.333333 -0.000000 -0.500000    0.00462963  11 t-inv F
 -0.000000 -0.333333 -0.500000    0.00462963  11 t-inv F
 -0.333333 -0.000000  0.333333    0.00462963  12 t-inv F
 -0.000000 -0.333333  0.333333    0.00462963  12 t-inv F
  0.333333 -0.333333 -0.000000    0.00462963  12 t-inv F
  0.333333 -0.000000 -0.333333    0.00462963  12 t-inv F
 -0.000000  0.333333 -0.333333    0.00462963  12 t-inv F
  0.500000  0.000000  0.500000    0.00462963  13 t-inv F
  0.000000  0.500000  0.500000    0.00462963  13 t-inv F
 -0.166667 -0.166667 -0.166667    0.00462963  14 t-inv F
  0.166667  0.333333  0.166667    0.00462963  15 t-inv F
  0.166667  0.166667  0.333333    0.00462963  15 t-inv F
 -0.333333 -0.166667 -0.166667    0.00462963  15 t-inv F
 -0.166667 -0.333333 -0.166667    0.00462963  15 t-inv F
 -0.166667 -0.166667 -0.333333    0.00462963  15 t-inv F
  0.166667  0.500000  0.166667    0.00462963  16 t-inv F
  0.166667  0.166667  0.500000    0.00462963  16 t-inv F
 -0.500000 -0.166667 -0.166667    0.00462963  16 t-inv F
 -0.166667 -0.500000 -0.166667    0.00462963  16 t-inv F
 -0.166667 -0.166667 -0.500000    0.00462963  16 t-inv F
  0.166667 -0.333333  0.166667    0.00462963  17 t-inv F
  0.166667  0.166667 -0.333333    0.00462963  17 t-inv F
  0.333333 -0.166667 -0.166667    0.00462963  17 t-inv F
 -0.166667  0.333333 -0.166667    0.00462963  17 t-inv F
 -0.166667 -0.166667  0.333333    0.00462963  17 t-inv F
  0.166667 -0.166667  0.166667    0.00462963  18 t-inv F
  0.166667  0.166667 -0.166667    0.00462963  18 t-inv F
  0.166667 -0.166667 -0.166667    0.00462963  18 t-inv F
 -0.166667  0.166667 -0.166667    0.00462963  18 t-inv F
 -0.166667 -0.166667  0.166667    0.00462963  18 t-inv F
  0.333333  0.166667  0.333333    0.00462963  19 t-inv F
  0.166667  0.333333  0.333333    0.00462963  19 t-inv F
 -0.333333 -0.333333 -0.166667    0.00462963  19 t-inv F
 -0.333333 -0.166667 -0.333333    0.00462963  19 t-inv F
 -0.166667 -0.333333 -0.333333    0.00462963  19 t-inv F
  0.500000  0.166667  0.333333    0.00462963  20 t-inv F
  0.166667  0.500000  0.333333    0.00462963  20 t-inv F
  0.333333  0.500000  0.166667    0.00462963  20 t-inv F
  0.333333  0.166667  0.500000    0.00462963  20 t-inv F
  0.166667  0.333333  0.500000    0.00462963  20 t-inv F
 -0.500000 -0.333333 -0.166667    0.00462963  20 t-inv F
 -0.500000 -0.166667 -0.333333    0.00462963  20 t-inv F
 -0.166667 -0.500000 -0.333333    0.00462963  20 t-inv F
 -0.333333 -0.500000 -0.166667    0.00462963  20 t-inv F
 -0.333333 -0.166667 -0.500000    0.00462963  20 t-inv F
 -0.166667 -0.333333 -0.500000    0.00462963  20 t-inv F
 -0.333333  0.166667  0.333333    0.00462963  21 t-inv F
  0.166667 -0.333333  0.333333    0.00462963  21 t-inv F
  0.333333 -0.333333  0.166667    0.00462963  21 t-inv F
  0.333333  0.166667 -0.333333    0.00462963  21 t-inv F
  0.166667  0.333333 -0.333333    0.00462963  21 t-inv F
  0.333333 -0.333333 -0.166667    0.00462963  21 t-inv F
  0.333333 -0.166667 -0.333333    0.00462963  21 t-inv F
 -0.166667  0.333333 -0.333333    0.00462963  21 t-inv F
 -0.333333  0.333333 -0.166667    0.00462963  21 t-inv F
 -0.333333 -0.166667  0.333333    0.00462963  21 t-inv F
 -0.166667 -0.333333  0.333333    0.00462963  21 t-inv F
 -0.166667  0.166667  0.333333    0.00462963  22 t-inv F
  0.166667 -0.166667  0.333333    0.00462963  22 t-inv F
  0.333333 -0.166667  0.166667    0.00462963  22 t-inv F
  0.333333  0.166667 -0.166667    0.00462963  22 t-inv F
  0.166667  0.333333 -0.166667    0.00462963  22 t-inv F
  0.166667 -0.333333 -0.166667    0.00462963  22 t-inv F
  0.166667 -0.166667 -0.333333    0.00462963  22 t-inv F
 -0.166667  0.166667 -0.333333    0.00462963  22 t-inv F
 -0.333333  0.166667 -0.166667    0.00462963  22 t-inv F
 -0.333333 -0.166667  0.166667    0.00462963  22 t-inv F
 -0.166667 -0.333333  0.166667    0.00462963  22 t-inv F
  0.500000  0.166667  0.500000    0.00462963  23 t-inv F
  0.166667  0.500000  0.500000    0.00462963  23 t-inv F
 -0.500000 -0.500000 -0.166667    0.00462963  23 t-inv F
 -0.500000 -0.166667 -0.500000    0.00462963  23 t-inv F
 -0.166667 -0.500000 -0.500000    0.00462963  23 t-inv F
 -0.333333  0.166667  0.500000    0.00462963  24 t-inv F
  0.166667 -0.333333  0.500000    0.00462963  24 t-inv F
  0.500000 -0.333333  0.166667    0.00462963  24 t-inv F
  0.500000  0.166667 -0.333333    0.00462963  24 t-inv F
  0.166667  0.500000 -0.333333    0.00462963  24 t-inv F
  0.333333 -0.500000 -0.166667    0.00462963  24 t-inv F
  0.333333 -0.166667 -0.500000    0.00462963  24 t-inv F
 -0.166667  0.333333 -0.500000    0.00462963  24 t-inv F
 -0.500000  0.333333 -0.166667    0.00462963  24 t-inv F
 -0.500000 -0.166667  0.333333    0.00462963  24 t-inv F
 -0.166667 -0.500000  0.333333    0.00462963  24 t-inv F
 -0.166667  0.166667  0.500000    0.00462963  25 t-inv F
  0.166667 -0.166667  0.500000    0.00462963  25 t-inv F
  0.500000 -0.166667  0.166667    0.00462963  25 t-inv F
  0.500000  0.166667 -0.166667    0.00462963  25 t-inv F
  0.166667  0.500000 -0.166667    0.00462963  25 t-inv F
 -0.333333  0.166667 -0.333333    0.00462963  26 t-inv F
  0.166667 -0.333333 -0.333333    0.00462963  26 t-inv F
  0.333333  0.333333 -0.166667    0.00462963  26 t-inv F
  0.333333 -0.166667  0.333333    0.00462963  26 t-inv F
 -0.166667  0.333333  0.333333    0.00462963  26 t-inv F
 -0.333333 -0.333333 -0.333333    0.00462963  27 t-inv F
  0.333333  0.500000  0.333333    0.00462963  28 t-inv F
  0.333333  0.333333  0.500000    0.00462963  28 t-inv F
 -0.500000 -0.333333 -0.333333    0.00462963  28 t-inv F
 -0.333333 -0.500000 -0.333333    0.00462963  28 t-inv F
 -0.333333 -0.333333 -0.500000    0.00462963  28 t-inv F
  0.333333 -0.333333  0.333333    0.00462963  29 t-inv F
  0.333333  0.333333 -0.333333    0.00462963  29 t-inv F
  0.333333 -0.333333 -0.333333    0.00462963  29 t-inv F
 -0.333333  0.333333 -0.333333    0.00462963  29 t-inv F
 -0.333333 -0.333333  0.333333    0.00462963  29 t-inv F
  0.500000  0.333333  0.500000    0.00462963  30 t-inv F
  0.333333  0.500000  0.500000    0.00462963  30 t-inv F
 -0.500000 -0.500000 -0.333333    0.00462963  30 t-inv F
 -0.500000 -0.333333 -0.500000    0.00462963  30 t-inv F
 -0.333333 -0.500000 -0.500000    0.00462963  30 t-inv F
 -0.333333  0.333333  0.500000    0.00462963  31 t-inv F
  0.333333 -0.333333  0.500000    0.00462963  31 t-inv F
  0.500000 -0.333333  0.333333    0.00462963  31 t-inv F
  0.500000  0.333333 -0.333333    0.00462963  31 t-inv F
  0.333333  0.500000 -0.333333    0.00462963  31 t-inv F


--------------------------------------------------------------------------------------------------------




 Dimension of arrays:
   k-points           NKPTS =     32   k-points in BZ     NKDIM =     32   number of bands    NBANDS=    192
   number of dos      NEDOS =    301   number of ions     NIONS =     64
   non local maximal  LDIM  =      4   non local SUM 2l+1 LMDIM =      8
   total plane-waves  NPLWV = 110592
   max r-space proj   IRMAX =      1   max aug-charges    IRDMAX=  28513
   dimension x,y,z NGX =    48 NGY =   48 NGZ =   48
   dimension x,y,z NGXF=    96 NGYF=   96 NGZF=   96
   support grid    NGXF=   192 NGYF=  192 NGZF=  192
   ions per type =              64
   NGX,Y,Z   is equivalent  to a cutoff of  11.11, 11.11, 11.11 a.u.
   NGXF,Y,Z  is equivalent  to a cutoff of  22.23, 22.23, 22.23 a.u.

 SYSTEM =  unknown system                          
 POSCAR =  generated by phonopy                    

 Startparameter for this run:
   NWRITE =      2    write-flag & timer
   PREC   = accura    normal or accurate (medium, high low for compatibility)
   ISTART =      0    job   : 0-new  1-cont  2-samecut
   ICHARG =      2    charge: 1-file 2-atom 10-const
   ISPIN  =      1    spin polarized calculation?
   LNONCOLLINEAR =      F non collinear calculations
   LSORBIT =      F    spin-orbit coupling
   INIWAV =      1    electr: 0-lowe 1-rand  2-diag
   LASPH  =      F    aspherical Exc in radial PAW
   METAGGA=      F    non-selfconsistent MetaGGA calc.

 Electronic Relaxation 1
   ENCUT  =  400.0 eV  29.40 Ry    5.42 a.u.  11.71 11.71 11.71*2*pi/ulx,y,z
   ENINI  =  400.0     initial cutoff
   ENAUG  =  644.9 eV  augmentation charge cutoff
   NELM   =     60;   NELMIN=  2; NELMDL=  0     # of ELM steps 
   EDIFF  = 0.1E-07   stopping-criterion for ELM
   LREAL  =      F    real-space projection
   NLSPLINE    = F    spline interpolate recip. space projectors
   LCOMPAT=      F    compatible to vasp.4.4
   GGA_COMPAT  = T    GGA compatible to vasp.4.4-vasp.4.6
   LMAXPAW     = -100 max onsite density
   LMAXMIX     =    2 max onsite mixed and CHGCAR
   VOSKOWN=      0    Vosko Wilk Nusair interpolation
   ROPT   =    0.00000
 Ionic relaxation
   EDIFFG = 0.1E-06   stopping-criterion for IOM
   NSW    =      1    number of steps for IOM
   NBLOCK =      1;   KBLOCK =      1    inner block; outer block 
   IBRION =      8    ionic relax: 0-MD 1-quasi-New 2-CG
   NFREE  =      0    steps in history (QN), initial steepest desc. (CG)
   ISIF   =      2    stress and relaxation
   IWAVPR =     11    prediction:  0-non 1-charg 2-wave 3-comb
   ISYM   =      2    0-nonsym 1-usesym 2-fastsym
   LCORR  =      T    Harris-Foulkes like correction to forces

   POTIM  = 0.5000    time-step for ionic-motion
   TEIN   =    0.0    initial temperature
   TEBEG  =    0.0;   TEEND  =   0.0 temperature during run
   SMASS  =  -3.00    Nose mass-parameter (am)
   estimated Nose-frequenzy (Omega)   =  0.10E-29 period in steps =****** mass=  -0.118E-26a.u.
   SCALEE = 1.0000    scale energy and forces
   NPACO  =    256;   APACO  = 16.0  distance and # of slots for P.C.
   PSTRESS=    0.0 pullay stress

  Mass of Ions in am
   POMASS =  12.01
  Ionic Valenz
   ZVAL   =   4.00
  Atomic Wigner-Seitz radii
   RWIGS  =  -1.00
  virtual crystal weights 
   VCA    =   1.00
   NELECT =     256.0000    total number of electrons
   NUPDOWN=      -1.0000    fix difference up-down

 DOS related values:
   EMIN   =  10.00;   EMAX   =-10.00  energy-range for DOS
   EFERMI =   0.00
   ISMEAR =     0;   SIGMA  =   0.06  broadening in eV -4-tet -1-fermi 0-gaus

 Electronic relaxation 2 (details)
   IALGO  =     38    algorithm
   LDIAG  =      T    sub-space diagonalisation (order eigenvalues)
   LSUBROT=      F    optimize rotation matrix (better conditioning)
   TURBO    =      0    0=normal 1=particle mesh
   IRESTART =      0    0=no restart 2=restart with 2 vectors
   NREBOOT  =      0    no. of reboots
   NMIN     =      0    reboot dimension
   EREF     =   0.00    reference energy to select bands
   IMIX   =      4    mixing-type and parameters
     AMIX     =   0.40;   BMIX     =  1.00
     AMIX_MAG =   1.60;   BMIX_MAG =  1.00
     AMIN     =   0.10
     WC   =   100.;   INIMIX=   1;  MIXPRE=   1;  MAXMIX= -45

 Intra band minimization:
   WEIMIN = 0.0010     energy-eigenvalue tresh-hold
   EBREAK =  0.13E-10  absolut break condition
   DEPER  =   0.30     relativ break condition  

   TIME   =   0.40     timestep for ELM

  volume/ion in A,a.u.               =       5.76        38.88
  Fermi-wavevector in a.u.,A,eV,Ry     =   1.449640  2.739423 28.592061  2.101457
  Thomas-Fermi vector in A             =   2.567344
 
 Write flags
   LWAVE        =      F    write WAVECAR
   LDOWNSAMPLE  =      F    k-point downsampling of WAVECAR
   LCHARG       =      F    write CHGCAR
   LVTOT        =      F    write LOCPOT, total local potential
   LVHAR        =      F    write LOCPOT, Hartree potential only
   LELF         =      F    write electronic localiz. function (ELF)
   LORBIT       =      0    0 simple, 1 ext, 2 COOP (PROOUT), +10 PAW based schemes


 Dipole corrections
   LMONO  =      F    monopole corrections only (constant potential shift)
   LDIPOL =      F    correct potential (dipole corrections)
   IDIPOL =      0    1-x, 2-y, 3-z, 4-all directions 
   EPSILON=  1.0000000 bulk dielectric constant

 Exchange correlation treatment:
   GGA     =    --    GGA type
   LEXCH   =     8    internal setting for exchange type
   VOSKOWN=      0    Vosko Wilk Nusair interpolation
   LHFCALC =     F    Hartree Fock is set to
   LHFONE  =     F    Hartree Fock one center treatment
   AEXX    =    0.0000 exact exchange contribution

 Linear response parameters
   LEPSILON=     F    determine dielectric tensor
   LRPA    =     F    only Hartree local field effects (RPA)
   LNABLA  =     F    use nabla operator in PAW spheres
   LVEL    =     F    velocity operator in full k-point grid
   LINTERFAST=   F  fast interpolation
   KINTER  =     0    interpolate to denser k-point grid
   CSHIFT  =0.1000    complex shift for real part using Kramers Kronig
   OMEGAMAX=  -1.0    maximum frequency
   DEG_THRESHOLD= 0.2000000E-02 threshold for treating states as degnerate
   RTIME   =   -0.100 relaxation time in fs
  (WPLASMAI=    0.000 imaginary part of plasma frequency in eV, 0.658/RTIME)
   DFIELD  = 0.0000000 0.0000000 0.0000000 field for delta impulse in time
 
 Orbital magnetization related:
   ORBITALMAG=     F  switch on orbital magnetization
   LCHIMAG   =     F  perturbation theory with respect to B field
   DQ        =  0.001000  dq finite difference perturbation B field
   LLRAUG    =     F  two centre corrections for induced B field



--------------------------------------------------------------------------------------------------------


 linear response using symmetry
 charge density and potential will be updated during run
 non-spin polarized calculation
 Variant of blocked Davidson
 Davidson routine will perform the subspace rotation
 perform sub-space diagonalisation
    after iterative eigenvector-optimisation
 modified Broyden-mixing scheme, WC =      100.0
 initial mixing is a Kerker type mixing with AMIX =  0.4000 and BMIX =      1.0000
 Hartree-type preconditioning will be used
 using additional bands           64
 reciprocal scheme for non local part
 calculate Harris-corrections to forces 
   (improved forces if not selfconsistent)
 use gradient corrections 
 use of overlap-Matrix (Vanderbilt PP)
 Gauss-broadening in eV      SIGMA  =   0.06


--------------------------------------------------------------------------------------------------------


  energy-cutoff  :      400.00
  volume of cell :      368.71
      direct lattice vectors                 reciprocal lattice vectors
     7.179998718  0.000000000  0.000000000     0.139275791  0.006972491  0.007349652
    -0.358998931  7.171017968  0.000000000     0.000000000  0.139450215  0.007349682
    -0.358998931 -0.377422527  7.161078871     0.000000000  0.000000000  0.139643763

  length of vectors
     7.179998718  7.179998533  7.179998509     0.139643757  0.139643762  0.139643763


 
 k-points in units of 2pi/SCALE and weight: kpt_density=3000                        
   0.00000000  0.00000000  0.00000000       0.005
   0.02321263  0.00116208  0.00122494       0.028
   0.04642526  0.00232416  0.00244988       0.028
   0.06963790  0.00348625  0.00367483       0.014
   0.02321263  0.02440378  0.00244989       0.028
   0.04642526  0.02556587  0.00367483       0.056
   0.06963790  0.02672795  0.00489977       0.056
  -0.04642526  0.02091754 -0.00122494       0.056
  -0.02321263  0.02207962  0.00000001       0.028
   0.04642526  0.04880757  0.00489978       0.028
   0.06963790  0.04996965  0.00612472       0.056
  -0.04642526  0.04415924  0.00000001       0.028
   0.06963790  0.07321135  0.00734967       0.014
   0.02321263  0.02440378  0.02572385       0.009
   0.04642526  0.02556587  0.02694879       0.028
   0.06963790  0.02672795  0.02817373       0.028
  -0.04642526  0.02091754  0.02204902       0.028
  -0.02321263  0.02207962  0.02327397       0.028
   0.04642526  0.04880757  0.02817374       0.028
   0.06963790  0.04996965  0.02939868       0.056
  -0.04642526  0.04415924  0.02327397       0.056
  -0.02321263  0.04532132  0.02449891       0.056
   0.06963790  0.07321135  0.03062363       0.028
  -0.04642526  0.06740094  0.02449892       0.056
  -0.02321263  0.06856303  0.02572386       0.028
  -0.04642526 -0.04880757  0.01837418       0.028
   0.04642526  0.04880757  0.05144770       0.009
   0.06963790  0.04996965  0.05267264       0.028
  -0.04642526  0.04415924  0.04654793       0.028
   0.06963790  0.07321135  0.05389759       0.028
  -0.04642526  0.06740094  0.04777288       0.028
   0.06963790  0.07321135  0.07717155       0.005
 
 k-points in reciprocal lattice and weights: kpt_density=3000                        
   0.00000000  0.00000000  0.00000000       0.005
   0.16666667 -0.00000000  0.00000000       0.028
   0.33333333 -0.00000000  0.00000000       0.028
   0.50000000  0.00000000  0.00000000       0.014
   0.16666667  0.16666667  0.00000000       0.028
   0.33333333  0.16666667 -0.00000000       0.056
   0.50000000  0.16666667  0.00000000       0.056
  -0.33333333  0.16666667 -0.00000000       0.056
  -0.16666667  0.16666667  0.00000000       0.028
   0.33333333  0.33333333 -0.00000000       0.028
   0.50000000  0.33333333  0.00000000       0.056
  -0.33333333  0.33333333 -0.00000000       0.028
   0.50000000  0.50000000  0.00000000       0.014
   0.16666667  0.16666667  0.16666667       0.009
   0.33333333  0.16666667  0.16666667       0.028
   0.50000000  0.16666667  0.16666667       0.028
  -0.33333333  0.16666667  0.16666667       0.028
  -0.16666667  0.16666667  0.16666667       0.028
   0.33333333  0.33333333  0.16666667       0.028
   0.50000000  0.33333333  0.16666667       0.056
  -0.33333333  0.33333333  0.16666667       0.056
  -0.16666667  0.33333333  0.16666667       0.056
   0.50000000  0.50000000  0.16666667       0.028
  -0.33333333  0.50000000  0.16666667       0.056
  -0.16666667  0.50000000  0.16666667       0.028
  -0.33333333 -0.33333333  0.16666667       0.028
   0.33333333  0.33333333  0.33333333       0.009
   0.50000000  0.33333333  0.33333333       0.028
  -0.33333333  0.33333333  0.33333333       0.028
   0.50000000  0.50000000  0.33333333       0.028
  -0.33333333  0.50000000  0.33333333       0.028
   0.50000000  0.50000000  0.50000000       0.005
 
 position of ions in fractional coordinates (direct lattice) 
   0.12500000  0.37500000  0.12500000
   0.62500000  0.37500000  0.12500000
   0.12500000  0.87500000  0.12500000
   0.62500000  0.87500000  0.12500000
   0.12500000  0.37500000  0.62500000
   0.62500000  0.37500000  0.62500000
   0.12500000  0.87500000  0.62500000
   0.62500000  0.87500000  0.62500000
   0.00000000  0.00000000  0.25000000
   0.50000000  0.00000000  0.25000000
   0.00000000  0.50000000  0.25000000
   0.50000000  0.50000000  0.25000000
   0.00000000  0.00000000  0.75000000
   0.50000000  0.00000000  0.75000000
   0.00000000  0.50000000  0.75000000
   0.50000000  0.50000000  0.75000000
   0.12500000  0.12500000  0.37500000
   0.62500000  0.12500000  0.37500000
   0.12500000  0.62500000  0.37500000
   0.62500000  0.62500000  0.37500000
   0.12500000  0.12500000  0.87500000
   0.62500000  0.12500000  0.87500000
   0.12500000  0.62500000  0.87500000
   0.62500000  0.62500000  0.87500000
   0.00000000  0.25000000  0.00000000
   0.50000000  0.25000000  0.00000000
   0.00000000  0.75000000  0.00000000
   0.50000000  0.75000000  0.00000000
   0.00000000  0.25000000  0.50000000
   0.50000000  0.25000000  0.50000000
   0.00000000  0.75000000  0.50000000
   0.50000000  0.75000000  0.50000000
   0.37500000  0.37500000  0.37500000
   0.87500000  0.37500000  0.37500000
   0.37500000  0.87500000  0.37500000
   0.87500000  0.87500000  0.37500000
   0.37500000  0.37500000  0.87500000
   0.87500000  0.37500000  0.87500000
   0.37500000  0.87500000  0.87500000
   0.87500000  0.87500000  0.87500000
   0.25000000  0.00000000  0.00000000
   0.75000000  0.00000000  0.00000000
   0.25000000  0.50000000  0.00000000
   0.75000000  0.50000000  0.00000000
   0.25000000  0.00000000  0.50000000
   0.75000000  0.00000000  0.50000000
   0.25000000  0.50000000  0.50000000
   0.75000000  0.50000000  0.50000000
   0.37500000  0.12500000  0.12500000
   0.87500000  0.12500000  0.12500000
   0.37500000  0.62500000  0.12500000
   0.87500000  0.62500000  0.12500000
   0.37500000  0.12500000  0.62500000
   0.87500000  0.12500000  0.62500000
   0.37500000  0.62500000  0.62500000
   0.87500000  0.62500000  0.62500000
   0.25000000  0.25000000  0.25000000
   0.75000000  0.25000000  0.25000000
   0.25000000  0.75000000  0.25000000
   0.75000000  0.75000000  0.25000000
   0.25000000  0.25000000  0.75000000
   0.75000000  0.25000000  0.75000000
   0.25000000  0.75000000  0.75000000
   0.75000000  0.75000000  0.75000000
 
 position of ions in cartesian coordinates  (Angst):
   0.71800037  2.64195392  0.89513486
   4.30799973  2.64195392  0.89513486
   0.53850091  6.22746291  0.89513486
   4.12850027  6.22746291  0.89513486
   0.53850091  2.45324266  4.47567429
   4.12850027  2.45324266  4.47567429
   0.35900144  6.03875164  4.47567429
   3.94900080  6.03875164  4.47567429
  -0.08974973 -0.09435563  1.79026972
   3.50024963 -0.09435563  1.79026972
  -0.26924920  3.49115335  1.79026972
   3.32075016  3.49115335  1.79026972
  -0.26924920 -0.28306690  5.37080915
   3.32075016 -0.28306690  5.37080915
  -0.44874866  3.30244209  5.37080915
   3.14125069  3.30244209  5.37080915
   0.71800037  0.75484380  2.68540458
   4.30799973  0.75484380  2.68540458
   0.53850091  4.34035278  2.68540458
   4.12850027  4.34035278  2.68540458
   0.53850091  0.56613253  6.26594401
   4.12850027  0.56613253  6.26594401
   0.35900144  4.15164152  6.26594401
   3.94900080  4.15164152  6.26594401
  -0.08974973  1.79275449  0.00000000
   3.50024963  1.79275449  0.00000000
  -0.26924920  5.37826348  0.00000000
   3.32075016  5.37826348  0.00000000
  -0.26924920  1.60404323  3.58053944
   3.32075016  1.60404323  3.58053944
  -0.44874866  5.18955221  3.58053944
   3.14125069  5.18955221  3.58053944
   2.42325032  2.54759829  2.68540458
   6.01324968  2.54759829  2.68540458
   2.24375086  6.13310727  2.68540458
   5.83375021  6.13310727  2.68540458
   2.24375086  2.35888703  6.26594401
   5.83375021  2.35888703  6.26594401
   2.06425139  5.94439601  6.26594401
   5.65425075  5.94439601  6.26594401
   1.79499968  0.00000000  0.00000000
   5.38499904  0.00000000  0.00000000
   1.61550021  3.58550898  0.00000000
   5.20549957  3.58550898  0.00000000
   1.61550021 -0.18871126  3.58053944
   5.20549957 -0.18871126  3.58053944
   1.43600075  3.39679772  3.58053944
   5.02600011  3.39679772  3.58053944
   2.60274979  0.84919943  0.89513486
   6.19274915  0.84919943  0.89513486
   2.42325032  4.43470841  0.89513486
   6.01324968  4.43470841  0.89513486
   2.42325032  0.66048817  4.47567429
   6.01324968  0.66048817  4.47567429
   2.24375086  4.24599715  4.47567429
   5.83375021  4.24599715  4.47567429
   1.61550021  1.69839886  1.79026972
   5.20549957  1.69839886  1.79026972
   1.43600075  5.28390784  1.79026972
   5.02600011  5.28390784  1.79026972
   1.43600075  1.50968760  5.37080915
   5.02600011  1.50968760  5.37080915
   1.25650128  5.09519658  5.37080915
   4.84650064  5.09519658  5.37080915
 


--------------------------------------------------------------------------------------------------------


 k-point  1 :   0.0000 0.0000 0.0000  plane waves:    6685
 k-point  2 :   0.1667-0.0000 0.0000  plane waves:    6704
 k-point  3 :   0.3333-0.0000 0.0000  plane waves:    6706
 k-point  4 :   0.5000 0.0000 0.0000  plane waves:    6712
 k-point  5 :   0.1667 0.1667 0.0000  plane waves:    6684
 k-point  6 :   0.3333 0.1667-0.0000  plane waves:    6706
 k-point  7 :   0.5000 0.1667 0.0000  plane waves:    6710
 k-point  8 :  -0.3333 0.1667-0.0000  plane waves:    6702
 k-point  9 :  -0.1667 0.1667 0.0000  plane waves:    6703
 k-point 10 :   0.3333 0.3333-0.0000  plane waves:    6692
 k-point 11 :   0.5000 0.3333 0.0000  plane waves:    6696
 k-point 12 :  -0.3333 0.3333-0.0000  plane waves:    6723
 k-point 13 :   0.5000 0.5000 0.0000  plane waves:    6714
 k-point 14 :   0.1667 0.1667 0.1667  plane waves:    6706
 k-point 15 :   0.3333 0.1667 0.1667  plane waves:    6705
 k-point 16 :   0.5000 0.1667 0.1667  plane waves:    6707
 k-point 17 :  -0.3333 0.1667 0.1667  plane waves:    6696
 k-point 18 :  -0.1667 0.1667 0.1667  plane waves:    6691
 k-point 19 :   0.3333 0.3333 0.1667  plane waves:    6718
 k-point 20 :   0.5000 0.3333 0.1667  plane waves:    6698
 k-point 21 :  -0.3333 0.3333 0.1667  plane waves:    6686
 k-point 22 :  -0.1667 0.3333 0.1667  plane waves:    6696
 k-point 23 :   0.5000 0.5000 0.1667  plane waves:    6708
 k-point 24 :  -0.3333 0.5000 0.1667  plane waves:    6695
 k-point 25 :  -0.1667 0.5000 0.1667  plane waves:    6700
 k-point 26 :  -0.3333-0.3333 0.1667  plane waves:    6706
 k-point 27 :   0.3333 0.3333 0.3333  plane waves:    6649
 k-point 28 :   0.5000 0.3333 0.3333  plane waves:    6675
 k-point 29 :  -0.3333 0.3333 0.3333  plane waves:    6691
 k-point 30 :   0.5000 0.5000 0.3333  plane waves:    6681
 k-point 31 :  -0.3333 0.5000 0.3333  plane waves:    6688
 k-point 32 :   0.5000 0.5000 0.5000  plane waves:    6702

 maximum and minimum number of plane-waves per node :      6723     6649

 maximum number of plane-waves:      6723
 maximum index in each direction: 
   IXMAX=   12   IYMAX=   12   IZMAX=   11
   IXMIN=  -12   IYMIN=  -12   IZMIN=  -12


 serial   3D FFT for wavefunctions
 parallel 3D FFT for charge:
    minimum data exchange during FFTs selected (reduces bandwidth)


 total amount of memory used by VASP MPI-rank0    83596. kBytes
=======================================================================

   base      :      30000. kBytes
   nonl-proj :      20742. kBytes
   fftplans  :       4537. kBytes
   grid      :       5806. kBytes
   one-center:        196. kBytes
   wavefun   :      22315. kBytes
 
     INWAV:  cpu time    0.0003: real time    0.0005
 Broyden mixing: mesh for mixing (old mesh)
   NGX = 23   NGY = 23   NGZ = 23
  (NGX  = 96   NGY  = 96   NGZ  = 96)
  gives a total of  12167 points

 initial charge density was supplied:
 charge density of overlapping atoms calculated
 number of electron     256.0000000 magnetization 
 keeping initial charge density in first step


--------------------------------------------------------------------------------------------------------


 Maximum index for augmentation-charges         1095 (set IRDMAX)


--------------------------------------------------------------------------------------------------------


 First call to EWALD:  gamma=   0.247
 Maximum number of real-space cells 3x 3x 3
 Maximum number of reciprocal cells 3x 3x 3

    FEWALD:  cpu time    0.0082: real time    0.0082


--------------------------------------- Iteration      1(   1)  ---------------------------------------


    POTLOK:  cpu time    0.0638: real time    0.1826
    SETDIJ:  cpu time    0.0467: real time    0.0469
     EDDAV:  cpu time   21.9734: real time   21.9847
       DOS:  cpu time    0.0073: real time    0.0073
    --------------------------------------------
      LOOP:  cpu time   22.0914: real time   22.2216

 eigenvalue-minimisations  : 12288
 total energy-change (2. order) : 0.5127568E+03  (-0.1135445E+05)
 number of electron     256.0000000 magnetization 
 augmentation part      256.0000000 magnetization 

 Free energy of the ion-electron system (eV)
  ---------------------------------------------------
  alpha Z        PSCENC =       905.16594893
  Ewald energy   TEWEN  =    -11060.83541089
  -Hartree energ DENC   =      -581.67469696
  -exchange      EXHF   =         0.00000000
  -V(xc)+E(xc)   XCENC  =       912.21465820
  PAW double counting   =      2421.21235816    -2494.84305711
  entropy T*S    EENTRO =        -0.01106844
  eigenvalues    EBANDS =       995.38573422
  atomic energy  EATOM  =      9416.14232778
  Solvation  Ediel_sol  =         0.00000000
  ---------------------------------------------------
  free energy    TOTEN  =       512.75679388 eV

  energy without entropy =      512.76786233  energy(sigma->0) =      512.76232811


--------------------------------------------------------------------------------------------------------




--------------------------------------- Iteration      1(   2)  ---------------------------------------


     EDDAV:  cpu time   27.5031: real time   27.5048
       DOS:  cpu time    0.0037: real time    0.0037
    --------------------------------------------
      LOOP:  cpu time   27.5067: real time   27.5085

 eigenvalue-minimisations  : 16224
 total energy-change (2. order) :-0.1066952E+04  (-0.1015398E+04)
 number of electron     256.0000000 magnetization 
 augmentation part      256.0000000 magnetization 

 Free energy of the ion-electron system (eV)
  ---------------------------------------------------
  alpha Z        PSCENC =       905.16594893
  Ewald energy   TEWEN  =    -11060.83541089
  -Hartree energ DENC   =      -581.67469696
  -exchange      EXHF   =         0.00000000
  -V(xc)+E(xc)   XCENC  =       912.21465820
  PAW double counting   =      2421.21235816    -2494.84305711
  entropy T*S    EENTRO =        -0.00000000
  eigenvalues    EBANDS =       -71.57771420
  atomic energy  EATOM  =      9416.14232778
  Solvation  Ediel_sol  =         0.00000000
  ---------------------------------------------------
  free energy    TOTEN  =      -554.19558610 eV

  energy without entropy =     -554.19558610  energy(sigma->0) =     -554.19558610


--------------------------------------------------------------------------------------------------------




--------------------------------------- Iteration      1(   3)  ---------------------------------------


     EDDAV:  cpu time   27.4737: real time   27.4751
       DOS:  cpu time    0.0037: real time    0.0037
    --------------------------------------------
      LOOP:  cpu time   27.4774: real time   27.4788

 eigenvalue-minimisations  : 16224
 total energy-change (2. order) :-0.4228065E+02  (-0.4201413E+02)
 number of electron     256.0000000 magnetization 
 augmentation part      256.0000000 magnetization 

 Free energy of the ion-electron system (eV)
  ---------------------------------------------------
  alpha Z        PSCENC =       905.16594893
  Ewald energy   TEWEN  =    -11060.83541089
  -Hartree energ DENC   =      -581.67469696
  -exchange      EXHF   =         0.00000000
  -V(xc)+E(xc)   XCENC  =       912.21465820
  PAW double counting   =      2421.21235816    -2494.84305711
  entropy T*S    EENTRO =        -0.00000000
  eigenvalues    EBANDS =      -113.85836695
  atomic energy  EATOM  =      9416.14232778
  Solvation  Ediel_sol  =         0.00000000
  ---------------------------------------------------
  free energy    TOTEN  =      -596.47623884 eV

  energy without entropy =     -596.47623884  energy(sigma->0) =     -596.47623884


--------------------------------------------------------------------------------------------------------




--------------------------------------- Iteration      1(   4)  ---------------------------------------


     EDDAV:  cpu time   26.7402: real time   26.7415
       DOS:  cpu time    0.0050: real time    0.0050
    --------------------------------------------
      LOOP:  cpu time   26.7452: real time   26.7465

 eigenvalue-minimisations  : 16032
 total energy-change (2. order) :-0.4629674E+00  (-0.4619541E+00)
 number of electron     256.0000000 magnetization 
 augmentation part      256.0000000 magnetization 

 Free energy of the ion-electron system (eV)
  ---------------------------------------------------
  alpha Z        PSCENC =       905.16594893
  Ewald energy   TEWEN  =    -11060.83541089
  -Hartree energ DENC   =      -581.67469696
  -exchange      EXHF   =         0.00000000
  -V(xc)+E(xc)   XCENC  =       912.21465820
  PAW double counting   =      2421.21235816    -2494.84305711
  entropy T*S    EENTRO =        -0.00000000
  eigenvalues    EBANDS =      -114.32133440
  atomic energy  EATOM  =      9416.14232778
  Solvation  Ediel_sol  =         0.00000000
  ---------------------------------------------------
  free energy    TOTEN  =      -596.93920629 eV

  energy without entropy =     -596.93920629  energy(sigma->0) =     -596.93920629


--------------------------------------------------------------------------------------------------------




--------------------------------------- Iteration      1(   5)  ---------------------------------------


     EDDAV:  cpu time   26.0942: real time   26.0955
       DOS:  cpu time    0.0040: real time    0.0040
    CHARGE:  cpu time    0.6525: real time    0.6527
    MIXING:  cpu time    0.0043: real time    0.0043
    --------------------------------------------
      LOOP:  cpu time   26.7551: real time   26.7566

 eigenvalue-minimisations  : 15360
 total energy-change (2. order) :-0.1096649E-01  (-0.1096144E-01)
 number of electron     255.9999993 magnetization 
 augmentation part        6.2264192 magnetization 

 Broyden mixing:
  rms(total) = 0.26767E+01    rms(broyden)= 0.26761E+01
  rms(prec ) = 0.39182E+01
  weight for this iteration     100.00

 Free energy of the ion-electron system (eV)
  ---------------------------------------------------
  alpha Z        PSCENC =       905.16594893
  Ewald energy   TEWEN  =    -11060.83541089
  -Hartree energ DENC   =      -581.67469696
  -exchange      EXHF   =         0.00000000
  -V(xc)+E(xc)   XCENC  =       912.21465820
  PAW double counting   =      2421.21235816    -2494.84305711
  entropy T*S    EENTRO =        -0.00000000
  eigenvalues    EBANDS =      -114.33230089
  atomic energy  EATOM  =      9416.14232778
  Solvation  Ediel_sol  =         0.00000000
  ---------------------------------------------------
  free energy    TOTEN  =      -596.95017278 eV

  energy without entropy =     -596.95017278  energy(sigma->0) =     -596.95017278


--------------------------------------------------------------------------------------------------------




--------------------------------------- Iteration      1(   6)  ---------------------------------------


    POTLOK:  cpu time    0.0827: real time    0.0827
    SETDIJ:  cpu time    0.0410: real time    0.0410
     EDDAV:  cpu time   25.6788: real time   25.6802
       DOS:  cpu time    0.0037: real time    0.0037
    CHARGE:  cpu time    0.6467: real time    0.6467
    MIXING:  cpu time    0.0041: real time    0.0040
    --------------------------------------------
      LOOP:  cpu time   26.4570: real time   26.4583

 eigenvalue-minimisations  : 14336
 total energy-change (2. order) : 0.1515316E+02  (-0.1021157E+01)
 number of electron     255.9999993 magnetization 
 augmentation part        6.0818695 magnetization 

 Broyden mixing:
  rms(total) = 0.14692E+01    rms(broyden)= 0.14692E+01
  rms(prec ) = 0.21293E+01
  weight for this iteration     100.00

 eigenvalues of (default mixing * dielectric matrix)
  average eigenvalue GAMMA=   2.1693
  2.1693

 Free energy of the ion-electron system (eV)
  ---------------------------------------------------
  alpha Z        PSCENC =       905.16594893
  Ewald energy   TEWEN  =    -11060.83541089
  -Hartree energ DENC   =      -703.58617955
  -exchange      EXHF   =         0.00000000
  -V(xc)+E(xc)   XCENC  =       923.51311685
  PAW double counting   =      3136.44225568    -3214.32260901
  entropy T*S    EENTRO =        -0.00000000
  eigenvalues    EBANDS =        15.68353949
  atomic energy  EATOM  =      9416.14232778
  Solvation  Ediel_sol  =         0.00000000
  ---------------------------------------------------
  free energy    TOTEN  =      -581.79701072 eV

  energy without entropy =     -581.79701072  energy(sigma->0) =     -581.79701072


--------------------------------------------------------------------------------------------------------




--------------------------------------- Iteration      1(   7)  ---------------------------------------


    POTLOK:  cpu time    0.0757: real time    0.0757
    SETDIJ:  cpu time    0.0425: real time    0.0425
     EDDAV:  cpu time   26.9738: real time   26.9752
       DOS:  cpu time    0.0043: real time    0.0043
    CHARGE:  cpu time    0.6506: real time    0.6506
    MIXING:  cpu time    0.0046: real time    0.0046
    --------------------------------------------
      LOOP:  cpu time   27.7516: real time   27.7530

 eigenvalue-minimisations  : 15296
 total energy-change (2. order) : 0.5076208E+01  (-0.1199522E+01)
 number of electron     255.9999994 magnetization 
 augmentation part        5.9287489 magnetization 

 Broyden mixing:
  rms(total) = 0.20059E+00    rms(broyden)= 0.19960E+00
  rms(prec ) = 0.24681E+00
  weight for this iteration     100.00

 eigenvalues of (default mixing * dielectric matrix)
  average eigenvalue GAMMA=   2.2660
  2.0616  2.4704

 Free energy of the ion-electron system (eV)
  ---------------------------------------------------
  alpha Z        PSCENC =       905.16594893
  Ewald energy   TEWEN  =    -11060.83541089
  -Hartree energ DENC   =      -859.30821136
  -exchange      EXHF   =         0.00000000
  -V(xc)+E(xc)   XCENC  =       938.12697325
  PAW double counting   =      4108.53025122    -4190.45103735
  entropy T*S    EENTRO =        -0.00000000
  eigenvalues    EBANDS =       165.90835601
  atomic energy  EATOM  =      9416.14232778
  Solvation  Ediel_sol  =         0.00000000
  ---------------------------------------------------
  free energy    TOTEN  =      -576.72080241 eV

  energy without entropy =     -576.72080241  energy(sigma->0) =     -576.72080241


--------------------------------------------------------------------------------------------------------




--------------------------------------- Iteration      1(   8)  ---------------------------------------


    POTLOK:  cpu time    0.0565: real time    0.0565
    SETDIJ:  cpu time    0.0400: real time    0.0400
     EDDAV:  cpu time   25.9827: real time   25.9840
       DOS:  cpu time    0.0038: real time    0.0038
    CHARGE:  cpu time    0.6448: real time    0.6449
    MIXING:  cpu time    0.0044: real time    0.0044
    --------------------------------------------
      LOOP:  cpu time   26.7322: real time   26.7336

 eigenvalue-minimisations  : 15456
 total energy-change (2. order) :-0.6869139E-01  (-0.3912079E-01)
 number of electron     255.9999994 magnetization 
 augmentation part        5.9356922 magnetization 

 Broyden mixing:
  rms(total) = 0.23997E-01    rms(broyden)= 0.23734E-01
  rms(prec ) = 0.29780E-01
  weight for this iteration     100.00

 eigenvalues of (default mixing * dielectric matrix)
  average eigenvalue GAMMA=   2.0565
  1.4522  2.6491  2.0680

 Free energy of the ion-electron system (eV)
  ---------------------------------------------------
  alpha Z        PSCENC =       905.16594893
  Ewald energy   TEWEN  =    -11060.83541089
  -Hartree energ DENC   =      -860.93800188
  -exchange      EXHF   =         0.00000000
  -V(xc)+E(xc)   XCENC  =       938.32547630
  PAW double counting   =      4171.21347581    -4252.05874074
  entropy T*S    EENTRO =        -0.00000000
  eigenvalues    EBANDS =       166.19543089
  atomic energy  EATOM  =      9416.14232778
  Solvation  Ediel_sol  =         0.00000000
  ---------------------------------------------------
  free energy    TOTEN  =      -576.78949380 eV

  energy without entropy =     -576.78949380  energy(sigma->0) =     -576.78949380


--------------------------------------------------------------------------------------------------------




--------------------------------------- Iteration      1(   9)  ---------------------------------------


    POTLOK:  cpu time    0.0591: real time    0.0591
    SETDIJ:  cpu time    0.0407: real time    0.0407
     EDDAV:  cpu time   26.6108: real time   26.6122
       DOS:  cpu time    0.0039: real time    0.0039
    CHARGE:  cpu time    0.6445: real time    0.6445
    MIXING:  cpu time    0.0044: real time    0.0044
    --------------------------------------------
      LOOP:  cpu time   27.3634: real time   27.3648

 eigenvalue-minimisations  : 15808
 total energy-change (2. order) :-0.2567959E-02  (-0.4985193E-03)
 number of electron     255.9999994 magnetization 
 augmentation part        5.9342504 magnetization 

 Broyden mixing:
  rms(total) = 0.10505E-01    rms(broyden)= 0.10483E-01
  rms(prec ) = 0.12875E-01
  weight for this iteration     100.00

 eigenvalues of (default mixing * dielectric matrix)
  average eigenvalue GAMMA=   1.9878
  0.9767  2.6683  2.3093  1.9968

 Free energy of the ion-electron system (eV)
  ---------------------------------------------------
  alpha Z        PSCENC =       905.16594893
  Ewald energy   TEWEN  =    -11060.83541089
  -Hartree energ DENC   =      -861.47804146
  -exchange      EXHF   =         0.00000000
  -V(xc)+E(xc)   XCENC  =       938.37659261
  PAW double counting   =      4172.87091120    -4253.65193756
  entropy T*S    EENTRO =        -0.00000000
  eigenvalues    EBANDS =       166.61754763
  atomic energy  EATOM  =      9416.14232778
  Solvation  Ediel_sol  =         0.00000000
  ---------------------------------------------------
  free energy    TOTEN  =      -576.79206176 eV

  energy without entropy =     -576.79206176  energy(sigma->0) =     -576.79206176


--------------------------------------------------------------------------------------------------------




--------------------------------------- Iteration      1(  10)  ---------------------------------------


    POTLOK:  cpu time    0.0715: real time    0.0716
    SETDIJ:  cpu time    0.0404: real time    0.0404
     EDDAV:  cpu time   25.9250: real time   25.9263
       DOS:  cpu time    0.0038: real time    0.0038
    CHARGE:  cpu time    0.6486: real time    0.6486
    MIXING:  cpu time    0.0046: real time    0.0046
    --------------------------------------------
      LOOP:  cpu time   26.6938: real time   26.6952

 eigenvalue-minimisations  : 14912
 total energy-change (2. order) :-0.5187465E-03  (-0.3350828E-04)
 number of electron     255.9999994 magnetization 
 augmentation part        5.9341136 magnetization 

 Broyden mixing:
  rms(total) = 0.15111E-02    rms(broyden)= 0.15021E-02
  rms(prec ) = 0.19457E-02
  weight for this iteration     100.00

 eigenvalues of (default mixing * dielectric matrix)
  average eigenvalue GAMMA=   1.9452
  2.8931  2.5433  2.0463  0.9856  1.2580

 Free energy of the ion-electron system (eV)
  ---------------------------------------------------
  alpha Z        PSCENC =       905.16594893
  Ewald energy   TEWEN  =    -11060.83541089
  -Hartree energ DENC   =      -861.84576977
  -exchange      EXHF   =         0.00000000
  -V(xc)+E(xc)   XCENC  =       938.40827137
  PAW double counting   =      4169.84068437    -4250.62573406
  entropy T*S    EENTRO =        -0.00000000
  eigenvalues    EBANDS =       166.95710176
  atomic energy  EATOM  =      9416.14232778
  Solvation  Ediel_sol  =         0.00000000
  ---------------------------------------------------
  free energy    TOTEN  =      -576.79258051 eV

  energy without entropy =     -576.79258051  energy(sigma->0) =     -576.79258051


--------------------------------------------------------------------------------------------------------




--------------------------------------- Iteration      1(  11)  ---------------------------------------


    POTLOK:  cpu time    0.0591: real time    0.0591
    SETDIJ:  cpu time    0.0399: real time    0.0399
     EDDAV:  cpu time   27.5057: real time   27.5071
       DOS:  cpu time    0.0039: real time    0.0039
    CHARGE:  cpu time    0.6465: real time    0.6465
    MIXING:  cpu time    0.0047: real time    0.0047
    --------------------------------------------
      LOOP:  cpu time   28.2597: real time   28.2611

 eigenvalue-minimisations  : 15904
 total energy-change (2. order) :-0.2647002E-04  (-0.2007425E-05)
 number of electron     255.9999994 magnetization 
 augmentation part        5.9340201 magnetization 

 Broyden mixing:
  rms(total) = 0.50460E-03    rms(broyden)= 0.50228E-03
  rms(prec ) = 0.59642E-03
  weight for this iteration     100.00

 eigenvalues of (default mixing * dielectric matrix)
  average eigenvalue GAMMA=   1.9770
  2.8587  2.4783  2.4783  2.0445  0.9670  1.0350

 Free energy of the ion-electron system (eV)
  ---------------------------------------------------
  alpha Z        PSCENC =       905.16594893
  Ewald energy   TEWEN  =    -11060.83541089
  -Hartree energ DENC   =      -861.94558856
  -exchange      EXHF   =         0.00000000
  -V(xc)+E(xc)   XCENC  =       938.41696045
  PAW double counting   =      4169.38934580    -4250.17586250
  entropy T*S    EENTRO =        -0.00000000
  eigenvalues    EBANDS =       167.04967200
  atomic energy  EATOM  =      9416.14232778
  Solvation  Ediel_sol  =         0.00000000
  ---------------------------------------------------
  free energy    TOTEN  =      -576.79260698 eV

  energy without entropy =     -576.79260698  energy(sigma->0) =     -576.79260698


--------------------------------------------------------------------------------------------------------




--------------------------------------- Iteration      1(  12)  ---------------------------------------


    POTLOK:  cpu time    0.0711: real time    0.0711
    SETDIJ:  cpu time    0.0456: real time    0.0456
     EDDAV:  cpu time   26.7198: real time   26.7211
       DOS:  cpu time    0.0039: real time    0.0039
    CHARGE:  cpu time    0.6486: real time    0.6487
    MIXING:  cpu time    0.0051: real time    0.0051
    --------------------------------------------
      LOOP:  cpu time   27.4941: real time   27.4956

 eigenvalue-minimisations  : 15680
 total energy-change (2. order) : 0.3046916E-06  (-0.6208766E-07)
 number of electron     255.9999994 magnetization 
 augmentation part        5.9340191 magnetization 

 Broyden mixing:
  rms(total) = 0.90955E-04    rms(broyden)= 0.87433E-04
  rms(prec ) = 0.10160E-03
  weight for this iteration     100.00

 eigenvalues of (default mixing * dielectric matrix)
  average eigenvalue GAMMA=   1.9646
  1.0058  1.0058  2.8620  2.5018  2.1597  2.1597  2.0570

 Free energy of the ion-electron system (eV)
  ---------------------------------------------------
  alpha Z        PSCENC =       905.16594893
  Ewald energy   TEWEN  =    -11060.83541089
  -Hartree energ DENC   =      -861.93654005
  -exchange      EXHF   =         0.00000000
  -V(xc)+E(xc)   XCENC  =       938.41606932
  PAW double counting   =      4169.42528755    -4250.21061332
  entropy T*S    EENTRO =        -0.00000000
  eigenvalues    EBANDS =       167.04032400
  atomic energy  EATOM  =      9416.14232778
  Solvation  Ediel_sol  =         0.00000000
  ---------------------------------------------------
  free energy    TOTEN  =      -576.79260667 eV

  energy without entropy =     -576.79260667  energy(sigma->0) =     -576.79260667


--------------------------------------------------------------------------------------------------------




--------------------------------------- Iteration      1(  13)  ---------------------------------------


    POTLOK:  cpu time    0.0619: real time    0.0619
    SETDIJ:  cpu time    0.0402: real time    0.0402
     EDDAV:  cpu time   26.1302: real time   26.1315
       DOS:  cpu time    0.0038: real time    0.0038
    CHARGE:  cpu time    0.6443: real time    0.6444
    MIXING:  cpu time    0.0051: real time    0.0052
    --------------------------------------------
      LOOP:  cpu time   26.8855: real time   26.8869

 eigenvalue-minimisations  : 15520
 total energy-change (2. order) :-0.2051274E-07  (-0.4665644E-08)
 number of electron     255.9999994 magnetization 
 augmentation part        5.9340138 magnetization 

 Broyden mixing:
  rms(total) = 0.44547E-04    rms(broyden)= 0.37456E-04
  rms(prec ) = 0.44142E-04
  weight for this iteration     100.00
  WARNING: grid for Broyden might be to small

 eigenvalues of (default mixing * dielectric matrix)
  average eigenvalue GAMMA=   1.8976
  2.9482  2.6281  2.4465  2.0775  1.9135  1.0067  1.0067  1.1535

 Free energy of the ion-electron system (eV)
  ---------------------------------------------------
  alpha Z        PSCENC =       905.16594893
  Ewald energy   TEWEN  =    -11060.83541089
  -Hartree energ DENC   =      -861.93709269
  -exchange      EXHF   =         0.00000000
  -V(xc)+E(xc)   XCENC  =       938.41613585
  PAW double counting   =      4169.43632571    -4250.22167801
  entropy T*S    EENTRO =        -0.00000000
  eigenvalues    EBANDS =       167.04083663
  atomic energy  EATOM  =      9416.14232778
  Solvation  Ediel_sol  =         0.00000000
  ---------------------------------------------------
  free energy    TOTEN  =      -576.79260669 eV

  energy without entropy =     -576.79260669  energy(sigma->0) =     -576.79260669


--------------------------------------------------------------------------------------------------------




--------------------------------------- Iteration      1(  14)  ---------------------------------------


    POTLOK:  cpu time    0.0749: real time    0.0749
    SETDIJ:  cpu time    0.0395: real time    0.0395
     EDDAV:  cpu time   21.2579: real time   21.2589
       DOS:  cpu time    0.0037: real time    0.0038
    CHARGE:  cpu time    0.6528: real time    0.6529
    MIXING:  cpu time    0.0056: real time    0.0056
    --------------------------------------------
      LOOP:  cpu time   22.0344: real time   22.0356

 eigenvalue-minimisations  : 11232
 total energy-change (2. order) :-0.5657421E-07  (-0.8510044E-09)
 number of electron     255.9999994 magnetization 
 augmentation part        5.9340149 magnetization 

 Broyden mixing:
  rms(total) = 0.24196E-04    rms(broyden)= 0.26352E-05
  rms(prec ) = 0.31918E-05
  weight for this iteration     100.00
  WARNING: grid for Broyden might be to small

 eigenvalues of (default mixing * dielectric matrix)
  average eigenvalue GAMMA=   1.9007
  2.9162  2.5919  2.5919  2.1069  2.1069  1.7455  0.9947  1.0260  1.0260

 Free energy of the ion-electron system (eV)
  ---------------------------------------------------
  alpha Z        PSCENC =       905.16594893
  Ewald energy   TEWEN  =    -11060.83541089
  -Hartree energ DENC   =      -861.93605969
  -exchange      EXHF   =         0.00000000
  -V(xc)+E(xc)   XCENC  =       938.41603789
  PAW double counting   =      4169.43197332    -4250.21719752
  entropy T*S    EENTRO =        -0.00000000
  eigenvalues    EBANDS =       167.03977342
  atomic energy  EATOM  =      9416.14232778
  Solvation  Ediel_sol  =         0.00000000
  ---------------------------------------------------
  free energy    TOTEN  =      -576.79260675 eV

  energy without entropy =     -576.79260675  energy(sigma->0) =     -576.79260675


--------------------------------------------------------------------------------------------------------




--------------------------------------- Iteration      1(  15)  ---------------------------------------


    POTLOK:  cpu time    0.0651: real time    0.0651
    SETDIJ:  cpu time    0.0410: real time    0.0410
     EDDAV:  cpu time   19.8708: real time   19.8718
       DOS:  cpu time    0.0038: real time    0.0038
    --------------------------------------------
      LOOP:  cpu time   19.9807: real time   19.9817

 eigenvalue-minimisations  :  9408
 total energy-change (2. order) : 0.9762516E-08  (-0.4708383E-10)
 number of electron     255.9999994 magnetization 
 augmentation part        5.9340149 magnetization 

 Free energy of the ion-electron system (eV)
  ---------------------------------------------------
  alpha Z        PSCENC =       905.16594893
  Ewald energy   TEWEN  =    -11060.83541089
  -Hartree energ DENC   =      -861.93616829
  -exchange      EXHF   =         0.00000000
  -V(xc)+E(xc)   XCENC  =       938.41604872
  PAW double counting   =      4169.43396293    -4250.21919235
  entropy T*S    EENTRO =        -0.00000000
  eigenvalues    EBANDS =       167.03987642
  atomic energy  EATOM  =      9416.14232778
  Solvation  Ediel_sol  =         0.00000000
  ---------------------------------------------------
  free energy    TOTEN  =      -576.79260674 eV

  energy without entropy =     -576.79260674  energy(sigma->0) =     -576.79260674


--------------------------------------------------------------------------------------------------------




 average (electrostatic) potential at core
  the test charge radii are     0.6991
  (the norm of the test charge is              1.0000)
       1 -45.6076       2 -45.6076       3 -45.6076       4 -45.6076       5 -45.6076
       6 -45.6076       7 -45.6076       8 -45.6076       9 -45.6076      10 -45.6076
      11 -45.6076      12 -45.6076      13 -45.6076      14 -45.6076      15 -45.6076
      16 -45.6076      17 -45.6076      18 -45.6076      19 -45.6076      20 -45.6076
      21 -45.6076      22 -45.6076      23 -45.6076      24 -45.6076      25 -45.6076
      26 -45.6076      27 -45.6076      28 -45.6076      29 -45.6076      30 -45.6076
      31 -45.6076      32 -45.6076      33 -45.6076      34 -45.6076      35 -45.6076
      36 -45.6076      37 -45.6076      38 -45.6076      39 -45.6076      40 -45.6076
      41 -45.6076      42 -45.6076      43 -45.6076      44 -45.6076      45 -45.6076
      46 -45.6076      47 -45.6076      48 -45.6076      49 -45.6076      50 -45.6076
      51 -45.6076      52 -45.6076      53 -45.6076      54 -45.6076      55 -45.6076
      56 -45.6076      57 -45.6076      58 -45.6076      59 -45.6076      60 -45.6076
      61 -45.6076      62 -45.6076      63 -45.6076      64 -45.6076
 
 
 
 E-fermi :   9.9496     XC(G=0): -13.1439     alpha+bet :-17.4255


 k-point     1 :       0.0000    0.0000    0.0000
  band No.  band energies     occupation 
      1     -11.7646      2.00000
      2      -9.5060      2.00000
      3      -9.5060      2.00000
      4      -9.5060      2.00000
      5      -9.5060      2.00000
      6      -9.5060      2.00000
      7      -9.5060      2.00000
      8      -7.6148      2.00000
      9      -7.6148      2.00000
     10      -7.6148      2.00000
     11      -7.6148      2.00000
     12      -7.6148      2.00000
     13      -7.6148      2.00000
     14      -7.1010      2.00000
     15      -7.1010      2.00000
     16      -7.1010      2.00000
     17      -7.1010      2.00000
     18      -7.1010      2.00000
     19      -7.1010      2.00000
     20      -6.4386      2.00000
     21      -6.4386      2.00000
     22      -6.4386      2.00000
     23      -4.9326      2.00000
     24      -3.7737      2.00000
     25      -3.6538      2.00000
     26      -3.6538      2.00000
     27      -3.6538      2.00000
     28      -3.4796      2.00000
     29      -3.4796      2.00000
     30      -3.4796      2.00000
     31      -3.0368      2.00000
     32      -3.0368      2.00000
     33      -3.0368      2.00000
     34      -3.0368      2.00000
     35      -3.0368      2.00000
     36      -3.0368      2.00000
     37      -2.8228      2.00000
     38      -2.8228      2.00000
     39      -2.8228      2.00000
     40      -1.7186      2.00000
     41      -1.7186      2.00000
     42      -1.7186      2.00000
     43      -1.7186      2.00000
     44      -1.7186      2.00000
     45      -1.7186      2.00000
     46       0.6115      2.00000
     47       0.6115      2.00000
     48       0.6115      2.00000
     49       0.6115      2.00000
     50       0.6115      2.00000
     51       0.6115      2.00000
     52       1.0826      2.00000
     53       1.0826      2.00000
     54       1.0826      2.00000
     55       1.0826      2.00000
     56       1.0826      2.00000
     57       1.0826      2.00000
     58       1.3697      2.00000
     59       1.3697      2.00000
     60       1.3697      2.00000
     61       1.3697      2.00000
     62       1.3697      2.00000
     63       1.3697      2.00000
     64       1.3866      2.00000
     65       1.3866      2.00000
     66       1.3866      2.00000
     67       1.3866      2.00000
     68       1.3866      2.00000
     69       1.3866      2.00000
     70       1.8366      2.00000
     71       1.8366      2.00000
     72       1.8366      2.00000
     73       1.8366      2.00000
     74       1.8366      2.00000
     75       1.8366      2.00000
     76       2.3634      2.00000
     77       2.3634      2.00000
[...]
      4.128500  0.566133  6.265944    -0.100488   -0.005031    0.095451  
      0.359001  4.151642  6.265944     0.100488    0.005031   -0.095451  
      3.949001  4.151642  6.265944     0.100488    0.005031   -0.095451  
     -0.089750  1.792754  0.000000    -0.128087   -0.006412    0.121666  
      3.500250  1.792754  0.000000    -0.128087   -0.006412    0.121666  
     -0.269249  5.378263  0.000000     0.128087    0.006412   -0.121666  
      3.320750  5.378263  0.000000     0.128087    0.006412   -0.121666  
     -0.269249  1.604043  3.580539    -0.128087   -0.006412    0.121666  
      3.320750  1.604043  3.580539    -0.128087   -0.006412    0.121666  
     -0.448749  5.189552  3.580539     0.128087    0.006412   -0.121666  
      3.141251  5.189552  3.580539     0.128087    0.006412   -0.121666  
      2.423250  2.547598  2.685405    -0.079426   -0.003976    0.075444  
      6.013250  2.547598  2.685405    -0.079426   -0.003976    0.075444  
      2.243751  6.133107  2.685405     0.079426    0.003976   -0.075444  
      5.833750  6.133107  2.685405     0.079426    0.003976   -0.075444  
      2.243751  2.358887  6.265944    -0.079426   -0.003976    0.075444  
      5.833750  2.358887  6.265944    -0.079426   -0.003976    0.075444  
      2.064251  5.944396  6.265944     0.079426    0.003976   -0.075444  
      5.654251  5.944396  6.265944     0.079426    0.003976   -0.075444  
      1.795000  0.000000  0.000000     0.000197    0.000010   -0.000187  
      5.384999  0.000000  0.000000     0.000197    0.000010   -0.000187  
      1.615500  3.585509  0.000000    -0.000197   -0.000010    0.000187  
      5.205500  3.585509  0.000000    -0.000197   -0.000010    0.000187  
      1.615500 -0.188711  3.580539     0.000197    0.000010   -0.000187  
      5.205500 -0.188711  3.580539     0.000197    0.000010   -0.000187  
      1.436001  3.396798  3.580539    -0.000197   -0.000010    0.000187  
      5.026000  3.396798  3.580539    -0.000197   -0.000010    0.000187  
      2.602750  0.849199  0.895135    -0.100488   -0.005031    0.095451  
      6.192749  0.849199  0.895135    -0.100488   -0.005031    0.095451  
      2.423250  4.434708  0.895135     0.100488    0.005031   -0.095451  
      6.013250  4.434708  0.895135     0.100488    0.005031   -0.095451  
      2.423250  0.660488  4.475674    -0.100488   -0.005031    0.095451  
      6.013250  0.660488  4.475674    -0.100488   -0.005031    0.095451  
      2.243751  4.245997  4.475674     0.100488    0.005031   -0.095451  
      5.833750  4.245997  4.475674     0.100488    0.005031   -0.095451  
      1.615500  1.698399  1.790270    -0.128087   -0.006412    0.121666  
      5.205500  1.698399  1.790270    -0.128087   -0.006412    0.121666  
      1.436001  5.283908  1.790270     0.128087    0.006412   -0.121666  
      5.026000  5.283908  1.790270     0.128087    0.006412   -0.121666  
      1.436001  1.509688  5.370809    -0.128087   -0.006412    0.121666  
      5.026000  1.509688  5.370809    -0.128087   -0.006412    0.121666  
      1.256501  5.095197  5.370809     0.128087    0.006412   -0.121666  
      4.846501  5.095197  5.370809     0.128087    0.006412   -0.121666  
 
 190 f  =    0.000009 THz     0.000054 2PiTHz    0.000286 cm-1     0.000035 meV
             X         Y         Z           dx          dy          dz
      0.718000  2.641954  0.895135    -0.084359   -0.016924    0.090676  
      4.308000  2.641954  0.895135    -0.084359   -0.016924    0.090676  
      0.538501  6.227463  0.895135    -0.084359   -0.016924    0.090676  
      4.128500  6.227463  0.895135    -0.084359   -0.016924    0.090676  
      0.538501  2.453243  4.475674    -0.084359   -0.016924    0.090676  
      4.128500  2.453243  4.475674    -0.084359   -0.016924    0.090676  
      0.359001  6.038752  4.475674    -0.084359   -0.016924    0.090676  
      3.949001  6.038752  4.475674    -0.084359   -0.016924    0.090676  
     -0.089750 -0.094356  1.790270    -0.084359   -0.016924    0.090676  
      3.500250 -0.094356  1.790270    -0.084359   -0.016924    0.090676  
     -0.269249  3.491153  1.790270    -0.084359   -0.016924    0.090676  
      3.320750  3.491153  1.790270    -0.084359   -0.016924    0.090676  
     -0.269249 -0.283067  5.370809    -0.084359   -0.016924    0.090676  
      3.320750 -0.283067  5.370809    -0.084359   -0.016924    0.090676  
     -0.448749  3.302442  5.370809    -0.084359   -0.016924    0.090676  
      3.141251  3.302442  5.370809    -0.084359   -0.016924    0.090676  
      0.718000  0.754844  2.685405    -0.084359   -0.016924    0.090676  
      4.308000  0.754844  2.685405    -0.084359   -0.016924    0.090676  
      0.538501  4.340353  2.685405    -0.084359   -0.016924    0.090676  
      4.128500  4.340353  2.685405    -0.084359   -0.016924    0.090676  
      0.538501  0.566133  6.265944    -0.084359   -0.016924    0.090676  
      4.128500  0.566133  6.265944    -0.084359   -0.016924    0.090676  
      0.359001  4.151642  6.265944    -0.084359   -0.016924    0.090676  
      3.949001  4.151642  6.265944    -0.084359   -0.016924    0.090676  
     -0.089750  1.792754  0.000000    -0.084359   -0.016924    0.090676  
      3.500250  1.792754  0.000000    -0.084359   -0.016924    0.090676  
     -0.269249  5.378263  0.000000    -0.084359   -0.016924    0.090676  
      3.320750  5.378263  0.000000    -0.084359   -0.016924    0.090676  
     -0.269249  1.604043  3.580539    -0.084359   -0.016924    0.090676  
      3.320750  1.604043  3.580539    -0.084359   -0.016924    0.090676  
     -0.448749  5.189552  3.580539    -0.084359   -0.016924    0.090676  
      3.141251  5.189552  3.580539    -0.084359   -0.016924    0.090676  
      2.423250  2.547598  2.685405    -0.084359   -0.016924    0.090676  
      6.013250  2.547598  2.685405    -0.084359   -0.016924    0.090676  
      2.243751  6.133107  2.685405    -0.084359   -0.016924    0.090676  
      5.833750  6.133107  2.685405    -0.084359   -0.016924    0.090676  
      2.243751  2.358887  6.265944    -0.084359   -0.016924    0.090676  
      5.833750  2.358887  6.265944    -0.084359   -0.016924    0.090676  
      2.064251  5.944396  6.265944    -0.084359   -0.016924    0.090676  
      5.654251  5.944396  6.265944    -0.084359   -0.016924    0.090676  
      1.795000  0.000000  0.000000    -0.084359   -0.016924    0.090676  
      5.384999  0.000000  0.000000    -0.084359   -0.016924    0.090676  
      1.615500  3.585509  0.000000    -0.084359   -0.016924    0.090676  
      5.205500  3.585509  0.000000    -0.084359   -0.016924    0.090676  
      1.615500 -0.188711  3.580539    -0.084359   -0.016924    0.090676  
      5.205500 -0.188711  3.580539    -0.084359   -0.016924    0.090676  
      1.436001  3.396798  3.580539    -0.084359   -0.016924    0.090676  
      5.026000  3.396798  3.580539    -0.084359   -0.016924    0.090676  
      2.602750  0.849199  0.895135    -0.084359   -0.016924    0.090676  
      6.192749  0.849199  0.895135    -0.084359   -0.016924    0.090676  
      2.423250  4.434708  0.895135    -0.084359   -0.016924    0.090676  
      6.013250  4.434708  0.895135    -0.084359   -0.016924    0.090676  
      2.423250  0.660488  4.475674    -0.084359   -0.016924    0.090676  
      6.013250  0.660488  4.475674    -0.084359   -0.016924    0.090676  
      2.243751  4.245997  4.475674    -0.084359   -0.016924    0.090676  
      5.833750  4.245997  4.475674    -0.084359   -0.016924    0.090676  
      1.615500  1.698399  1.790270    -0.084359   -0.016924    0.090676  
      5.205500  1.698399  1.790270    -0.084359   -0.016924    0.090676  
      1.436001  5.283908  1.790270    -0.084359   -0.016924    0.090676  
      5.026000  5.283908  1.790270    -0.084359   -0.016924    0.090676  
      1.436001  1.509688  5.370809    -0.084359   -0.016924    0.090676  
      5.026000  1.509688  5.370809    -0.084359   -0.016924    0.090676  
      1.256501  5.095197  5.370809    -0.084359   -0.016924    0.090676  
      4.846501  5.095197  5.370809    -0.084359   -0.016924    0.090676  
 
 191 f  =    0.000008 THz     0.000053 2PiTHz    0.000282 cm-1     0.000035 meV
             X         Y         Z           dx          dy          dz
      0.718000  2.641954  0.895135     0.063586   -0.099687    0.040550  
      4.308000  2.641954  0.895135     0.063586   -0.099687    0.040550  
      0.538501  6.227463  0.895135     0.063586   -0.099687    0.040550  
      4.128500  6.227463  0.895135     0.063586   -0.099687    0.040550  
      0.538501  2.453243  4.475674     0.063586   -0.099687    0.040550  
      4.128500  2.453243  4.475674     0.063586   -0.099687    0.040550  
      0.359001  6.038752  4.475674     0.063586   -0.099687    0.040550  
      3.949001  6.038752  4.475674     0.063586   -0.099687    0.040550  
     -0.089750 -0.094356  1.790270     0.063586   -0.099687    0.040550  
      3.500250 -0.094356  1.790270     0.063586   -0.099687    0.040550  
     -0.269249  3.491153  1.790270     0.063586   -0.099687    0.040550  
      3.320750  3.491153  1.790270     0.063586   -0.099687    0.040550  
     -0.269249 -0.283067  5.370809     0.063586   -0.099687    0.040550  
      3.320750 -0.283067  5.370809     0.063586   -0.099687    0.040550  
     -0.448749  3.302442  5.370809     0.063586   -0.099687    0.040550  
      3.141251  3.302442  5.370809     0.063586   -0.099687    0.040550  
      0.718000  0.754844  2.685405     0.063586   -0.099687    0.040550  
      4.308000  0.754844  2.685405     0.063586   -0.099687    0.040550  
      0.538501  4.340353  2.685405     0.063586   -0.099687    0.040550  
      4.128500  4.340353  2.685405     0.063586   -0.099687    0.040550  
      0.538501  0.566133  6.265944     0.063586   -0.099687    0.040550  
      4.128500  0.566133  6.265944     0.063586   -0.099687    0.040550  
      0.359001  4.151642  6.265944     0.063586   -0.099687    0.040550  
      3.949001  4.151642  6.265944     0.063586   -0.099687    0.040550  
     -0.089750  1.792754  0.000000     0.063586   -0.099687    0.040550  
      3.500250  1.792754  0.000000     0.063586   -0.099687    0.040550  
     -0.269249  5.378263  0.000000     0.063586   -0.099687    0.040550  
      3.320750  5.378263  0.000000     0.063586   -0.099687    0.040550  
     -0.269249  1.604043  3.580539     0.063586   -0.099687    0.040550  
      3.320750  1.604043  3.580539     0.063586   -0.099687    0.040550  
     -0.448749  5.189552  3.580539     0.063586   -0.099687    0.040550  
      3.141251  5.189552  3.580539     0.063586   -0.099687    0.040550  
      2.423250  2.547598  2.685405     0.063586   -0.099687    0.040550  
      6.013250  2.547598  2.685405     0.063586   -0.099687    0.040550  
      2.243751  6.133107  2.685405     0.063586   -0.099687    0.040550  
      5.833750  6.133107  2.685405     0.063586   -0.099687    0.040550  
      2.243751  2.358887  6.265944     0.063586   -0.099687    0.040550  
      5.833750  2.358887  6.265944     0.063586   -0.099687    0.040550  
      2.064251  5.944396  6.265944     0.063586   -0.099687    0.040550  
      5.654251  5.944396  6.265944     0.063586   -0.099687    0.040550  
      1.795000  0.000000  0.000000     0.063586   -0.099687    0.040550  
      5.384999  0.000000  0.000000     0.063586   -0.099687    0.040550  
      1.615500  3.585509  0.000000     0.063586   -0.099687    0.040550  
      5.205500  3.585509  0.000000     0.063586   -0.099687    0.040550  
      1.615500 -0.188711  3.580539     0.063586   -0.099687    0.040550  
      5.205500 -0.188711  3.580539     0.063586   -0.099687    0.040550  
      1.436001  3.396798  3.580539     0.063586   -0.099687    0.040550  
      5.026000  3.396798  3.580539     0.063586   -0.099687    0.040550  
      2.602750  0.849199  0.895135     0.063586   -0.099687    0.040550  
      6.192749  0.849199  0.895135     0.063586   -0.099687    0.040550  
      2.423250  4.434708  0.895135     0.063586   -0.099687    0.040550  
      6.013250  4.434708  0.895135     0.063586   -0.099687    0.040550  
      2.423250  0.660488  4.475674     0.063586   -0.099687    0.040550  
      6.013250  0.660488  4.475674     0.063586   -0.099687    0.040550  
      2.243751  4.245997  4.475674     0.063586   -0.099687    0.040550  
      5.833750  4.245997  4.475674     0.063586   -0.099687    0.040550  
      1.615500  1.698399  1.790270     0.063586   -0.099687    0.040550  
      5.205500  1.698399  1.790270     0.063586   -0.099687    0.040550  
      1.436001  5.283908  1.790270     0.063586   -0.099687    0.040550  
      5.026000  5.283908  1.790270     0.063586   -0.099687    0.040550  
      1.436001  1.509688  5.370809     0.063586   -0.099687    0.040550  
      5.026000  1.509688  5.370809     0.063586   -0.099687    0.040550  
      1.256501  5.095197  5.370809     0.063586   -0.099687    0.040550  
      4.846501  5.095197  5.370809     0.063586   -0.099687    0.040550  
 
 192 f  =    0.000003 THz     0.000016 2PiTHz    0.000085 cm-1     0.000011 meV
             X         Y         Z           dx          dy          dz
      0.718000  2.641954  0.895135     0.066824    0.073492    0.075885  
      4.308000  2.641954  0.895135     0.066824    0.073492    0.075885  
      0.538501  6.227463  0.895135     0.066824    0.073492    0.075885  
      4.128500  6.227463  0.895135     0.066824    0.073492    0.075885  
      0.538501  2.453243  4.475674     0.066824    0.073492    0.075885  
      4.128500  2.453243  4.475674     0.066824    0.073492    0.075885  
      0.359001  6.038752  4.475674     0.066824    0.073492    0.075885  
      3.949001  6.038752  4.475674     0.066824    0.073492    0.075885  
     -0.089750 -0.094356  1.790270     0.066824    0.073492    0.075885  
      3.500250 -0.094356  1.790270     0.066824    0.073492    0.075885  
     -0.269249  3.491153  1.790270     0.066824    0.073492    0.075885  
      3.320750  3.491153  1.790270     0.066824    0.073492    0.075885  
     -0.269249 -0.283067  5.370809     0.066824    0.073492    0.075885  
      3.320750 -0.283067  5.370809     0.066824    0.073492    0.075885  
     -0.448749  3.302442  5.370809     0.066824    0.073492    0.075885  
      3.141251  3.302442  5.370809     0.066824    0.073492    0.075885  
      0.718000  0.754844  2.685405     0.066824    0.073492    0.075885  
      4.308000  0.754844  2.685405     0.066824    0.073492    0.075885  
      0.538501  4.340353  2.685405     0.066824    0.073492    0.075885  
      4.128500  4.340353  2.685405     0.066824    0.073492    0.075885  
      0.538501  0.566133  6.265944     0.066824    0.073492    0.075885  
      4.128500  0.566133  6.265944     0.066824    0.073492    0.075885  
      0.359001  4.151642  6.265944     0.066824    0.073492    0.075885  
      3.949001  4.151642  6.265944     0.066824    0.073492    0.075885  
     -0.089750  1.792754  0.000000     0.066824    0.073492    0.075885  
      3.500250  1.792754  0.000000     0.066824    0.073492    0.075885  
     -0.269249  5.378263  0.000000     0.066824    0.073492    0.075885  
      3.320750  5.378263  0.000000     0.066824    0.073492    0.075885  
     -0.269249  1.604043  3.580539     0.066824    0.073492    0.075885  
      3.320750  1.604043  3.580539     0.066824    0.073492    0.075885  
     -0.448749  5.189552  3.580539     0.066824    0.073492    0.075885  
      3.141251  5.189552  3.580539     0.066824    0.073492    0.075885  
      2.423250  2.547598  2.685405     0.066824    0.073492    0.075885  
      6.013250  2.547598  2.685405     0.066824    0.073492    0.075885  
      2.243751  6.133107  2.685405     0.066824    0.073492    0.075885  
      5.833750  6.133107  2.685405     0.066824    0.073492    0.075885  
      2.243751  2.358887  6.265944     0.066824    0.073492    0.075885  
      5.833750  2.358887  6.265944     0.066824    0.073492    0.075885  
      2.064251  5.944396  6.265944     0.066824    0.073492    0.075885  
      5.654251  5.944396  6.265944     0.066824    0.073492    0.075885  
      1.795000  0.000000  0.000000     0.066824    0.073492    0.075885  
      5.384999  0.000000  0.000000     0.066824    0.073492    0.075885  
      1.615500  3.585509  0.000000     0.066824    0.073492    0.075885  
      5.205500  3.585509  0.000000     0.066824    0.073492    0.075885  
      1.615500 -0.188711  3.580539     0.066824    0.073492    0.075885  
      5.205500 -0.188711  3.580539     0.066824    0.073492    0.075885  
      1.436001  3.396798  3.580539     0.066824    0.073492    0.075885  
      5.026000  3.396798  3.580539     0.066824    0.073492    0.075885  
      2.602750  0.849199  0.895135     0.066824    0.073492    0.075885  
      6.192749  0.849199  0.895135     0.066824    0.073492    0.075885  
      2.423250  4.434708  0.895135     0.066824    0.073492    0.075885  
      6.013250  4.434708  0.895135     0.066824    0.073492    0.075885  
      2.423250  0.660488  4.475674     0.066824    0.073492    0.075885  
      6.013250  0.660488  4.475674     0.066824    0.073492    0.075885  
      2.243751  4.245997  4.475674     0.066824    0.073492    0.075885  
      5.833750  4.245997  4.475674     0.066824    0.073492    0.075885  
      1.615500  1.698399  1.790270     0.066824    0.073492    0.075885  
      5.205500  1.698399  1.790270     0.066824    0.073492    0.075885  
      1.436001  5.283908  1.790270     0.066824    0.073492    0.075885  
      5.026000  5.283908  1.790270     0.066824    0.073492    0.075885  
      1.436001  1.509688  5.370809     0.066824    0.073492    0.075885  
      5.026000  1.509688  5.370809     0.066824    0.073492    0.075885  
      1.256501  5.095197  5.370809     0.066824    0.073492    0.075885  
      4.846501  5.095197  5.370809     0.066824    0.073492    0.075885  
 


--------------------------------------------------------------------------------------------------------



 ELASTIC MODULI CONTR FROM IONIC RELAXATION (kBar)
 Direction    XX          YY          ZZ          XY          YZ          ZX
 --------------------------------------------------------------------------------
 XX         -60.3607    -68.4905    -77.9698    -81.2046    -89.9281    -85.5973
 YY         -68.4905    -77.7513    -88.4310    -92.4860   -101.9374    -96.9046
 ZZ         -77.9698    -88.4310   -100.7663   -104.4827   -116.4014   -110.7185
 XY         -81.2046    -92.4860   -104.4827   -112.6734   -119.3652   -113.5425
 YZ         -89.9281   -101.9374   -116.4014   -119.3652   -137.2366   -125.7918
 ZX         -85.5973    -96.9046   -110.7185   -113.5425   -125.7918   -124.6431
 --------------------------------------------------------------------------------



--------------------------------------------------------------------------------------------------------


     LOOP+:  cpu time 1198.3907: real time 1198.8018
    4ORBIT:  cpu time    0.0000: real time    0.0000

 total amount of memory used by VASP MPI-rank0    83596. kBytes
=======================================================================

   base      :      30000. kBytes
   nonl-proj :      20742. kBytes
   fftplans  :       4537. kBytes
   grid      :       5806. kBytes
   one-center:        196. kBytes
   wavefun   :      22315. kBytes
 
  
  
 General timing and accounting informations for this job:
 ========================================================
  
                  Total CPU time used (sec):     1210.433
                            User time (sec):     1203.613
                          System time (sec):        6.820
                         Elapsed time (sec):     1211.778
  
                   Maximum memory used (kb):      432244.
                   Average memory used (kb):           0.
  
                          Minor page faults:        39315
                          Major page faults:           36
                 Voluntary context switches:          861
