# Thermal properties / unit cell (natom)

unit:
  temperature:   K
  free_energy:   kJ/mol
  entropy:       J/K/mol
  heat_capacity: J/K/mol

natom: 8    
cutoff_frequency:    0.000
num_modes: 2654208
num_integrated_modes: 2654208

zero_point_energy:     136.5425999
high_T_entropy:        436.9965453

thermal_properties:
- temperature:         0.0000000
  free_energy:       136.5425999
  entropy:             0.0000000
  heat_capacity:       0.0000000
  energy:            136.5425999

- temperature:         2.0000000
  free_energy:       136.5425999
  entropy:             0.0000000
  heat_capacity:       0.0000000
  energy:            136.5425999

- temperature:         4.0000000
  free_energy:       136.5425999
  entropy:             0.0000100
  heat_capacity:       0.0000609
  energy:            136.5426000

- temperature:         6.0000000
  free_energy:       136.5425999
  entropy:             0.0000775
  heat_capacity:       0.0003270
  energy:            136.5426003

- temperature:         8.0000000
  free_energy:       136.5425996
  entropy:             0.0002343
  heat_capacity:       0.0008316
  energy:            136.5426014

- temperature:        10.0000000
  free_energy:       136.5425989
  entropy:             0.0005006
  heat_capacity:       0.0016436
  energy:            136.5426039

- temperature:        12.0000000
  free_energy:       136.5425975
  entropy:             0.0009002
  heat_capacity:       0.0028482
  energy:            136.5426083

- temperature:        14.0000000
  free_energy:       136.5425951
  entropy:             0.0014588
  heat_capacity:       0.0045291
  energy:            136.5426156

- temperature:        16.0000000
  free_energy:       136.5425915
  entropy:             0.0022031
  heat_capacity:       0.0067690
  energy:            136.5426268

- temperature:        18.0000000
  free_energy:       136.5425862
  entropy:             0.0031601
  heat_capacity:       0.0096510
  energy:            136.5426431

- temperature:        20.0000000
  free_energy:       136.5425787
  entropy:             0.0043569
  heat_capacity:       0.0132588
  energy:            136.5426659

- temperature:        22.0000000
  free_energy:       136.5425686
  entropy:             0.0058211
  heat_capacity:       0.0176775
  energy:            136.5426966

- temperature:        24.0000000
  free_energy:       136.5425552
  entropy:             0.0075803
  heat_capacity:       0.0229934
  energy:            136.5427372

- temperature:        26.0000000
  free_energy:       136.5425380
  entropy:             0.0096627
  heat_capacity:       0.0292949
  energy:            136.5427893

- temperature:        28.0000000
  free_energy:       136.5425164
  entropy:             0.0120968
  heat_capacity:       0.0366720
  energy:            136.5428551

- temperature:        30.0000000
  free_energy:       136.5424894
  entropy:             0.0149113
  heat_capacity:       0.0452174
  energy:            136.5429367

- temperature:        32.0000000
  free_energy:       136.5424564
  entropy:             0.0181356
  heat_capacity:       0.0550260
  energy:            136.5430368

- temperature:        34.0000000
  free_energy:       136.5424166
  entropy:             0.0217996
  heat_capacity:       0.0661961
  energy:            136.5431578

- temperature:        36.0000000
  free_energy:       136.5423689
  entropy:             0.0259336
  heat_capacity:       0.0788294
  energy:            136.5433025

- temperature:        38.0000000
  free_energy:       136.5423125
  entropy:             0.0305689
  heat_capacity:       0.0930315
  energy:            136.5434741

- temperature:        40.0000000
  free_energy:       136.5422463
  entropy:             0.0357372
  heat_capacity:       0.1089129
  energy:            136.5436758

- temperature:        42.0000000
  free_energy:       136.5421692
  entropy:             0.0414712
  heat_capacity:       0.1265897
  energy:            136.5439110

- temperature:        44.0000000
  free_energy:       136.5420800
  entropy:             0.0478047
  heat_capacity:       0.1461842
  energy:            136.5441834

- temperature:        46.0000000
  free_energy:       136.5419775
  entropy:             0.0547725
  heat_capacity:       0.1678261
  energy:            136.5444971

- temperature:        48.0000000
  free_energy:       136.5418605
  entropy:             0.0624105
  heat_capacity:       0.1916530
  energy:            136.5448562

- temperature:        50.0000000
  free_energy:       136.5417274
  entropy:             0.0707563
  heat_capacity:       0.2178117
  energy:            136.5452652

- temperature:        52.0000000
  free_energy:       136.5415769
  entropy:             0.0798487
  heat_capacity:       0.2464588
  energy:            136.5457291

- temperature:        54.0000000
  free_energy:       136.5414075
  entropy:             0.0897285
  heat_capacity:       0.2777611
  energy:            136.5462528

- temperature:        56.0000000
  free_energy:       136.5412175
  entropy:             0.1004381
  heat_capacity:       0.3118965
  energy:            136.5468420

- temperature:        58.0000000
  free_energy:       136.5410052
  entropy:             0.1120220
  heat_capacity:       0.3490534
  energy:            136.5475024

- temperature:        60.0000000
  free_energy:       136.5407688
  entropy:             0.1245266
  heat_capacity:       0.3894316
  energy:            136.5482404

- temperature:        62.0000000
  free_energy:       136.5405064
  entropy:             0.1380007
  heat_capacity:       0.4332411
  energy:            136.5490625

- temperature:        64.0000000
  free_energy:       136.5402161
  entropy:             0.1524950
  heat_capacity:       0.4807019
  energy:            136.5499758

- temperature:        66.0000000
  free_energy:       136.5398957
  entropy:             0.1680626
  heat_capacity:       0.5320432
  energy:            136.5509879

- temperature:        68.0000000
  free_energy:       136.5395431
  entropy:             0.1847588
  heat_capacity:       0.5875021
  energy:            136.5521067

- temperature:        70.0000000
  free_energy:       136.5391559
  entropy:             0.2026410
  heat_capacity:       0.6473227
  energy:            136.5533408

- temperature:        72.0000000
  free_energy:       136.5387317
  entropy:             0.2217689
  heat_capacity:       0.7117543
  energy:            136.5546991

- temperature:        74.0000000
  free_energy:       136.5382679
  entropy:             0.2422038
  heat_capacity:       0.7810503
  energy:            136.5561910

- temperature:        76.0000000
  free_energy:       136.5377620
  entropy:             0.2640092
  heat_capacity:       0.8554663
  energy:            136.5578267

- temperature:        78.0000000
  free_energy:       136.5372110
  entropy:             0.2872503
  heat_capacity:       0.9352589
  energy:            136.5596165

- temperature:        80.0000000
  free_energy:       136.5366120
  entropy:             0.3119937
  heat_capacity:       1.0206839
  energy:            136.5615715

- temperature:        82.0000000
  free_energy:       136.5359619
  entropy:             0.3383074
  heat_capacity:       1.1119949
  energy:            136.5637031

- temperature:        84.0000000
  free_energy:       136.5352576
  entropy:             0.3662606
  heat_capacity:       1.2094415
  energy:            136.5660235

- temperature:        86.0000000
  free_energy:       136.5344957
  entropy:             0.3959233
  heat_capacity:       1.3132686
  energy:            136.5685452

- temperature:        88.0000000
  free_energy:       136.5336728
  entropy:             0.4273665
  heat_capacity:       1.4237146
  energy:            136.5712810

- temperature:        90.0000000
  free_energy:       136.5327850
  entropy:             0.4606615
  heat_capacity:       1.5410106
  energy:            136.5742446

- temperature:        92.0000000
  free_energy:       136.5318288
  entropy:             0.4958798
  heat_capacity:       1.6653790
  energy:            136.5774498

- temperature:        94.0000000
  free_energy:       136.5308002
  entropy:             0.5330931
  heat_capacity:       1.7970332
  energy:            136.5809110

- temperature:        96.0000000
  free_energy:       136.5296951
  entropy:             0.5723731
  heat_capacity:       1.9361762
  energy:            136.5846429

- temperature:        98.0000000
  free_energy:       136.5285093
  entropy:             0.6137908
  heat_capacity:       2.0830007
  energy:            136.5886608

- temperature:       100.0000000
  free_energy:       136.5272384
  entropy:             0.6574170
  heat_capacity:       2.2376880
  energy:            136.5929801

- temperature:       102.0000000
  free_energy:       136.5258781
  entropy:             0.7033215
  heat_capacity:       2.4004079
  energy:            136.5976169

- temperature:       104.0000000
  free_energy:       136.5244236
  entropy:             0.7515735
  heat_capacity:       2.5713185
  energy:            136.6025872

- temperature:       106.0000000
  free_energy:       136.5228702
  entropy:             0.8022408
  heat_capacity:       2.7505658
  energy:            136.6079077

- temperature:       108.0000000
  free_energy:       136.5212130
  entropy:             0.8553905
  heat_capacity:       2.9382839
  energy:            136.6135951

- temperature:       110.0000000
  free_energy:       136.5194469
  entropy:             0.9110878
  heat_capacity:       3.1345947
  energy:            136.6196666

- temperature:       112.0000000
  free_energy:       136.5175669
  entropy:             0.9693968
  heat_capacity:       3.3396082
  energy:            136.6261393

- temperature:       114.0000000
  free_energy:       136.5155676
  entropy:             1.0303800
  heat_capacity:       3.5534226
  energy:            136.6330309

- temperature:       116.0000000
  free_energy:       136.5134435
  entropy:             1.0940983
  heat_capacity:       3.7761244
  energy:            136.6403589

- temperature:       118.0000000
  free_energy:       136.5111893
  entropy:             1.1606106
  heat_capacity:       4.0077887
  energy:            136.6481414

- temperature:       120.0000000
  free_energy:       136.5087992
  entropy:             1.2299743
  heat_capacity:       4.2484794
  energy:            136.6563961

- temperature:       122.0000000
  free_energy:       136.5062675
  entropy:             1.3022447
  heat_capacity:       4.4982495
  energy:            136.6651413

- temperature:       124.0000000
  free_energy:       136.5035882
  entropy:             1.3774754
  heat_capacity:       4.7571414
  energy:            136.6743952

- temperature:       126.0000000
  free_energy:       136.5007556
  entropy:             1.4557178
  heat_capacity:       5.0251875
  energy:            136.6841760

- temperature:       128.0000000
  free_energy:       136.4977633
  entropy:             1.5370213
  heat_capacity:       5.3024100
  energy:            136.6945021

- temperature:       130.0000000
  free_energy:       136.4946054
  entropy:             1.6214335
  heat_capacity:       5.5888217
  energy:            136.7053918

- temperature:       132.0000000
  free_energy:       136.4912755
  entropy:             1.7089999
  heat_capacity:       5.8844261
  energy:            136.7168635

- temperature:       134.0000000
  free_energy:       136.4877673
  entropy:             1.7997636
  heat_capacity:       6.1892179
  energy:            136.7289356

- temperature:       136.0000000
  free_energy:       136.4840743
  entropy:             1.8937660
  heat_capacity:       6.5031834
  energy:            136.7416265

- temperature:       138.0000000
  free_energy:       136.4801900
  entropy:             1.9910464
  heat_capacity:       6.8263006
  energy:            136.7549544

- temperature:       140.0000000
  free_energy:       136.4761079
  entropy:             2.0916419
  heat_capacity:       7.1585397
  energy:            136.7689378

- temperature:       142.0000000
  free_energy:       136.4718212
  entropy:             2.1955875
  heat_capacity:       7.4998634
  energy:            136.7835946

- temperature:       144.0000000
  free_energy:       136.4673233
  entropy:             2.3029163
  heat_capacity:       7.8502273
  energy:            136.7989432

- temperature:       146.0000000
  free_energy:       136.4626073
  entropy:             2.4136594
  heat_capacity:       8.2095801
  energy:            136.8150015

- temperature:       148.0000000
  free_energy:       136.4576664
  entropy:             2.5278456
  heat_capacity:       8.5778640
  energy:            136.8317875

- temperature:       150.0000000
  free_energy:       136.4524936
  entropy:             2.6455022
  heat_capacity:       8.9550148
  energy:            136.8493189

- temperature:       152.0000000
  free_energy:       136.4470820
  entropy:             2.7666541
  heat_capacity:       9.3409624
  energy:            136.8676134

- temperature:       154.0000000
  free_energy:       136.4414246
  entropy:             2.8913244
  heat_capacity:       9.7356313
  energy:            136.8866886

- temperature:       156.0000000
  free_energy:       136.4355144
  entropy:             3.0195344
  heat_capacity:      10.1389401
  energy:            136.9065617

- temperature:       158.0000000
  free_energy:       136.4293441
  entropy:             3.1513033
  heat_capacity:      10.5508026
  energy:            136.9272500

- temperature:       160.0000000
  free_energy:       136.4229068
  entropy:             3.2866488
  heat_capacity:      10.9711275
  energy:            136.9487706

- temperature:       162.0000000
  free_energy:       136.4161951
  entropy:             3.4255865
  heat_capacity:      11.3998191
  energy:            136.9711401

- temperature:       164.0000000
  free_energy:       136.4092020
  entropy:             3.5681302
  heat_capacity:      11.8367770
  energy:            136.9943754

- temperature:       166.0000000
  free_energy:       136.4019202
  entropy:             3.7142921
  heat_capacity:      12.2818967
  energy:            137.0184927

- temperature:       168.0000000
  free_energy:       136.3943424
  entropy:             3.8640827
  heat_capacity:      12.7350699
  energy:            137.0435083

- temperature:       170.0000000
  free_energy:       136.3864614
  entropy:             4.0175107
  heat_capacity:      13.1961844
  energy:            137.0694383

- temperature:       172.0000000
  free_energy:       136.3782699
  entropy:             4.1745832
  heat_capacity:      13.6651243
  energy:            137.0962983

- temperature:       174.0000000
  free_energy:       136.3697607
  entropy:             4.3353059
  heat_capacity:      14.1417708
  energy:            137.1241039

- temperature:       176.0000000
  free_energy:       136.3609263
  entropy:             4.4996825
  heat_capacity:      14.6260017
  energy:            137.1528704

- temperature:       178.0000000
  free_energy:       136.3517595
  entropy:             4.6677155
  heat_capacity:      15.1176919
  energy:            137.1826129

- temperature:       180.0000000
  free_energy:       136.3422530
  entropy:             4.8394060
  heat_capacity:      15.6167134
  energy:            137.2133461

- temperature:       182.0000000
  free_energy:       136.3323994
  entropy:             5.0147532
  heat_capacity:      16.1229361
  energy:            137.2450845

- temperature:       184.0000000
  free_energy:       136.3221915
  entropy:             5.1937553
  heat_capacity:      16.6362270
  energy:            137.2778425

- temperature:       186.0000000
  free_energy:       136.3116220
  entropy:             5.3764090
  heat_capacity:      17.1564512
  energy:            137.3116341

- temperature:       188.0000000
  free_energy:       136.3006835
  entropy:             5.5627095
  heat_capacity:      17.6834718
  energy:            137.3464729

- temperature:       190.0000000
  free_energy:       136.2893687
  entropy:             5.7526508
  heat_capacity:      18.2171500
  energy:            137.3823724

- temperature:       192.0000000
  free_energy:       136.2776704
  entropy:             5.9462258
  heat_capacity:      18.7573451
  energy:            137.4193458

- temperature:       194.0000000
  free_energy:       136.2655814
  entropy:             6.1434258
  heat_capacity:      19.3039152
  energy:            137.4574060

- temperature:       196.0000000
  free_energy:       136.2530943
  entropy:             6.3442412
  heat_capacity:      19.8567168
  energy:            137.4965656

- temperature:       198.0000000
  free_energy:       136.2402020
  entropy:             6.5486611
  heat_capacity:      20.4156054
  energy:            137.5368369

- temperature:       200.0000000
  free_energy:       136.2268973
  entropy:             6.7566735
  heat_capacity:      20.9804351
  energy:            137.5782320

- temperature:       202.0000000
  free_energy:       136.2131729
  entropy:             6.9682653
  heat_capacity:      21.5510595
  energy:            137.6207625

- temperature:       204.0000000
  free_energy:       136.1990219
  entropy:             7.1834223
  heat_capacity:      22.1273310
  energy:            137.6644400

- temperature:       206.0000000
  free_energy:       136.1844369
  entropy:             7.4021293
  heat_capacity:      22.7091017
  energy:            137.7092755

- temperature:       208.0000000
  free_energy:       136.1694110
  entropy:             7.6243701
  heat_capacity:      23.2962231
  energy:            137.7552800

- temperature:       210.0000000
  free_energy:       136.1539371
  entropy:             7.8501277
  heat_capacity:      23.8885462
  energy:            137.8024639

- temperature:       212.0000000
  free_energy:       136.1380081
  entropy:             8.0793839
  heat_capacity:      24.4859219
  energy:            137.8508375

- temperature:       214.0000000
  free_energy:       136.1216172
  entropy:             8.3121198
  heat_capacity:      25.0882010
  energy:            137.9004108

- temperature:       216.0000000
  free_energy:       136.1047574
  entropy:             8.5483155
  heat_capacity:      25.6952341
  energy:            137.9511935

- temperature:       218.0000000
  free_energy:       136.0874217
  entropy:             8.7879504
  heat_capacity:      26.3068722
  energy:            138.0031948

- temperature:       220.0000000
  free_energy:       136.0696033
  entropy:             9.0310031
  heat_capacity:      26.9229664
  energy:            138.0564240

- temperature:       222.0000000
  free_energy:       136.0512954
  entropy:             9.2774514
  heat_capacity:      27.5433680
  energy:            138.1108896

- temperature:       224.0000000
  free_energy:       136.0324912
  entropy:             9.5272723
  heat_capacity:      28.1679290
  energy:            138.1666002

- temperature:       226.0000000
  free_energy:       136.0131841
  entropy:             9.7804421
  heat_capacity:      28.7965019
  energy:            138.2235640

- temperature:       228.0000000
  free_energy:       135.9933672
  entropy:            10.0369366
  heat_capacity:      29.4289396
  energy:            138.2817888

- temperature:       230.0000000
  free_energy:       135.9730341
  entropy:            10.2967309
  heat_capacity:      30.0650961
  energy:            138.3412822

- temperature:       232.0000000
  free_energy:       135.9521781
  entropy:            10.5597993
  heat_capacity:      30.7048259
  energy:            138.4020516

- temperature:       234.0000000
  free_energy:       135.9307927
  entropy:            10.8261156
  heat_capacity:      31.3479847
  energy:            138.4641038

- temperature:       236.0000000
  free_energy:       135.9088715
  entropy:            11.0956532
  heat_capacity:      31.9944290
  energy:            138.5274457

- temperature:       238.0000000
  free_energy:       135.8864080
  entropy:            11.3683849
  heat_capacity:      32.6440166
  energy:            138.5920836

- temperature:       240.0000000
  free_energy:       135.8633959
  entropy:            11.6442828
  heat_capacity:      33.2966061
  energy:            138.6580237

- temperature:       242.0000000
  free_energy:       135.8398288
  entropy:            11.9233189
  heat_capacity:      33.9520576
  energy:            138.7252719

- temperature:       244.0000000
  free_energy:       135.8157005
  entropy:            12.2054643
  heat_capacity:      34.6102325
  energy:            138.7938338

- temperature:       246.0000000
  free_energy:       135.7910049
  entropy:            12.4906900
  heat_capacity:      35.2709934
  energy:            138.8637146

- temperature:       248.0000000
  free_energy:       135.7657357
  entropy:            12.7789664
  heat_capacity:      35.9342045
  energy:            138.9349194

- temperature:       250.0000000
  free_energy:       135.7398870
  entropy:            13.0702639
  heat_capacity:      36.5997312
  energy:            139.0074530

- temperature:       252.0000000
  free_energy:       135.7134527
  entropy:            13.3645520
  heat_capacity:      37.2674408
  energy:            139.0813198

- temperature:       254.0000000
  free_energy:       135.6864268
  entropy:            13.6618003
  heat_capacity:      37.9372019
  energy:            139.1565241

- temperature:       256.0000000
  free_energy:       135.6588035
  entropy:            13.9619779
  heat_capacity:      38.6088848
  energy:            139.2330699

- temperature:       258.0000000
  free_energy:       135.6305770
  entropy:            14.2650537
  heat_capacity:      39.2823615
  energy:            139.3109608

- temperature:       260.0000000
  free_energy:       135.6017414
  entropy:            14.5709963
  heat_capacity:      39.9575057
  energy:            139.3902004

- temperature:       262.0000000
  free_energy:       135.5722911
  entropy:            14.8797740
  heat_capacity:      40.6341928
  energy:            139.4707919

- temperature:       264.0000000
  free_energy:       135.5422204
  entropy:            15.1913550
  heat_capacity:      41.3123001
  energy:            139.5527381

- temperature:       266.0000000
  free_energy:       135.5115238
  entropy:            15.5057072
  heat_capacity:      41.9917066
  energy:            139.6360419

- temperature:       268.0000000
  free_energy:       135.4801958
  entropy:            15.8227985
  heat_capacity:      42.6722931
  energy:            139.7207058

- temperature:       270.0000000
  free_energy:       135.4482308
  entropy:            16.1425963
  heat_capacity:      43.3539425
  energy:            139.8067318

- temperature:       272.0000000
  free_energy:       135.4156236
  entropy:            16.4650682
  heat_capacity:      44.0365393
  energy:            139.8941222

- temperature:       274.0000000
  free_energy:       135.3823688
  entropy:            16.7901816
  heat_capacity:      44.7199702
  energy:            139.9828785

- temperature:       276.0000000
  free_energy:       135.3484611
  entropy:            17.1179036
  heat_capacity:      45.4041235
  energy:            140.0730025

- temperature:       278.0000000
  free_energy:       135.3138955
  entropy:            17.4482014
  heat_capacity:      46.0888898
  energy:            140.1644954

- temperature:       280.0000000
  free_energy:       135.2786666
  entropy:            17.7810421
  heat_capacity:      46.7741614
  energy:            140.2573584

- temperature:       282.0000000
  free_energy:       135.2427696
  entropy:            18.1163927
  heat_capacity:      47.4598326
  energy:            140.3515924

- temperature:       284.0000000
  free_energy:       135.2061994
  entropy:            18.4542202
  heat_capacity:      48.1457999
  energy:            140.4471979

- temperature:       286.0000000
  free_energy:       135.1689511
  entropy:            18.7944915
  heat_capacity:      48.8319615
  energy:            140.5441757

- temperature:       288.0000000
  free_energy:       135.1310198
  entropy:            19.1371737
  heat_capacity:      49.5182177
  energy:            140.6425259

- temperature:       290.0000000
  free_energy:       135.0924008
  entropy:            19.4822335
  heat_capacity:      50.2044708
  energy:            140.7422486

- temperature:       292.0000000
  free_energy:       135.0530893
  entropy:            19.8296381
  heat_capacity:      50.8906250
  energy:            140.8433437

- temperature:       294.0000000
  free_energy:       135.0130807
  entropy:            20.1793544
  heat_capacity:      51.5765868
  energy:            140.9458109

- temperature:       296.0000000
  free_energy:       134.9723704
  entropy:            20.5313494
  heat_capacity:      52.2622643
  energy:            141.0496498

- temperature:       298.0000000
  free_energy:       134.9309538
  entropy:            20.8855902
  heat_capacity:      52.9475678
  energy:            141.1548597

- temperature:       300.0000000
  free_energy:       134.8888266
  entropy:            21.2420441
  heat_capacity:      53.6324094
  energy:            141.2614398

- temperature:       302.0000000
  free_energy:       134.8459842
  entropy:            21.6006781
  heat_capacity:      54.3167035
  energy:            141.3693890

- temperature:       304.0000000
  free_energy:       134.8024224
  entropy:            21.9614597
  heat_capacity:      55.0003660
  energy:            141.4787062

- temperature:       306.0000000
  free_energy:       134.7581370
  entropy:            22.3243563
  heat_capacity:      55.6833152
  energy:            141.5893900

- temperature:       308.0000000
  free_energy:       134.7131236
  entropy:            22.6893354
  heat_capacity:      56.3654710
  energy:            141.7014389

- temperature:       310.0000000
  free_energy:       134.6673783
  entropy:            23.0563646
  heat_capacity:      57.0467554
  energy:            141.8148513

- temperature:       312.0000000
  free_energy:       134.6208968
  entropy:            23.4254118
  heat_capacity:      57.7270923
  energy:            141.9296253

- temperature:       314.0000000
  free_energy:       134.5736753
  entropy:            23.7964449
  heat_capacity:      58.4064075
  energy:            142.0457590

- temperature:       316.0000000
  free_energy:       134.5257097
  entropy:            24.1694319
  heat_capacity:      59.0846284
  energy:            142.1632502

- temperature:       318.0000000
  free_energy:       134.4769963
  entropy:            24.5443410
  heat_capacity:      59.7616848
  energy:            142.2820967

- temperature:       320.0000000
  free_energy:       134.4275311
  entropy:            24.9211407
  heat_capacity:      60.4375078
  energy:            142.4022961

- temperature:       322.0000000
  free_energy:       134.3773105
  entropy:            25.2997994
  heat_capacity:      61.1120308
  energy:            142.5238459

- temperature:       324.0000000
  free_energy:       134.3263307
  entropy:            25.6802860
  heat_capacity:      61.7851885
  energy:            142.6467433

- temperature:       326.0000000
  free_energy:       134.2745881
  entropy:            26.0625692
  heat_capacity:      62.4569179
  energy:            142.7709857

- temperature:       328.0000000
  free_energy:       134.2220792
  entropy:            26.4466182
  heat_capacity:      63.1271574
  energy:            142.8965700

- temperature:       330.0000000
  free_energy:       134.1688005
  entropy:            26.8324024
  heat_capacity:      63.7958473
  energy:            143.0234933

- temperature:       332.0000000
  free_energy:       134.1147485
  entropy:            27.2198911
  heat_capacity:      64.4629295
  energy:            143.1517523

- temperature:       334.0000000
  free_energy:       134.0599198
  entropy:            27.6090541
  heat_capacity:      65.1283479
  energy:            143.2813439

- temperature:       336.0000000
  free_energy:       134.0043112
  entropy:            27.9998613
  heat_capacity:      65.7920476
  energy:            143.4122646

- temperature:       338.0000000
  free_energy:       133.9479193
  entropy:            28.3922828
  heat_capacity:      66.4539758
  energy:            143.5445109

- temperature:       340.0000000
  free_energy:       133.8907410
  entropy:            28.7862891
  heat_capacity:      67.1140811
  energy:            143.6780793

- temperature:       342.0000000
  free_energy:       133.8327731
  entropy:            29.1818505
  heat_capacity:      67.7723138
  energy:            143.8129660

- temperature:       344.0000000
  free_energy:       133.7740126
  entropy:            29.5789380
  heat_capacity:      68.4286256
  energy:            143.9491672

- temperature:       346.0000000
  free_energy:       133.7144564
  entropy:            29.9775226
  heat_capacity:      69.0829699
  energy:            144.0866792

- temperature:       348.0000000
  free_energy:       133.6541015
  entropy:            30.3775755
  heat_capacity:      69.7353018
  energy:            144.2254978

- temperature:       350.0000000
  free_energy:       133.5929451
  entropy:            30.7790683
  heat_capacity:      70.3855776
  energy:            144.3656190

- temperature:       352.0000000
  free_energy:       133.5309843
  entropy:            31.1819727
  heat_capacity:      71.0337552
  energy:            144.5070387

- temperature:       354.0000000
  free_energy:       133.4682163
  entropy:            31.5862608
  heat_capacity:      71.6797939
  energy:            144.6497526

- temperature:       356.0000000
  free_energy:       133.4046383
  entropy:            31.9919047