<?xml version="1.0" encoding="ISO-8859-1"?>
<modeling>
 <generator>
  <i name="program" type="string">vasp </i>
  <i name="version" type="string">5.4.4.18Apr17-6-g9f103f2a35  </i>
  <i name="subversion" type="string">(build Mar 12 2022 03:36:41) complex            parallel </i>
  <i name="platform" type="string">IFC19.0.3.199_CrayMPICH7.7.19 </i>
  <i name="date" type="string">2022 12 02 </i>
  <i name="time" type="string">00:45:11 </i>
 </generator>
 <incar>
  <i type="string" name="PREC">accurate</i>
  <i type="int" name="IALGO">    38</i>
  <i type="logical" name="ADDGRID"> T  </i>
  <i type="int" name="IBRION">     8</i>
  <i name="EDIFF">      0.00000001</i>
  <i type="logical" name="LREAL"> F  </i>
  <i type="int" name="ISMEAR">     0</i>
  <i name="SIGMA">      0.06000000</i>
  <i type="logical" name="LWAVE"> F  </i>
  <i type="logical" name="LCHARG"> F  </i>
  <v type="int" name="KPOINT_BSE">    -1     0     0     0</v>
 </incar>
 <structure name="primitive_cell" >
  <crystal>
   <varray name="basis" >
    <v>      -0.17949947       1.69839886       1.79026972 </v>
    <v>       1.70524995      -0.09435563       1.79026972 </v>
    <v>       1.70524995       1.79275449       0.00000000 </v>
   </varray>
   <i name="volume">     11.52215348 </i>
   <varray name="rec_basis" >
    <v>      -0.27855158       0.26495545       0.27928759 </v>
    <v>       0.27855158      -0.26495545       0.27928747 </v>
    <v>       0.27855158       0.29284541      -0.24988886 </v>
   </varray>
  </crystal>
  <varray name="positions" >
   <v>      -0.25000000      -0.25000000      -0.25000000 </v>
   <v>      -0.50000000      -0.50000000      -0.50000000 </v>
  </varray>
 </structure>
 <varray name="primitive_index" >
  <v type="int" >        1 </v>
  <v type="int" >       25 </v>
 </varray>
 <kpoints>
  <generation param="Gamma">
   <v type="int" name="divisions">       6        6        6 </v>
   <v name="usershift">      0.00000000       0.00000000       0.00000000 </v>
   <v name="genvec1">      0.16666667      -0.00000000       0.00000000 </v>
   <v name="genvec2">      0.00000000       0.16666667       0.00000000 </v>
   <v name="genvec3">      0.00000000       0.00000000       0.16666667 </v>
   <v name="shift">      0.00000000       0.00000000       0.00000000 </v>
  </generation>
  <varray name="kpointlist" >
   <v>       0.00000000       0.00000000       0.00000000 </v>
   <v>       0.16666667      -0.00000000       0.00000000 </v>
   <v>       0.33333333      -0.00000000       0.00000000 </v>
   <v>       0.50000000       0.00000000       0.00000000 </v>
   <v>       0.16666667       0.16666667       0.00000000 </v>
   <v>       0.33333333       0.16666667      -0.00000000 </v>
   <v>       0.50000000       0.16666667       0.00000000 </v>
   <v>      -0.33333333       0.16666667      -0.00000000 </v>
   <v>      -0.16666667       0.16666667       0.00000000 </v>
   <v>       0.33333333       0.33333333      -0.00000000 </v>
   <v>       0.50000000       0.33333333       0.00000000 </v>
   <v>      -0.33333333       0.33333333      -0.00000000 </v>
   <v>       0.50000000       0.50000000       0.00000000 </v>
   <v>       0.16666667       0.16666667       0.16666667 </v>
   <v>       0.33333333       0.16666667       0.16666667 </v>
   <v>       0.50000000       0.16666667       0.16666667 </v>
   <v>      -0.33333333       0.16666667       0.16666667 </v>
   <v>      -0.16666667       0.16666667       0.16666667 </v>
   <v>       0.33333333       0.33333333       0.16666667 </v>
   <v>       0.50000000       0.33333333       0.16666667 </v>
   <v>      -0.33333333       0.33333333       0.16666667 </v>
   <v>      -0.16666667       0.33333333       0.16666667 </v>
   <v>       0.50000000       0.50000000       0.16666667 </v>
   <v>      -0.33333333       0.50000000       0.16666667 </v>
   <v>      -0.16666667       0.50000000       0.16666667 </v>
   <v>      -0.33333333      -0.33333333       0.16666667 </v>
   <v>       0.33333333       0.33333333       0.33333333 </v>
   <v>       0.50000000       0.33333333       0.33333333 </v>
   <v>      -0.33333333       0.33333333       0.33333333 </v>
   <v>       0.50000000       0.50000000       0.33333333 </v>
   <v>      -0.33333333       0.50000000       0.33333333 </v>
   <v>       0.50000000       0.50000000       0.50000000 </v>
  </varray>
  <varray name="weights" >
   <v>       0.00462963 </v>
   <v>       0.02777778 </v>
   <v>       0.02777778 </v>
   <v>       0.01388889 </v>
   <v>       0.02777778 </v>
   <v>       0.05555556 </v>
   <v>       0.05555556 </v>
   <v>       0.05555556 </v>
   <v>       0.02777778 </v>
   <v>       0.02777778 </v>
   <v>       0.05555556 </v>
   <v>       0.02777778 </v>
   <v>       0.01388889 </v>
   <v>       0.00925926 </v>
   <v>       0.02777778 </v>
   <v>       0.02777778 </v>
   <v>       0.02777778 </v>
   <v>       0.02777778 </v>
   <v>       0.02777778 </v>
   <v>       0.05555556 </v>
   <v>       0.05555556 </v>
   <v>       0.05555556 </v>
   <v>       0.02777778 </v>
   <v>       0.05555556 </v>
   <v>       0.02777778 </v>
   <v>       0.02777778 </v>
   <v>       0.00925926 </v>
   <v>       0.02777778 </v>
   <v>       0.02777778 </v>
   <v>       0.02777778 </v>
   <v>       0.02777778 </v>
   <v>       0.00462963 </v>
  </varray>
 </kpoints>
 <parameters>
  <separator name="general" >
   <i type="string" name="SYSTEM">unknown system</i>
   <i type="logical" name="LCOMPAT"> F  </i>
  </separator>
  <separator name="electronic" >
   <i type="string" name="PREC">accura</i>
   <i name="ENMAX">    400.00000000</i>
   <i name="ENAUG">    644.87300000</i>
   <i name="EDIFF">      0.00000001</i>
   <i type="int" name="IALGO">    38</i>
   <i type="int" name="IWAVPR">    11</i>
   <i type="int" name="NBANDS">   192</i>
   <i name="NELECT">    256.00000000</i>
   <i type="int" name="TURBO">     0</i>
   <i type="int" name="IRESTART">     0</i>
   <i type="int" name="NREBOOT">     0</i>
   <i type="int" name="NMIN">     0</i>
   <i name="EREF">      0.00000000</i>
   <separator name="electronic smearing" >
    <i type="int" name="ISMEAR">     0</i>
    <i name="SIGMA">      0.06000000</i>
    <i name="KSPACING">      0.50000000</i>
    <i type="logical" name="KGAMMA"> T  </i>
   </separator>
   <separator name="electronic projectors" >
    <i type="logical" name="LREAL"> F  </i>
    <v name="ROPT">      0.00000000</v>
    <i type="int" name="LMAXPAW">  -100</i>
    <i type="int" name="LMAXMIX">     2</i>
    <i type="logical" name="NLSPLINE"> F  </i>
   </separator>
   <separator name="electronic startup" >
    <i type="int" name="ISTART">     0</i>
    <i type="int" name="ICHARG">     2</i>
    <i type="int" name="INIWAV">     1</i>
   </separator>
   <separator name="electronic spin" >
    <i type="int" name="ISPIN">     1</i>
    <i type="logical" name="LNONCOLLINEAR"> F  </i>
    <v name="MAGMOM">      1.00000000      1.00000000      1.00000000      1.00000000      1.00000000      1.00000000      1.00000000      1.00000000      1.00000000      1.00000000      1.00000000      1.00000000      1.00000000      1.00000000      1.00000000      1.00000000      1.00000000      1.00000000      1.00000000      1.00000000
      1.00000000      1.00000000      1.00000000      1.00000000      1.00000000      1.00000000      1.00000000      1.00000000      1.00000000      1.00000000      1.00000000      1.00000000      1.00000000      1.00000000      1.00000000      1.00000000      1.00000000      1.00000000      1.00000000      1.00000000
      1.00000000      1.00000000      1.00000000      1.00000000      1.00000000      1.00000000      1.00000000      1.00000000      1.00000000      1.00000000      1.00000000      1.00000000      1.00000000      1.00000000      1.00000000      1.00000000      1.00000000      1.00000000      1.00000000      1.00000000
      1.00000000      1.00000000      1.00000000      1.00000000</v>
    <i name="NUPDOWN">     -1.00000000</i>
    <i type="logical" name="LSORBIT"> F  </i>
    <v name="SAXIS">      0.00000000      0.00000000      1.00000000</v>
    <i type="logical" name="LSPIRAL"> F  </i>
    <v name="QSPIRAL">      0.00000000      0.00000000      0.00000000</v>
    <i type="logical" name="LZEROZ"> F  </i>
   </separator>
   <separator name="electronic exchange-correlation" >
    <i type="logical" name="LASPH"> F  </i>
    <i type="logical" name="LMETAGGA"> F  </i>
   </separator>
   <separator name="electronic convergence" >
    <i type="int" name="NELM">    60</i>
    <i type="int" name="NELMDL">     0</i>
    <i type="int" name="NELMIN">     2</i>
    <i name="ENINI">    400.00000000</i>
    <separator name="electronic convergence detail" >
     <i type="logical" name="LDIAG"> T  </i>
     <i type="logical" name="LSUBROT"> F  </i>
     <i name="WEIMIN">      0.00100000</i>
     <i name="EBREAK">      0.00000000</i>
     <i name="DEPER">      0.30000000</i>
     <i type="int" name="NRMM">     4</i>
     <i name="TIME">      0.40000000</i>
    </separator>
   </separator>
   <separator name="electronic mixer" >
    <i name="AMIX">      0.40000000</i>
    <i name="BMIX">      1.00000000</i>
    <i name="AMIN">      0.10000000</i>
    <i name="AMIX_MAG">      1.60000000</i>
    <i name="BMIX_MAG">      1.00000000</i>
    <separator name="electronic mixer details" >
     <i type="int" name="IMIX">     4</i>
     <i type="logical" name="MIXFIRST"> F  </i>
     <i type="int" name="MAXMIX">   -45</i>
     <i name="WC">    100.00000000</i>
     <i type="int" name="INIMIX">     1</i>
     <i type="int" name="MIXPRE">     1</i>
     <i type="int" name="MREMOVE">     5</i>
    </separator>
   </separator>
   <separator name="electronic dipolcorrection" >
    <i type="logical" name="LDIPOL"> F  </i>
    <i type="logical" name="LMONO"> F  </i>
    <i type="int" name="IDIPOL">     0</i>
    <i name="EPSILON">      1.00000000</i>
    <v name="DIPOL">   -100.00000000   -100.00000000   -100.00000000</v>
    <i name="EFIELD">      0.00000000</i>
   </separator>
  </separator>
  <separator name="grids" >
   <i type="int" name="NGX">    48</i>
   <i type="int" name="NGY">    48</i>
   <i type="int" name="NGZ">    48</i>
   <i type="int" name="NGXF">    96</i>
   <i type="int" name="NGYF">    96</i>
   <i type="int" name="NGZF">    96</i>
   <i type="logical" name="ADDGRID"> T  </i>
  </separator>
  <separator name="ionic" >
   <i type="int" name="NSW">     1</i>
   <i type="int" name="IBRION">     8</i>
   <i type="int" name="MDALGO">     0</i>
   <i type="int" name="ISIF">     2</i>
   <i name="PSTRESS">      0.00000000</i>
   <i name="EDIFFG">      0.00000010</i>
   <i type="int" name="NFREE">     0</i>
   <i name="POTIM">      0.50000000</i>
   <i name="SMASS">     -3.00000000</i>
   <i name="SCALEE">      1.00000000</i>
  </separator>
  <separator name="ionic md" >
   <i name="TEBEG">      0.00010000</i>
   <i name="TEEND">      0.00010000</i>
   <i type="int" name="NBLOCK">     1</i>
   <i type="int" name="KBLOCK">     1</i>
   <i type="int" name="NPACO">   256</i>
   <i name="APACO">     16.00000000</i>
  </separator>
  <separator name="symmetry" >
   <i type="int" name="ISYM">     2</i>
   <i name="SYMPREC">      0.00001000</i>
  </separator>
  <separator name="dos" >
   <i type="int" name="LORBIT">     0</i>
   <v name="RWIGS">     -1.00000000</v>
   <i type="int" name="NEDOS">   301</i>
   <i name="EMIN">     10.00000000</i>
   <i name="EMAX">    -10.00000000</i>
   <i name="EFERMI">      0.00000000</i>
  </separator>
  <separator name="writing" >
   <i type="int" name="NWRITE">     2</i>
   <i type="logical" name="LWAVE"> F  </i>
   <i type="logical" name="LDOWNSAMPLE"> F  </i>
   <i type="logical" name="LCHARG"> F  </i>
   <i type="logical" name="LPARD"> F  </i>
   <i type="logical" name="LVTOT"> F  </i>
   <i type="logical" name="LVHAR"> F  </i>
   <i type="logical" name="LELF"> F  </i>
   <i type="logical" name="LOPTICS"> F  </i>
   <v name="STM">      0.00000000      0.00000000      0.00000000      0.00000000      0.00000000      0.00000000      0.00000000</v>
  </separator>
  <separator name="performance" >
   <i type="int" name="NPAR">    32</i>
   <i type="int" name="NSIM">     4</i>
   <i type="int" name="NBLK">    -1</i>
   <i type="logical" name="LPLANE"> T  </i>
   <i type="logical" name="LSCALAPACK"> T  </i>
   <i type="logical" name="LSCAAWARE"> F  </i>
   <i type="logical" name="LSCALU"> F  </i>
   <i type="logical" name="LASYNC"> F  </i>
   <i type="logical" name="LORBITALREAL"> F  </i>
  </separator>
  <separator name="miscellaneous" >
   <i type="int" name="IDIOT">     3</i>
   <i type="int" name="ISPECIAL">     0</i>
   <i type="logical" name="LMUSIC"> F  </i>
   <v name="POMASS">     12.01100000</v>
   <v name="DARWINR">      0.00000000</v>
   <v name="DARWINV">      1.00000000</v>
   <i type="logical" name="LCORR"> T  </i>
  </separator>
  <i type="logical" name="GGA_COMPAT"> T  </i>
  <i type="logical" name="LBERRY"> F  </i>
  <i type="int" name="ICORELEVEL">     0</i>
  <i type="logical" name="LDAU"> F  </i>
  <i type="int" name="I_CONSTRAINED_M">     0</i>
  <separator name="electronic exchange-correlation" >
   <i type="string" name="GGA">--</i>
   <i type="int" name="VOSKOWN">     0</i>
   <i type="logical" name="LHFCALC"> F  </i>
   <i type="string" name="PRECFOCK"></i>
   <i type="logical" name="LSYMGRAD"> F  </i>
   <i type="logical" name="LHFONE"> F  </i>
   <i type="logical" name="LRHFCALC"> F  </i>
   <i type="logical" name="LTHOMAS"> F  </i>
   <i type="logical" name="LMODELHF"> F  </i>
   <i name="ENCUT4O">     -1.00000000</i>
   <i type="int" name="EXXOEP">     0</i>
   <i type="int" name="FOURORBIT">     0</i>
   <i name="AEXX">      0.00000000</i>
   <i name="HFALPHA">      0.00000000</i>
   <i name="MCALPHA">      0.00000000</i>
   <i name="ALDAX">      1.00000000</i>
   <i name="AGGAX">      1.00000000</i>
   <i name="ALDAC">      1.00000000</i>
   <i name="AGGAC">      1.00000000</i>
   <i type="int" name="NKREDX">     1</i>
   <i type="int" name="NKREDY">     1</i>
   <i type="int" name="NKREDZ">     1</i>
   <i type="logical" name="SHIFTRED"> F  </i>
   <i type="logical" name="ODDONLY"> F  </i>
   <i type="logical" name="EVENONLY"> F  </i>
   <i type="int" name="LMAXFOCK">     0</i>
   <i type="int" name="NMAXFOCKAE">     0</i>
   <i type="logical" name="LFOCKAEDFT"> F  </i>
   <i name="HFSCREEN">      0.00000000</i>
   <i name="HFSCREENC">      0.00000000</i>
   <i type="int" name="NBANDSGWLOW">     0</i>
  </separator>
  <separator name="vdW DFT" >
   <i type="logical" name="LUSE_VDW"> F  </i>
   <i name="Zab_VDW">     -0.84910000</i>
   <i name="PARAM1">      0.12340000</i>
   <i name="PARAM2">      1.00000000</i>
   <i name="PARAM3">      0.00000000</i>
  </separator>
  <separator name="model GW" >
   <i type="int" name="MODEL_GW">     0</i>
   <i name="MODEL_EPS0">      3.45664605</i>
   <i name="MODEL_ALPHA">      1.00000000</i>
  </separator>
  <separator name="linear response parameters" >
   <i type="logical" name="LEPSILON"> F  </i>
   <i type="logical" name="LRPA"> F  </i>
   <i type="logical" name="LNABLA"> F  </i>
   <i type="logical" name="LVEL"> F  </i>
   <i type="int" name="KINTER">     0</i>
   <i name="CSHIFT">      0.10000000</i>
   <i name="OMEGAMAX">     -1.00000000</i>
   <i name="DEG_THRESHOLD">      0.00200000</i>
   <i name="RTIME">     -0.10000000</i>
   <i name="WPLASMAI">      0.00000000</i>
   <v name="DFIELD">      0.00000000      0.00000000      0.00000000</v>
   <v name="WPLASMA">      0.00000000      0.00000000      0.00000000      0.00000000      0.00000000      0.00000000      0.00000000      0.00000000      0.00000000</v>
  </separator>
  <separator name="orbital magnetization" >
   <i type="logical" name="NUCIND"> F  </i>
   <v name="MAGPOS">      0.00000000      0.00000000      0.00000000</v>
   <i type="logical" name="LNICSALL"> T  </i>
   <i type="logical" name="ORBITALMAG"> F  </i>
   <i type="logical" name="LMAGBLOCH"> F  </i>
   <i type="logical" name="LCHIMAG"> F  </i>
   <i type="logical" name="LGAUGE"> T  </i>
   <i type="int" name="MAGATOM">     0</i>
   <v name="MAGDIPOL">      0.00000000      0.00000000      0.00000000</v>
   <v name="AVECCONST">      0.00000000      0.00000000      0.00000000</v>
  </separator>
  <separator name="response functions" >
   <i type="logical" name="LADDER"> F  </i>
   <i type="logical" name="LRPAFORCE"> F  </i>
   <i type="logical" name="LFXC"> F  </i>
   <i type="logical" name="LHARTREE"> T  </i>
   <i type="int" name="IBSE">     0</i>
   <v type="int" name="KPOINT">    -1     0     0     0</v>
   <i type="logical" name="LTCTE"> F  </i>
   <i type="logical" name="LTETE"> F  </i>
   <i type="logical" name="LTRIPLET"> F  </i>
   <i type="logical" name="LFXCEPS"> F  </i>
   <i type="logical" name="LFXHEG"> F  </i>
   <i type="int" name="NATURALO">     2</i>
   <i type="logical" name="L2ORDER"> F  </i>
   <i type="logical" name="LMP2LT"> F  </i>
   <i type="logical" name="LUSEW"> F  </i>
   <i name="ENCUTGW">     -2.00000000</i>
   <i name="ENCUTGWSOFT">     -2.00000000</i>
   <i name="ENCUTLF">     -1.00000000</i>
   <i type="int" name="LMAXMP2">    -1</i>
   <i name="SCISSOR">      0.00000000</i>
   <i type="int" name="NOMEGA">     0</i>
   <i type="int" name="NOMEGAR">     0</i>
   <i type="int" name="NBANDSGW">    -1</i>
   <i type="int" name="NBANDSO">    -1</i>
   <i type="int" name="NBANDSV">    -1</i>
   <i type="int" name="NELM">     1</i>
   <i type="int" name="NELMHF">     1</i>
   <i type="int" name="DIM">     3</i>
   <i type="int" name="ANTIRES">     0</i>
   <i name="OMEGAMAX">    -30.00000000</i>
   <i name="OMEGAMIN">    -30.00000000</i>
   <i name="OMEGATL">   -200.00000000</i>
   <i type="int" name="OMEGAGRID">   140</i>
   <i name="CSHIFT">     -0.10000000</i>
   <i type="logical" name="SELFENERGY"> F  </i>
   <i type="logical" name="LSPECTRAL"> F  </i>
   <i type="logical" name="LSPECTRALGW"> F  </i>
   <i type="logical" name="LSINGLES"> F  </i>
   <i type="logical" name="LFERMIGW"> F  </i>
   <i type="logical" name="ODDONLYGW"> F  </i>
   <i type="logical" name="EVENONLYGW"> F  </i>
   <i type="int" name="NKREDLFX">     1</i>
   <i type="int" name="NKREDLFY">     1</i>
   <i type="int" name="NKREDLFZ">     1</i>
   <i type="int" name="MAXMEM">  2800</i>
   <i type="int" name="TELESCOPE">     0</i>
   <i type="int" name="TAUPAR">     1</i>
   <i type="int" name="OMEGAPAR">    -1</i>
   <i name="LAMBDA">      1.00000000</i>
  </separator>
  <separator name="External order field" >
   <i name="OFIELD_KAPPA">      0.00000000</i>
   <v name="OFIELD_K">      0.00000000      0.00000000      0.00000000</v>
   <i name="OFIELD_Q6_NEAR">      0.00000000</i>
   <i name="OFIELD_Q6_FAR">      0.00000000</i>
   <i name="OFIELD_A">      0.00000000</i>
  </separator>
 </parameters>
 <atominfo>
  <atoms>      64 </atoms>
  <types>       1 </types>
  <array name="atoms" >
   <dimension dim="1">ion</dimension>
   <field type="string">element</field>
   <field type="int">atomtype</field>
   <set>
    <rc><c>C </c><c>   1</c></rc>
    <rc><c>C </c><c>   1</c></rc>
    <rc><c>C </c><c>   1</c></rc>
    <rc><c>C </c><c>   1</c></rc>
    <rc><c>C </c><c>   1</c></rc>
    <rc><c>C </c><c>   1</c></rc>
    <rc><c>C </c><c>   1</c></rc>
    <rc><c>C </c><c>   1</c></rc>
    <rc><c>C </c><c>   1</c></rc>
    <rc><c>C </c><c>   1</c></rc>
    <rc><c>C </c><c>   1</c></rc>
    <rc><c>C </c><c>   1</c></rc>
    <rc><c>C </c><c>   1</c></rc>
    <rc><c>C </c><c>   1</c></rc>
    <rc><c>C </c><c>   1</c></rc>
    <rc><c>C </c><c>   1</c></rc>
    <rc><c>C </c><c>   1</c></rc>
    <rc><c>C </c><c>   1</c></rc>
    <rc><c>C </c><c>   1</c></rc>
    <rc><c>C </c><c>   1</c></rc>
    <rc><c>C </c><c>   1</c></rc>
    <rc><c>C </c><c>   1</c></rc>
    <rc><c>C </c><c>   1</c></rc>
    <rc><c>C </c><c>   1</c></rc>
    <rc><c>C </c><c>   1</c></rc>
    <rc><c>C </c><c>   1</c></rc>
    <rc><c>C </c><c>   1</c></rc>
    <rc><c>C </c><c>   1</c></rc>
    <rc><c>C </c><c>   1</c></rc>
    <rc><c>C </c><c>   1</c></rc>
    <rc><c>C </c><c>   1</c></rc>
    <rc><c>C </c><c>   1</c></rc>
    <rc><c>C </c><c>   1</c></rc>
    <rc><c>C </c><c>   1</c></rc>
    <rc><c>C </c><c>   1</c></rc>
    <rc><c>C </c><c>   1</c></rc>
    <rc><c>C </c><c>   1</c></rc>
    <rc><c>C </c><c>   1</c></rc>
    <rc><c>C </c><c>   1</c></rc>
    <rc><c>C </c><c>   1</c></rc>
    <rc><c>C </c><c>   1</c></rc>
    <rc><c>C </c><c>   1</c></rc>
    <rc><c>C </c><c>   1</c></rc>
    <rc><c>C </c><c>   1</c></rc>
    <rc><c>C </c><c>   1</c></rc>
    <rc><c>C </c><c>   1</c></rc>
    <rc><c>C </c><c>   1</c></rc>
    <rc><c>C </c><c>   1</c></rc>
    <rc><c>C </c><c>   1</c></rc>
    <rc><c>C </c><c>   1</c></rc>
    <rc><c>C </c><c>   1</c></rc>
    <rc><c>C </c><c>   1</c></rc>
    <rc><c>C </c><c>   1</c></rc>
    <rc><c>C </c><c>   1</c></rc>
    <rc><c>C </c><c>   1</c></rc>
    <rc><c>C </c><c>   1</c></rc>
    <rc><c>C </c><c>   1</c></rc>
    <rc><c>C </c><c>   1</c></rc>
    <rc><c>C </c><c>   1</c></rc>
    <rc><c>C </c><c>   1</c></rc>
    <rc><c>C </c><c>   1</c></rc>
    <rc><c>C </c><c>   1</c></rc>
    <rc><c>C </c><c>   1</c></rc>
    <rc><c>C </c><c>   1</c></rc>
   </set>
  </array>
  <array name="atomtypes" >
   <dimension dim="1">type</dimension>
   <field type="int">atomspertype</field>
   <field type="string">element</field>
   <field>mass</field>
   <field>valence</field>
   <field type="string">pseudopotential</field>
   <set>
    <rc><c>  64</c><c>C </c><c>     12.01100000</c><c>      4.00000000</c><c> PAW_PBE C 08Apr2002                    </c></rc>
   </set>
  </array>
 </atominfo>
 <structure name="initialpos" >
  <crystal>
   <varray name="basis" >
    <v>       7.17999872       0.00000000       0.00000000 </v>
    <v>      -0.35899893       7.17101797       0.00000000 </v>
    <v>      -0.35899893      -0.37742253       7.16107887 </v>
   </varray>
   <i name="volume">    368.70891149 </i>
   <varray name="rec_basis" >
    <v>       0.13927579       0.00697249       0.00734965 </v>
    <v>       0.00000000       0.13945022       0.00734968 </v>
    <v>       0.00000000       0.00000000       0.13964376 </v>
   </varray>
  </crystal>
  <varray name="positions" >
   <v>       0.12500000       0.37500000       0.12500000 </v>
   <v>       0.62500000       0.37500000       0.12500000 </v>
   <v>       0.12500000       0.87500000       0.12500000 </v>
   <v>       0.62500000       0.87500000       0.12500000 </v>
   <v>       0.12500000       0.37500000       0.62500000 </v>
   <v>       0.62500000       0.37500000       0.62500000 </v>
   <v>       0.12500000       0.87500000       0.62500000 </v>
   <v>       0.62500000       0.87500000       0.62500000 </v>
   <v>       0.00000000       0.00000000       0.25000000 </v>
   <v>       0.50000000       0.00000000       0.25000000 </v>
   <v>       0.00000000       0.50000000       0.25000000 </v>
   <v>       0.50000000       0.50000000       0.25000000 </v>
   <v>       0.00000000       0.00000000       0.75000000 </v>
   <v>       0.50000000       0.00000000       0.75000000 </v>
   <v>       0.00000000       0.50000000       0.75000000 </v>
   <v>       0.50000000       0.50000000       0.75000000 </v>
   <v>       0.12500000       0.12500000       0.37500000 </v>
   <v>       0.62500000       0.12500000       0.37500000 </v>
   <v>       0.12500000       0.62500000       0.37500000 </v>
   <v>       0.62500000       0.62500000       0.37500000 </v>
   <v>       0.12500000       0.12500000       0.87500000 </v>
   <v>       0.62500000       0.12500000       0.87500000 </v>
   <v>       0.12500000       0.62500000       0.87500000 </v>
   <v>       0.62500000       0.62500000       0.87500000 </v>
   <v>       0.00000000       0.25000000       0.00000000 </v>
   <v>       0.50000000       0.25000000       0.00000000 </v>
   <v>       0.00000000       0.75000000       0.00000000 </v>
   <v>       0.50000000       0.75000000       0.00000000 </v>
   <v>       0.00000000       0.25000000       0.50000000 </v>
   <v>       0.50000000       0.25000000       0.50000000 </v>
   <v>       0.00000000       0.75000000       0.50000000 </v>
   <v>       0.50000000       0.75000000       0.50000000 </v>
   <v>       0.37500000       0.37500000       0.37500000 </v>
   <v>       0.87500000       0.37500000       0.37500000 </v>
   <v>       0.37500000       0.87500000       0.37500000 </v>
   <v>       0.87500000       0.87500000       0.37500000 </v>
   <v>       0.37500000       0.37500000       0.87500000 </v>
   <v>       0.87500000       0.37500000       0.87500000 </v>
   <v>       0.37500000       0.87500000       0.87500000 </v>
   <v>       0.87500000       0.87500000       0.87500000 </v>
   <v>       0.25000000       0.00000000       0.00000000 </v>
   <v>       0.75000000       0.00000000       0.00000000 </v>
   <v>       0.25000000       0.50000000       0.00000000 </v>
   <v>       0.75000000       0.50000000       0.00000000 </v>
   <v>       0.25000000       0.00000000       0.50000000 </v>
   <v>       0.75000000       0.00000000       0.50000000 </v>
   <v>       0.25000000       0.50000000       0.50000000 </v>
   <v>       0.75000000       0.50000000       0.50000000 </v>
   <v>       0.37500000       0.12500000       0.12500000 </v>
   <v>       0.87500000       0.12500000       0.12500000 </v>
   <v>       0.37500000       0.62500000       0.12500000 </v>
   <v>       0.87500000       0.62500000       0.12500000 </v>
   <v>       0.37500000       0.12500000       0.62500000 </v>
   <v>       0.87500000       0.12500000       0.62500000 </v>
   <v>       0.37500000       0.62500000       0.62500000 </v>
   <v>       0.87500000       0.62500000       0.62500000 </v>
   <v>       0.25000000       0.25000000       0.25000000 </v>
   <v>       0.75000000       0.25000000       0.25000000 </v>
   <v>       0.25000000       0.75000000       0.25000000 </v>
   <v>       0.75000000       0.75000000       0.25000000 </v>
   <v>       0.25000000       0.25000000       0.75000000 </v>
   <v>       0.75000000       0.25000000       0.75000000 </v>
   <v>       0.25000000       0.75000000       0.75000000 </v>
   <v>       0.75000000       0.75000000       0.75000000 </v>
  </varray>
 </structure>
 <calculation>
  <scstep>
   <time name="dav">   21.97   21.98</time>
   <time name="total">   22.09   22.22</time>
   <energy>
    <i name="alphaZ">    905.16594893 </i>
    <i name="ewald"> -11060.83541089 </i>
    <i name="hartreedc">   -581.67469696 </i>
    <i name="XCdc">    912.21465820 </i>
    <i name="pawpsdc">   2421.21235816 </i>
    <i name="pawaedc">  -2494.84305711 </i>
    <i name="eentropy">     -0.01106844 </i>
    <i name="bandstr">    995.38573422 </i>
    <i name="atom">   9416.14232778 </i>
    <i name="e_fr_energy">    512.75679388 </i>
    <i name="e_wo_entrp">    512.76786233 </i>
    <i name="e_0_energy">    512.76232811 </i>
   </energy>
  </scstep>
  <scstep>
   <time name="dav">   27.50   27.50</time>
   <time name="total">   27.51   27.51</time>
   <energy>
    <i name="e_fr_energy">   -554.19558610 </i>
    <i name="e_wo_entrp">   -554.19558610 </i>
    <i name="e_0_energy">   -554.19558610 </i>
   </energy>
  </scstep>
  <scstep>
   <time name="dav">   27.47   27.48</time>
   <time name="total">   27.48   27.48</time>
   <energy>
    <i name="e_fr_energy">   -596.47623884 </i>
    <i name="e_wo_entrp">   -596.47623884 </i>
    <i name="e_0_energy">   -596.47623884 </i>
   </energy>
  </scstep>
  <scstep>
   <time name="dav">   26.74   26.74</time>
   <time name="total">   26.75   26.75</time>
   <energy>
    <i name="e_fr_energy">   -596.93920629 </i>
    <i name="e_wo_entrp">   -596.93920629 </i>
    <i name="e_0_energy">   -596.93920629 </i>
   </energy>
  </scstep>
  <scstep>
   <time name="dav">   26.09   26.10</time>
   <time name="total">   26.76   26.76</time>
   <energy>
    <i name="e_fr_energy">   -596.95017278 </i>
    <i name="e_wo_entrp">   -596.95017278 </i>
    <i name="e_0_energy">   -596.95017278 </i>
   </energy>
  </scstep>
  <scstep>
   <time name="dav">   25.68   25.68</time>
   <time name="total">   26.46   26.46</time>
   <energy>
    <i name="e_fr_energy">   -581.79701072 </i>
    <i name="e_wo_entrp">   -581.79701072 </i>
    <i name="e_0_energy">   -581.79701072 </i>
   </energy>
  </scstep>
  <scstep>
   <time name="dav">   26.97   26.98</time>
   <time name="total">   27.75   27.75</time>
   <energy>
    <i name="e_fr_energy">   -576.72080241 </i>
    <i name="e_wo_entrp">   -576.72080241 </i>
    <i name="e_0_energy">   -576.72080241 </i>
   </energy>
  </scstep>
  <scstep>
   <time name="dav">   25.98   25.98</time>
   <time name="total">   26.73   26.73</time>
   <energy>
    <i name="e_fr_energy">   -576.78949380 </i>
    <i name="e_wo_entrp">   -576.78949380 </i>
    <i name="e_0_energy">   -576.78949380 </i>
   </energy>
  </scstep>
  <scstep>
   <time name="dav">   26.61   26.61</time>
   <time name="total">   27.36   27.36</time>
   <energy>
    <i name="e_fr_energy">   -576.79206176 </i>
    <i name="e_wo_entrp">   -576.79206176 </i>
    <i name="e_0_energy">   -576.79206176 </i>
   </energy>
  </scstep>
  <scstep>
   <time name="dav">   25.92   25.93</time>
   <time name="total">   26.69   26.70</time>
   <energy>
    <i name="e_fr_energy">   -576.79258051 </i>
    <i name="e_wo_entrp">   -576.79258051 </i>
    <i name="e_0_energy">   -576.79258051 </i>
   </energy>
  </scstep>
  <scstep>
   <time name="dav">   27.51   27.51</time>
   <time name="total">   28.26   28.26</time>
   <energy>
    <i name="e_fr_energy">   -576.79260698 </i>
    <i name="e_wo_entrp">   -576.79260698 </i>
    <i name="e_0_energy">   -576.79260698 </i>
   </energy>
  </scstep>
  <scstep>
   <time name="dav">   26.72   26.72</time>
   <time name="total">   27.49   27.50</time>
   <energy>
    <i name="e_fr_energy">   -576.79260667 </i>
    <i name="e_wo_entrp">   -576.79260667 </i>
    <i name="e_0_energy">   -576.79260667 </i>
   </energy>
  </scstep>
  <scstep>
   <time name="dav">   26.13   26.13</time>
   <time name="total">   26.89   26.89</time>
   <energy>
    <i name="e_fr_energy">   -576.79260669 </i>
    <i name="e_wo_entrp">   -576.79260669 </i>
    <i name="e_0_energy">   -576.79260669 </i>
   </energy>
  </scstep>
  <scstep>
   <time name="dav">   21.26   21.26</time>
   <time name="total">   22.03   22.04</time>
   <energy>
    <i name="e_fr_energy">   -576.79260675 </i>
    <i name="e_wo_entrp">   -576.79260675 </i>
    <i name="e_0_energy">   -576.79260675 </i>
   </energy>
  </scstep>
  <scstep>
   <time name="dav">   19.87   19.87</time>
   <time name="total">   19.98   19.98</time>
   <energy>
    <i name="alphaZ">    905.16594893 </i>
    <i name="ewald"> -11060.83541089 </i>
    <i name="hartreedc">   -861.93616829 </i>
    <i name="XCdc">    938.41604872 </i>
    <i name="pawpsdc">   4169.43396293 </i>
    <i name="pawaedc">  -4250.21919235 </i>
    <i name="eentropy">     -0.00000000 </i>
    <i name="bandstr">    167.03987642 </i>
    <i name="atom">   9416.14232778 </i>
    <i name="e_fr_energy">   -576.79260674 </i>
    <i name="e_wo_entrp">   -576.79260674 </i>
    <i name="e_0_energy">   -576.79260674 </i>
   </energy>
  </scstep>
  <structure>
   <crystal>
    <varray name="basis" >
     <v>       7.17999872       0.00000000       0.00000000 </v>
     <v>      -0.35899893       7.17101797       0.00000000 </v>
     <v>      -0.35899893      -0.37742253       7.16107887 </v>
    </varray>
    <i name="volume">    368.70891149 </i>
    <varray name="rec_basis" >
     <v>       0.13927579       0.00697249       0.00734965 </v>
     <v>       0.00000000       0.13945022       0.00734968 </v>
     <v>       0.00000000       0.00000000       0.13964376 </v>
    </varray>
   </crystal>
   <varray name="positions" >
    <v>       0.12500000       0.37500000       0.12500000 </v>
    <v>       0.62500000       0.37500000       0.12500000 </v>
    <v>       0.12500000       0.87500000       0.12500000 </v>
    <v>       0.62500000       0.87500000       0.12500000 </v>
    <v>       0.12500000       0.37500000       0.62500000 </v>
    <v>       0.62500000       0.37500000       0.62500000 </v>
    <v>       0.12500000       0.87500000       0.62500000 </v>
    <v>       0.62500000       0.87500000       0.62500000 </v>
    <v>       0.00000000       0.00000000       0.25000000 </v>
    <v>       0.50000000       0.00000000       0.25000000 </v>
    <v>       0.00000000       0.50000000       0.25000000 </v>
    <v>       0.50000000       0.50000000       0.25000000 </v>
    <v>       0.00000000       0.00000000       0.75000000 </v>
    <v>       0.50000000       0.00000000       0.75000000 </v>
    <v>       0.00000000       0.50000000       0.75000000 </v>
    <v>       0.50000000       0.50000000       0.75000000 </v>
    <v>       0.12500000       0.12500000       0.37500000 </v>
    <v>       0.62500000       0.12500000       0.37500000 </v>
    <v>       0.12500000       0.62500000       0.37500000 </v>
    <v>       0.62500000       0.62500000       0.37500000 </v>
    <v>       0.12500000       0.12500000       0.87500000 </v>
    <v>       0.62500000       0.12500000       0.87500000 </v>
    <v>       0.12500000       0.62500000       0.87500000 </v>
    <v>       0.62500000       0.62500000       0.87500000 </v>
    <v>       0.00000000       0.25000000       0.00000000 </v>
    <v>       0.50000000       0.25000000       0.00000000 </v>
    <v>       0.00000000       0.75000000       0.00000000 </v>
    <v>       0.50000000       0.75000000       0.00000000 </v>
    <v>       0.00000000       0.25000000       0.50000000 </v>
    <v>       0.50000000       0.25000000       0.50000000 </v>
    <v>       0.00000000       0.75000000       0.50000000 </v>
    <v>       0.50000000       0.75000000       0.50000000 </v>
    <v>       0.37500000       0.37500000       0.37500000 </v>
    <v>       0.87500000       0.37500000       0.37500000 </v>
    <v>       0.37500000       0.87500000       0.37500000 </v>
    <v>       0.87500000       0.87500000       0.37500000 </v>
    <v>       0.37500000       0.37500000       0.87500000 </v>
    <v>       0.87500000       0.37500000       0.87500000 </v>
    <v>       0.37500000       0.87500000       0.87500000 </v>
    <v>       0.87500000       0.87500000       0.87500000 </v>
    <v>       0.25000000       0.00000000       0.00000000 </v>
    <v>       0.75000000       0.00000000       0.00000000 </v>
    <v>       0.25000000       0.50000000       0.00000000 </v>
    <v>       0.75000000       0.50000000       0.00000000 </v>
    <v>       0.25000000       0.00000000       0.50000000 </v>
    <v>       0.75000000       0.00000000       0.50000000 </v>
    <v>       0.25000000       0.50000000       0.50000000 </v>
    <v>       0.75000000       0.50000000       0.50000000 </v>
    <v>       0.37500000       0.12500000       0.12500000 </v>
    <v>       0.87500000       0.12500000       0.12500000 </v>
    <v>       0.37500000       0.62500000       0.12500000 </v>
    <v>       0.87500000       0.62500000       0.12500000 </v>
    <v>       0.37500000       0.12500000       0.62500000 </v>
    <v>       0.87500000       0.12500000       0.62500000 </v>
    <v>       0.37500000       0.62500000       0.62500000 </v>
    <v>       0.87500000       0.62500000       0.62500000 </v>
    <v>       0.25000000       0.25000000       0.25000000 </v>
    <v>       0.75000000       0.25000000       0.25000000 </v>
    <v>       0.25000000       0.75000000       0.25000000 </v>
    <v>       0.75000000       0.75000000       0.25000000 </v>
    <v>       0.25000000       0.25000000       0.75000000 </v>
    <v>       0.75000000       0.25000000       0.75000000 </v>
    <v>       0.25000000       0.75000000       0.75000000 </v>
    <v>       0.75000000       0.75000000       0.75000000 </v>
   </varray>
  </structure>
  <varray name="forces" >
   <v>       0.31792487       0.33423904       0.35231890 </v>
   <v>       0.31792487       0.33423904       0.35231890 </v>
   <v>       0.31792487       0.33423904       0.35231890 </v>
   <v>       0.31792487       0.33423904       0.35231890 </v>
   <v>       0.31792487       0.33423904       0.35231890 </v>
   <v>       0.31792487       0.33423904       0.35231890 </v>
   <v>       0.31792487       0.33423904       0.35231890 </v>
   <v>       0.31792487       0.33423904       0.35231890 </v>
   <v>      -0.31792487      -0.33423904      -0.35231890 </v>
   <v>      -0.31792487      -0.33423904      -0.35231890 </v>
   <v>      -0.31792487      -0.33423904      -0.35231890 </v>
   <v>      -0.31792487      -0.33423904      -0.35231890 </v>
   <v>      -0.31792487      -0.33423904      -0.35231890 </v>
   <v>      -0.31792487      -0.33423904      -0.35231890 </v>
   <v>      -0.31792487      -0.33423904      -0.35231890 </v>
   <v>      -0.31792487      -0.33423904      -0.35231890 </v>
   <v>       0.31792487       0.33423904       0.35231890 </v>
   <v>       0.31792487       0.33423904       0.35231890 </v>
   <v>       0.31792487       0.33423904       0.35231890 </v>
   <v>       0.31792487       0.33423904       0.35231890 </v>
   <v>       0.31792487       0.33423904       0.35231890 </v>
   <v>       0.31792487       0.33423904       0.35231890 </v>
   <v>       0.31792487       0.33423904       0.35231890 </v>
   <v>       0.31792487       0.33423904       0.35231890 </v>
   <v>      -0.31792487      -0.33423904      -0.35231890 </v>
   <v>      -0.31792487      -0.33423904      -0.35231890 </v>
   <v>      -0.31792487      -0.33423904      -0.35231890 </v>
   <v>      -0.31792487      -0.33423904      -0.35231890 </v>
   <v>      -0.31792487      -0.33423904      -0.35231890 </v>
   <v>      -0.31792487      -0.33423904      -0.35231890 </v>
   <v>      -0.31792487      -0.33423904      -0.35231890 </v>
   <v>      -0.31792487      -0.33423904      -0.35231890 </v>
   <v>       0.31792487       0.33423904       0.35231890 </v>
   <v>       0.31792487       0.33423904       0.35231890 </v>
   <v>       0.31792487       0.33423904       0.35231890 </v>
   <v>       0.31792487       0.33423904       0.35231890 </v>
   <v>       0.31792487       0.33423904       0.35231890 </v>
   <v>       0.31792487       0.33423904       0.35231890 </v>
   <v>       0.31792487       0.33423904       0.35231890 </v>
   <v>       0.31792487       0.33423904       0.35231890 </v>
   <v>      -0.31792487      -0.33423904      -0.35231890 </v>
   <v>      -0.31792487      -0.33423904      -0.35231890 </v>
   <v>      -0.31792487      -0.33423904      -0.35231890 </v>
   <v>      -0.31792487      -0.33423904      -0.35231890 </v>
   <v>      -0.31792487      -0.33423904      -0.35231890 </v>
   <v>      -0.31792487      -0.33423904      -0.35231890 </v>
   <v>      -0.31792487      -0.33423904      -0.35231890 </v>
   <v>      -0.31792487      -0.33423904      -0.35231890 </v>
   <v>       0.31792487       0.33423904       0.35231890 </v>
   <v>       0.31792487       0.33423904       0.35231890 </v>
   <v>       0.31792487       0.33423904       0.35231890 </v>
   <v>       0.31792487       0.33423904       0.35231890 </v>
   <v>       0.31792487       0.33423904       0.35231890 </v>
   <v>       0.31792487       0.33423904       0.35231890 </v>
   <v>       0.31792487       0.33423904       0.35231890 </v>
   <v>       0.31792487       0.33423904       0.35231890 </v>
   <v>      -0.31792487      -0.33423904      -0.35231890 </v>
   <v>      -0.31792487      -0.33423904      -0.35231890 </v>
   <v>      -0.31792487      -0.33423904      -0.35231890 </v>
   <v>      -0.31792487      -0.33423904      -0.35231890 </v>
   <v>      -0.31792487      -0.33423904      -0.35231890 </v>
   <v>      -0.31792487      -0.33423904      -0.35231890 </v>
   <v>      -0.31792487      -0.33423904      -0.35231890 </v>
   <v>      -0.31792487      -0.33423904      -0.35231890 </v>
  </varray>
  <varray name="stress" >
   <v>     -79.28742073     282.07752616     297.33584077 </v>
   <v>     282.07752616     -51.04455443     312.59357159 </v>
   <v>     297.33584077     312.59357159     -18.09425230 </v>
  </varray>
  <energy>
   <i name="e_fr_energy">   -576.79260674 </i>
   <i name="e_wo_entrp">   -576.79260674 </i>
   <i name="e_0_energy">     -0.00000000 </i>
  </energy>
  <kpoints>
   <generation param="Gamma">
    <v type="int" name="divisions">       6        6        6 </v>
    <v name="usershift">      0.00000000       0.00000000       0.00000000 </v>
    <v name="genvec1">      0.16666667      -0.00000000       0.00000000 </v>
    <v name="genvec2">      0.00000000       0.16666667       0.00000000 </v>
    <v name="genvec3">      0.00000000       0.00000000       0.16666667 </v>
    <v name="shift">      0.00000000       0.00000000       0.00000000 </v>
   </generation>
   <varray name="kpointlist" >
    <v>       0.00000000       0.00000000       0.00000000 </v>
    <v>       0.16666667      -0.00000000       0.00000000 </v>
    <v>       0.33333333      -0.00000000       0.00000000 </v>
    <v>       0.50000000       0.00000000       0.00000000 </v>
    <v>       0.00000000       0.16666667      -0.00000000 </v>
    <v>       0.16666667       0.16666667       0.00000000 </v>
    <v>       0.33333333       0.16666667      -0.00000000 </v>
    <v>       0.50000000       0.16666667       0.00000000 </v>
    <v>      -0.33333333       0.16666667      -0.00000000 </v>
    <v>      -0.16666667       0.16666667       0.00000000 </v>
    <v>       0.00000000       0.33333333      -0.00000000 </v>
    <v>       0.16666667       0.33333333       0.00000000 </v>
    <v>       0.33333333       0.33333333      -0.00000000 </v>
    <v>       0.50000000       0.33333333       0.00000000 </v>
    <v>      -0.33333333       0.33333333      -0.00000000 </v>
    <v>      -0.16666667       0.33333333      -0.00000000 </v>
    <v>       0.00000000       0.50000000      -0.00000000 </v>
    <v>       0.16666667       0.50000000      -0.00000000 </v>
    <v>       0.33333333       0.50000000       0.00000000 </v>
    <v>       0.50000000       0.50000000       0.00000000 </v>
    <v>       0.00000000       0.16666667       0.16666667 </v>
    <v>       0.16666667       0.16666667       0.16666667 </v>
    <v>       0.33333333       0.16666667       0.16666667 </v>
    <v>       0.50000000       0.16666667       0.16666667 </v>
    <v>      -0.33333333       0.16666667       0.16666667 </v>
    <v>      -0.16666667       0.16666667       0.16666667 </v>
    <v>       0.00000000       0.33333333       0.16666667 </v>
    <v>       0.16666667       0.33333333       0.16666667 </v>
    <v>       0.33333333       0.33333333       0.16666667 </v>
    <v>       0.50000000       0.33333333       0.16666667 </v>
    <v>      -0.33333333       0.33333333       0.16666667 </v>
    <v>      -0.16666667       0.33333333       0.16666667 </v>
    <v>       0.00000000       0.50000000       0.16666667 </v>
    <v>       0.16666667       0.50000000       0.16666667 </v>
    <v>       0.33333333       0.50000000       0.16666667 </v>
    <v>       0.50000000       0.50000000       0.16666667 </v>
    <v>      -0.33333333       0.50000000       0.16666667 </v>
    <v>      -0.16666667       0.50000000       0.16666667 </v>
    <v>       0.00000000      -0.33333333       0.16666667 </v>
    <v>       0.16666667      -0.33333333       0.16666667 </v>
    <v>       0.33333333      -0.33333333       0.16666667 </v>
    <v>       0.50000000      -0.33333333       0.16666667 </v>
    <v>      -0.33333333      -0.33333333       0.16666667 </v>
    <v>      -0.16666667      -0.33333333       0.16666667 </v>
    <v>       0.00000000      -0.16666667       0.16666667 </v>
    <v>       0.16666667      -0.16666667       0.16666667 </v>
    <v>       0.33333333      -0.16666667       0.16666667 </v>
    <v>       0.50000000      -0.16666667       0.16666667 </v>
    <v>       0.00000000       0.33333333       0.33333333 </v>
    <v>       0.16666667       0.33333333       0.33333333 </v>
    <v>       0.33333333       0.33333333       0.33333333 </v>
    <v>       0.50000000       0.33333333       0.33333333 </v>
    <v>      -0.33333333       0.33333333       0.33333333 </v>
    <v>      -0.16666667       0.33333333       0.33333333 </v>
    <v>       0.00000000       0.50000000       0.33333333 </v>
    <v>       0.16666667       0.50000000       0.33333333 </v>
    <v>       0.33333333       0.50000000       0.33333333 </v>
    <v>       0.50000000       0.50000000       0.33333333 </v>
    <v>      -0.33333333       0.50000000       0.33333333 </v>
    <v>      -0.16666667       0.50000000       0.33333333 </v>
    <v>       0.00000000      -0.33333333       0.33333333 </v>
    <v>       0.16666667      -0.33333333       0.33333333 </v>
    <v>       0.33333333      -0.33333333       0.33333333 </v>
    <v>       0.50000000      -0.33333333       0.33333333 </v>
    <v>       0.00000000       0.50000000       0.50000000 </v>
    <v>       0.16666667       0.50000000       0.50000000 </v>
    <v>       0.33333333       0.50000000       0.50000000 </v>
    <v>       0.50000000       0.50000000       0.50000000 </v>
   </varray>
   <varray name="weights" >
    <v>       0.00462963 </v>
    <v>       0.00925926 </v>
    <v>       0.00925926 </v>
    <v>       0.00462963 </v>
    <v>       0.01851852 </v>
    <v>       0.01851852 </v>
    <v>       0.01851852 </v>
    <v>       0.01851852 </v>
    <v>       0.01851852 </v>
    <v>       0.01851852 </v>
    <v>       0.01851852 </v>
    <v>       0.01851852 </v>
    <v>       0.01851852 </v>
    <v>       0.01851852 </v>
    <v>       0.01851852 </v>
    <v>       0.01851852 </v>
    <v>       0.00925926 </v>
    <v>       0.01851852 </v>
    <v>       0.01851852 </v>
    <v>       0.00925926 </v>
    <v>       0.00925926 </v>
    <v>       0.00925926 </v>
    <v>       0.00925926 </v>
    <v>       0.00925926 </v>
    <v>       0.00925926 </v>
    <v>       0.00925926 </v>
    <v>       0.01851852 </v>
    <v>       0.01851852 </v>
    <v>       0.01851852 </v>
    <v>       0.01851852 </v>
    <v>       0.01851852 </v>
    <v>       0.01851852 </v>
    <v>       0.01851852 </v>
    <v>       0.01851852 </v>
    <v>       0.01851852 </v>
    <v>       0.01851852 </v>
    <v>       0.01851852 </v>
    <v>       0.01851852 </v>
    <v>       0.01851852 </v>
    <v>       0.01851852 </v>
    <v>       0.01851852 </v>
    <v>       0.01851852 </v>
    <v>       0.01851852 </v>
    <v>       0.01851852 </v>
    <v>       0.00925926 </v>
    <v>       0.01851852 </v>
    <v>       0.01851852 </v>
    <v>       0.00925926 </v>
    <v>       0.00925926 </v>
    <v>       0.00925926 </v>
    <v>       0.00925926 </v>
    <v>       0.00925926 </v>
    <v>       0.00925926 </v>
    <v>       0.00925926 </v>
    <v>       0.01851852 </v>
    <v>       0.01851852 </v>
    <v>       0.01851852 </v>
    <v>       0.01851852 </v>
    <v>       0.01851852 </v>
    <v>       0.01851852 </v>
    <v>       0.00925926 </v>
    <v>       0.01851852 </v>
    <v>       0.01851852 </v>
    <v>       0.00925926 </v>
    <v>       0.00462963 </v>
    <v>       0.00925926 </v>
    <v>       0.00925926 </v>
    <v>       0.00462963 </v>
   </varray>
  </kpoints>
  <scstep>
   <time name="total">   56.02   56.02</time>
   <energy>
    <i name="e_fr_energy">   -363.09260420 </i>
    <i name="e_wo_entrp">   -363.09260420 </i>
    <i name="e_0_energy">   -363.09260420 </i>
   </energy>
  </scstep>
  <scstep>
   <time name="total">   41.81   41.81</time>
   <energy>
    <i name="e_fr_energy">   -309.23164299 </i>
    <i name="e_wo_entrp">   -309.23164299 </i>
    <i name="e_0_energy">   -309.23164299 </i>
   </energy>
  </scstep>
  <scstep>
   <time name="total">   42.34   42.34</time>
   <energy>
    <i name="e_fr_energy">   -308.82837265 </i>
    <i name="e_wo_entrp">   -308.82837265 </i>
    <i name="e_0_energy">   -308.82837265 </i>
   </energy>
  </scstep>
  <scstep>
   <time name="total">   43.05   43.06</time>
   <energy>
    <i name="e_fr_energy">   -309.47509069 </i>
    <i name="e_wo_entrp">   -309.47509069 </i>
    <i name="e_0_energy">   -309.47509069 </i>
   </energy>
  </scstep>
  <scstep>
   <time name="total">   43.54   43.55</time>
   <energy>
    <i name="e_fr_energy">   -309.68616751 </i>
    <i name="e_wo_entrp">   -309.68616751 </i>
    <i name="e_0_energy">   -309.68616751 </i>
   </energy>
  </scstep>
  <scstep>
   <time name="total">   44.10   44.10</time>
   <energy>
    <i name="e_fr_energy">   -309.64307588 </i>
    <i name="e_wo_entrp">   -309.64307588 </i>
    <i name="e_0_energy">   -309.64307588 </i>
   </energy>
  </scstep>
  <scstep>
   <time name="total">   43.66   43.67</time>
   <energy>
    <i name="e_fr_energy">   -309.62235258 </i>
    <i name="e_wo_entrp">   -309.62235258 </i>
    <i name="e_0_energy">   -309.62235258 </i>
   </energy>
  </scstep>
  <scstep>
   <time name="total">   44.29   44.29</time>
   <energy>
    <i name="e_fr_energy">   -309.62090358 </i>
    <i name="e_wo_entrp">   -309.62090358 </i>
    <i name="e_0_energy">   -309.62090358 </i>
   </energy>
  </scstep>
  <scstep>
   <time name="total">   45.10   45.10</time>
   <energy>
    <i name="e_fr_energy">   -309.62025001 </i>
    <i name="e_wo_entrp">   -309.62025001 </i>
    <i name="e_0_energy">   -309.62025001 </i>
   </energy>
  </scstep>
  <scstep>
   <time name="total">   48.26   48.27</time>
   <energy>
    <i name="e_fr_energy">   -309.62045608 </i>
    <i name="e_wo_entrp">   -309.62045608 </i>
    <i name="e_0_energy">   -309.62045608 </i>
   </energy>
  </scstep>
  <scstep>
   <time name="total">   49.33   49.33</time>
   <energy>
    <i name="e_fr_energy">   -309.62044109 </i>
    <i name="e_wo_entrp">   -309.62044109 </i>
    <i name="e_0_energy">   -309.62044109 </i>
   </energy>
  </scstep>
  <kpoints>
   <generation param="Gamma">
    <v type="int" name="divisions">       6        6        6 </v>
    <v name="usershift">      0.00000000       0.00000000       0.00000000 </v>
    <v name="genvec1">      0.16666667      -0.00000000       0.00000000 </v>
    <v name="genvec2">      0.00000000       0.16666667       0.00000000 </v>
    <v name="genvec3">      0.00000000       0.00000000       0.16666667 </v>
    <v name="shift">      0.00000000       0.00000000       0.00000000 </v>
   </generation>
   <varray name="kpointlist" >
    <v>       0.00000000       0.00000000       0.00000000 </v>
    <v>       0.16666667      -0.00000000       0.00000000 </v>
    <v>       0.33333333      -0.00000000       0.00000000 </v>
    <v>       0.50000000       0.00000000       0.00000000 </v>
    <v>       0.16666667       0.16666667       0.00000000 </v>
    <v>       0.33333333       0.16666667      -0.00000000 </v>
    <v>       0.50000000       0.16666667       0.00000000 </v>
    <v>      -0.33333333       0.16666667      -0.00000000 </v>
    <v>      -0.16666667       0.16666667       0.00000000 </v>
    <v>       0.33333333       0.33333333      -0.00000000 </v>
    <v>       0.50000000       0.33333333       0.00000000 </v>
    <v>      -0.33333333       0.33333333      -0.00000000 </v>
    <v>       0.50000000       0.50000000       0.00000000 </v>
    <v>       0.16666667       0.16666667       0.16666667 </v>
    <v>       0.33333333       0.16666667       0.16666667 </v>
    <v>       0.50000000       0.16666667       0.16666667 </v>
    <v>      -0.33333333       0.16666667       0.16666667 </v>
    <v>      -0.16666667       0.16666667       0.16666667 </v>
    <v>       0.33333333       0.33333333       0.16666667 </v>
    <v>       0.50000000       0.33333333       0.16666667 </v>
    <v>      -0.33333333       0.33333333       0.16666667 </v>
    <v>      -0.16666667       0.33333333       0.16666667 </v>
    <v>       0.50000000       0.50000000       0.16666667 </v>
    <v>      -0.33333333       0.50000000       0.16666667 </v>
    <v>      -0.16666667       0.50000000       0.16666667 </v>
    <v>      -0.33333333      -0.33333333       0.16666667 </v>
    <v>       0.33333333       0.33333333       0.33333333 </v>
    <v>       0.50000000       0.33333333       0.33333333 </v>
    <v>      -0.33333333       0.33333333       0.33333333 </v>
    <v>       0.50000000       0.50000000       0.33333333 </v>
    <v>      -0.33333333       0.50000000       0.33333333 </v>
    <v>       0.50000000       0.50000000       0.50000000 </v>
   </varray>
   <varray name="weights" >
    <v>       0.00462963 </v>
    <v>       0.02777778 </v>
    <v>       0.02777778 </v>
    <v>       0.01388889 </v>
    <v>       0.02777778 </v>
    <v>       0.05555556 </v>
    <v>       0.05555556 </v>
    <v>       0.05555556 </v>
    <v>       0.02777778 </v>
    <v>       0.02777778 </v>
    <v>       0.05555556 </v>
    <v>       0.02777778 </v>
    <v>       0.01388889 </v>
    <v>       0.00925926 </v>
    <v>       0.02777778 </v>
    <v>       0.02777778 </v>
    <v>       0.02777778 </v>
    <v>       0.02777778 </v>
    <v>       0.02777778 </v>
    <v>       0.05555556 </v>
    <v>       0.05555556 </v>
    <v>       0.05555556 </v>
    <v>       0.02777778 </v>
    <v>       0.05555556 </v>
    <v>       0.02777778 </v>
    <v>       0.02777778 </v>
    <v>       0.00925926 </v>
    <v>       0.02777778 </v>
    <v>       0.02777778 </v>
    <v>       0.02777778 </v>
    <v>       0.02777778 </v>
    <v>       0.00462963 </v>
   </varray>
  </kpoints>
  <dynmat>
   <varray name="hessian" >
    <v>      -3.56672080      -0.42739067      -0.45050935       0.01357650      -0.00025401      -0.00026775       0.00770043      -0.00054818      -0.00006812       0.00963958       0.00262984       0.00017214       0.00770043      -0.00003917      -0.00055100       0.00963958       0.00003349       0.00263526      -0.04591013      -0.00274746      -0.00289608       0.00448650      -0.00038011      -0.00040067      -0.01508678      -0.01075516       0.00335483       0.00498599      -0.00468016      -0.01619039       0.67549715      -0.07922942      -0.08351515       0.00091648      -0.00443262      -0.00467239       0.03419558      -0.01662980      -0.01752935      -0.00323277      -0.00239970      -0.00252951      -0.01508678       0.00391624      -0.01056368       0.00498599      -0.01592163      -0.00552580      -0.10919304       0.05014561      -0.05364587      -0.00352394       0.00322126      -0.00371321      -0.11594384       0.04468645       0.04710366      -0.00458494       0.00207833       0.00219075      -0.11594384      -0.07718999      -0.08136540      -0.00458494      -0.00312205      -0.00329092      -0.10919304      -0.05621077       0.04725264      -0.00352394      -0.00387760       0.00302136       0.94540304       0.44647195       0.47062279      -0.00542656       0.00607368       0.00640222      -0.01302723       0.00569317      -0.00085891       0.00294917       0.01104182       0.02024092      -0.01302723      -0.00115736       0.00564008       0.00294917       0.01963172       0.01209183       0.02195800       0.02058335       0.02169675      -0.00358330       0.00240869       0.00253898       0.13361922      -0.06469630       0.14504304       0.11545620      -0.04496423      -0.11257324       0.00698863      -0.00254264      -0.00724991       0.00710362      -0.00334556       0.00609014       0.11545620       0.06139212      -0.11211929       0.13361922       0.05718017       0.15146647       0.00710362       0.00375329       0.00481791       0.00698863       0.00265773      -0.00697583      -0.00964058       0.00893288       0.00466550       0.01233067       0.01249856      -0.01709029       0.66419680       0.07144703      -0.07614034      -0.00825881       0.00900206      -0.00995334       0.02750864       0.01757734      -0.01388822      -0.00230462       0.00333938      -0.00218050      -0.01297766       0.00262788      -0.00499681       0.00331496       0.01636614      -0.00390786       0.11545620      -0.11519506       0.05540601       0.13361922       0.14824705       0.06507285       0.13361922       0.14824708      -0.05697277       0.11545620      -0.11005067      -0.05082683       0.00710362       0.00461369       0.00400167       0.00698863      -0.00710604       0.00228690       0.00698863      -0.00710604      -0.00292069       0.00710362       0.00625778      -0.00302039       0.66419680      -0.07979518       0.06734061      -0.00825881      -0.01041334       0.00846572      -0.01297766      -0.00512820       0.00236125       0.00331496      -0.00476382       0.01613778      -0.00964058       0.00418889       0.00916605       0.01233067      -0.01772442       0.01158175       0.02750864      -0.01479409       0.01682201      -0.00230462      -0.00235324       0.00321999 </v>
    <v>      -0.42739067      -3.60951288      -0.47362631      -0.00025401       0.00766027      -0.00008161      -0.00054818       0.01353634      -0.00027149       0.00262984       0.00990290       0.00018099      -0.00003917       0.00769650      -0.00057928       0.00003349      -0.04604600      -0.00276778      -0.00274746       0.00950371       0.00249357      -0.00038011       0.00444844      -0.00042123      -0.01075516      -0.00931856       0.00864427      -0.00468016       0.00284216       0.01534745      -0.07922942       0.65623557       0.06324382      -0.00443262      -0.01345630       0.00213030      -0.01662980       0.01061080       0.01071869      -0.00239970      -0.00254256       0.00309739       0.00391624      -0.00923482       0.00864869      -0.01592163       0.02597093       0.01656644      -0.05621077       0.11571564      -0.11539989      -0.00387760       0.00709739       0.00591187      -0.07718999       0.13261741       0.14758277      -0.00312205       0.00696538      -0.00714932       0.04468645       0.13261741       0.14758277       0.00207833       0.00696538      -0.00714932       0.05014561       0.11571564      -0.10989414       0.00322126       0.00709739       0.00497519       0.44647195       0.99010576       0.49477246       0.00607368      -0.01243815      -0.00053947       0.00569317      -0.00483749       0.00636724       0.01104182       0.00405472       0.02127957      -0.00115736      -0.01314311       0.00592950       0.01963172       0.02397126       0.02232927       0.02058335       0.00496243       0.01319316       0.00240869      -0.00334213       0.00266927       0.05718017      -0.11694557       0.05442383       0.06139212      -0.10893364      -0.05934878       0.00265773      -0.00460818       0.00183054       0.00375329      -0.00353016      -0.00341297      -0.04496423      -0.10893364       0.04169882      -0.06469630      -0.11694557      -0.07388454      -0.00334556      -0.00353016       0.00326634      -0.00254264      -0.00460818      -0.00364428       0.00893288      -0.00736093      -0.00973223       0.01249856       0.01358209      -0.01796728       0.07144703       0.67135043      -0.08004761       0.00900206      -0.00874271       0.00417306       0.01757734       0.00501425      -0.00460803       0.00333938      -0.00197026      -0.00229239       0.00262788      -0.01271454      -0.00525322       0.01636614       0.02920794      -0.01410125      -0.11005067       0.10417984      -0.04811669       0.14824708       0.14846244       0.06841208       0.14824705       0.14846244      -0.05989629      -0.11519506       0.10417984       0.05293090       0.00625778       0.00764787      -0.00282384      -0.00710604       0.00627713       0.00240425      -0.00710604       0.00627713      -0.00307057       0.00461369       0.00764787       0.00385547      -0.07979518       0.66753599      -0.08024865      -0.01041334      -0.01614653       0.00378285      -0.00512820       0.00043784      -0.00456003      -0.00476382       0.00451321      -0.01540278       0.00418889      -0.01468101      -0.01011804      -0.01772442       0.03247573      -0.01697150      -0.01479409       0.00344828      -0.00469056      -0.00235324      -0.00347071      -0.00237147 </v>
    <v>      -0.45050935      -0.47362631      -3.65943752      -0.00026775      -0.00008161       0.00765166      -0.00006812      -0.00027149       0.00765166       0.00017214       0.00018099      -0.04618233      -0.00055100      -0.00057928       0.01349150       0.00263526      -0.00276778       0.00976656      -0.00289608       0.00249357       0.00976656      -0.00040067      -0.00042123       0.00440404       0.00335483       0.00864427      -0.00832340      -0.01619039       0.01534745       0.02765294      -0.08351515       0.06324382       0.66290206      -0.00467239       0.00213030      -0.01323174      -0.01752935       0.01071869       0.01174065      -0.00252951       0.00309739      -0.00221607      -0.01056368       0.00864869      -0.00840714      -0.00552580       0.01656644       0.00452417       0.04725264      -0.10989414       0.10384158       0.00302136       0.00497519       0.00767119      -0.08136540       0.14758277       0.14817402      -0.00329092      -0.00714932       0.00621178       0.04710366       0.14758277       0.14817402       0.00219075      -0.00714932       0.00621178      -0.05364587      -0.11539989       0.10384158      -0.00371321       0.00591187       0.00767119       0.47062279       0.49477246       1.04225942       0.00640222      -0.00053947      -0.01249502      -0.00085891       0.00636724      -0.01249502       0.02024092       0.02127957       0.02626965       0.00564008       0.00592950      -0.00418939       0.01209183       0.02232927       0.00635311       0.02169675       0.01319316       0.00635311       0.00253898       0.00266927      -0.00306077       0.15146647      -0.07388454       0.14817402      -0.11211929       0.04169882       0.10384158      -0.00697583      -0.00364428       0.00621178       0.00481791       0.00326634       0.00767119      -0.11257324      -0.05934878       0.10384158       0.14504304       0.05442383       0.14817402       0.00609014      -0.00341297       0.00767119      -0.00724991       0.00183054       0.00621178       0.00466550      -0.00973223      -0.01572721      -0.01709029      -0.01796728       0.03063430      -0.07614034      -0.08004761       0.65908762      -0.00995334       0.00417306      -0.01572721      -0.01388822      -0.00460803       0.00295820      -0.00218050      -0.00229239      -0.00371652      -0.00499681      -0.00525322      -0.00007937      -0.00390786      -0.01410125       0.00295820      -0.05082683       0.05293090      -0.10927189      -0.05697277      -0.05989629      -0.11723399       0.06507285       0.06841208      -0.11723399       0.05540601      -0.04811669      -0.10927189      -0.00302039       0.00385547      -0.00350684      -0.00292069      -0.00307057      -0.00467354       0.00228690       0.00240425      -0.00467354       0.00400167      -0.00282384      -0.00350684       0.06734061      -0.08024865       0.66290206       0.00846572       0.00378285      -0.00832340       0.00236125      -0.00456003      -0.01323174       0.01613778      -0.01540278       0.02765294       0.00916605      -0.01011804      -0.00840714       0.01158175      -0.01697150       0.01174065       0.01682201      -0.00469056       0.00452417       0.00321999      -0.00237147      -0.00221607 </v>
    <v>       0.01357650      -0.00025401      -0.00026775      -3.56672080      -0.42739067      -0.45050935       0.00963958       0.00262984       0.00017214       0.00770043      -0.00054818      -0.00006812       0.00963958       0.00003349       0.00263526       0.00770043      -0.00003917      -0.00055100       0.00448650      -0.00038011      -0.00040067      -0.04591013      -0.00274746      -0.00289608       0.00498599      -0.00468016      -0.01619039      -0.01508678      -0.01075516       0.00335483       0.00091648      -0.00443262      -0.00467239       0.67549715      -0.07922942      -0.08351515      -0.00323277      -0.00239970      -0.00252951       0.03419558      -0.01662980      -0.01752935       0.00498599      -0.01592163      -0.00552580      -0.01508678       0.00391624      -0.01056368      -0.00352394       0.00322126      -0.00371321      -0.10919304       0.05014561      -0.05364587      -0.00458494       0.00207833       0.00219075      -0.11594384       0.04468645       0.04710366      -0.00458494      -0.00312205      -0.00329092      -0.11594384      -0.07718999      -0.08136540      -0.00352394      -0.00387760       0.00302136      -0.10919304      -0.05621077       0.04725264      -0.00542656       0.00607368       0.00640222       0.94540304       0.44647195       0.47062279       0.00294917       0.01104182       0.02024092      -0.01302723       0.00569317      -0.00085891       0.00294917       0.01963172       0.01209183      -0.01302723      -0.00115736       0.00564008      -0.00358330       0.00240869       0.00253898       0.02195800       0.02058335       0.02169675       0.11545620      -0.04496423      -0.11257324       0.13361922      -0.06469630       0.14504304       0.00710362      -0.00334556       0.00609014       0.00698863      -0.00254264      -0.00724991       0.13361922       0.05718017       0.15146647       0.11545620       0.06139212      -0.11211929       0.00698863       0.00265773      -0.00697583       0.00710362       0.00375329       0.00481791       0.01233067       0.01249856      -0.01709029      -0.00964058       0.00893288       0.00466550      -0.00825881       0.00900206      -0.00995334       0.66419680       0.07144703      -0.07614034      -0.00230462       0.00333938      -0.00218050       0.02750864       0.01757734      -0.01388822       0.00331496       0.01636614      -0.00390786      -0.01297766       0.00262788      -0.00499681       0.13361922       0.14824705       0.06507285       0.11545620      -0.11519506       0.05540601       0.11545620      -0.11005067      -0.05082683       0.13361922       0.14824708      -0.05697277       0.00698863      -0.00710604       0.00228690       0.00710362       0.00461369       0.00400167       0.00710362       0.00625778      -0.00302039       0.00698863      -0.00710604      -0.00292069      -0.00825881      -0.01041334       0.00846572       0.66419680      -0.07979518       0.06734061       0.00331496      -0.00476382       0.01613778      -0.01297766      -0.00512820       0.00236125       0.01233067      -0.01772442       0.01158175      -0.00964058       0.00418889       0.00916605      -0.00230462      -0.00235324       0.00321999       0.02750864      -0.01479409       0.01682201 </v>
    <v>      -0.00025401       0.00766027      -0.00008161      -0.42739067      -3.60951288      -0.47362631       0.00262984       0.00990290       0.00018099      -0.00054818       0.01353634      -0.00027149       0.00003349      -0.04604600      -0.00276778      -0.00003917       0.00769650      -0.00057928      -0.00038011       0.00444844      -0.00042123      -0.00274746       0.00950371       0.00249357      -0.00468016       0.00284216       0.01534745      -0.01075516      -0.00931856       0.00864427      -0.00443262      -0.01345630       0.00213030      -0.07922942       0.65623557       0.06324382      -0.00239970      -0.00254256       0.00309739      -0.01662980       0.01061080       0.01071869      -0.01592163       0.02597093       0.01656644       0.00391624      -0.00923482       0.00864869      -0.00387760       0.00709739       0.00591187      -0.05621077       0.11571564      -0.11539989      -0.00312205       0.00696538      -0.00714932      -0.07718999       0.13261741       0.14758277       0.00207833       0.00696538      -0.00714932       0.04468645       0.13261741       0.14758277       0.00322126       0.00709739       0.00497519       0.05014561       0.11571564      -0.10989414       0.00607368      -0.01243815      -0.00053947       0.44647195       0.99010576       0.49477246       0.01104182       0.00405472       0.02127957       0.00569317      -0.00483749       0.00636724       0.01963172       0.02397126       0.02232927      -0.00115736      -0.01314311       0.00592950       0.00240869      -0.00334213       0.00266927       0.02058335       0.00496243       0.01319316       0.06139212      -0.10893364      -0.05934878       0.05718017      -0.11694557       0.05442383       0.00375329      -0.00353016      -0.00341297       0.00265773      -0.00460818       0.00183054      -0.06469630      -0.11694557      -0.07388454      -0.04496423      -0.10893364       0.04169882      -0.00254264      -0.00460818      -0.00364428      -0.00334556      -0.00353016       0.00326634       0.01249856       0.01358209      -0.01796728       0.00893288      -0.00736093      -0.00973223       0.00900206      -0.00874271       0.00417306       0.07144703       0.67135043      -0.08004761       0.00333938      -0.00197026      -0.00229239       0.01757734       0.00501425      -0.00460803       0.01636614       0.02920794      -0.01410125       0.00262788      -0.01271454      -0.00525322       0.14824708       0.14846244       0.06841208      -0.11005067       0.10417984      -0.04811669      -0.11519506       0.10417984       0.05293090       0.14824705       0.14846244      -0.05989629      -0.00710604       0.00627713       0.00240425       0.00625778       0.00764787      -0.00282384       0.00461369       0.00764787       0.00385547      -0.00710604       0.00627713      -0.00307057      -0.01041334      -0.01614653       0.00378285      -0.07979518       0.66753599      -0.08024865      -0.00476382       0.00451321      -0.01540278      -0.00512820       0.00043784      -0.00456003      -0.01772442       0.03247573      -0.01697150       0.00418889      -0.01468101      -0.01011804      -0.00235324      -0.00347071      -0.00237147      -0.01479409       0.00344828      -0.00469056 </v>
    <v>      -0.00026775      -0.00008161       0.00765166      -0.45050935      -0.47362631      -3.65943752       0.00017214       0.00018099      -0.04618233      -0.00006812      -0.00027149       0.00765166       0.00263526      -0.00276778       0.00976656      -0.00055100      -0.00057928       0.01349150      -0.00040067      -0.00042123       0.00440404      -0.00289608       0.00249357       0.00976656      -0.01619039       0.01534745       0.02765294       0.00335483       0.00864427      -0.00832340      -0.00467239       0.00213030      -0.01323174      -0.08351515       0.06324382       0.66290206      -0.00252951       0.00309739      -0.00221607      -0.01752935       0.01071869       0.01174065      -0.00552580       0.01656644       0.00452417      -0.01056368       0.00864869      -0.00840714       0.00302136       0.00497519       0.00767119       0.04725264      -0.10989414       0.10384158      -0.00329092      -0.00714932       0.00621178      -0.08136540       0.14758277       0.14817402       0.00219075      -0.00714932       0.00621178       0.04710366       0.14758277       0.14817402      -0.00371321       0.00591187       0.00767119      -0.05364587      -0.11539989       0.10384158       0.00640222      -0.00053947      -0.01249502       0.47062279       0.49477246       1.04225942       0.02024092       0.02127957       0.02626965      -0.00085891       0.00636724      -0.01249502       0.01209183       0.02232927       0.00635311       0.00564008       0.00592950      -0.00418939       0.00253898       0.00266927      -0.00306077       0.02169675       0.01319316       0.00635311      -0.11211929       0.04169882       0.10384158       0.15146647      -0.07388454       0.14817402       0.00481791       0.00326634       0.00767119      -0.00697583      -0.00364428       0.00621178       0.14504304       0.05442383       0.14817402      -0.11257324      -0.05934878       0.10384158      -0.00724991       0.00183054       0.00621178       0.00609014      -0.00341297       0.00767119      -0.01709029      -0.01796728       0.03063430       0.00466550      -0.00973223      -0.01572721      -0.00995334       0.00417306      -0.01572721      -0.07614034      -0.08004761       0.65908762      -0.00218050      -0.00229239      -0.00371652      -0.01388822      -0.00460803       0.00295820      -0.00390786      -0.01410125       0.00295820      -0.00499681      -0.00525322      -0.00007937      -0.05697277      -0.05989629      -0.11723399      -0.05082683       0.05293090      -0.10927189       0.05540601      -0.04811669      -0.10927189       0.06507285       0.06841208      -0.11723399      -0.00292069      -0.00307057      -0.00467354      -0.00302039       0.00385547      -0.00350684       0.00400167      -0.00282384      -0.00350684       0.00228690       0.00240425      -0.00467354       0.00846572       0.00378285      -0.00832340       0.06734061      -0.08024865       0.66290206       0.01613778      -0.01540278       0.02765294       0.00236125      -0.00456003      -0.01323174       0.01158175      -0.01697150       0.01174065       0.00916605      -0.01011804      -0.00840714       0.00321999      -0.00237147      -0.00221607       0.01682201      -0.00469056       0.00452417 </v>
    <v>       0.00770043      -0.00054818      -0.00006812       0.00963958       0.00262984       0.00017214      -3.56672080      -0.42739067      -0.45050935       0.01357650      -0.00025401      -0.00026775      -0.04591013      -0.00274746      -0.00289608       0.00448650      -0.00038011      -0.00040067       0.00770043      -0.00003917      -0.00055100       0.00963958       0.00003349       0.00263526       0.67549715      -0.07922942      -0.08351515       0.00091648      -0.00443262      -0.00467239      -0.01508678      -0.01075516       0.00335483       0.00498599      -0.00468016      -0.01619039      -0.01508678       0.00391624      -0.01056368       0.00498599      -0.01592163      -0.00552580       0.03419558      -0.01662980      -0.01752935      -0.00323277      -0.00239970      -0.00252951      -0.11594384       0.04468645       0.04710366      -0.00458494       0.00207833       0.00219075      -0.10919304       0.05014561      -0.05364587      -0.00352394       0.00322126      -0.00371321      -0.10919304      -0.05621077       0.04725264      -0.00352394      -0.00387760       0.00302136      -0.11594384      -0.07718999      -0.08136540      -0.00458494      -0.00312205      -0.00329092      -0.01302723       0.00569317      -0.00085891       0.00294917       0.01104182       0.02024092       0.94540304       0.44647195       0.47062279      -0.00542656       0.00607368       0.00640222       0.02195800       0.02058335       0.02169675      -0.00358330       0.00240869       0.00253898      -0.01302723      -0.00115736       0.00564008       0.00294917       0.01963172       0.01209183       0.00698863      -0.00254264      -0.00724991       0.00710362      -0.00334556       0.00609014       0.13361922      -0.06469630       0.14504304       0.11545620      -0.04496423      -0.11257324       0.00710362       0.00375329       0.00481791       0.00698863       0.00265773      -0.00697583       0.11545620       0.06139212      -0.11211929       0.13361922       0.05718017       0.15146647       0.66419680       0.07144703      -0.07614034      -0.00825881       0.00900206      -0.00995334      -0.00964058       0.00893288       0.00466550       0.01233067       0.01249856      -0.01709029      -0.01297766       0.00262788      -0.00499681       0.00331496       0.01636614      -0.00390786       0.02750864       0.01757734      -0.01388822      -0.00230462       0.00333938      -0.00218050       0.13361922       0.14824708      -0.05697277       0.11545620      -0.11005067      -0.05082683       0.11545620      -0.11519506       0.05540601       0.13361922       0.14824705       0.06507285       0.00698863      -0.00710604      -0.00292069       0.00710362       0.00625778      -0.00302039       0.00710362       0.00461369       0.00400167       0.00698863      -0.00710604       0.00228690      -0.01297766      -0.00512820       0.00236125       0.00331496      -0.00476382       0.01613778       0.66419680      -0.07979518       0.06734061      -0.00825881      -0.01041334       0.00846572       0.02750864      -0.01479409       0.01682201      -0.00230462      -0.00235324       0.00321999      -0.00964058       0.00418889       0.00916605       0.01233067      -0.01772442       0.01158175 </v>
[...]
      </set>
     </set>
    </set>
   </array>
  </eigenvalues>
  <separator name="orbital magnetization" >
   <v name="MAGDIPOLOUT">      0.00000000      0.00000000      0.00000000</v>
  </separator>
  <dos>
   <i name="efermi">      9.94962266 </i>
   <total>
    <array>
     <dimension dim="1">gridpoints</dimension>
     <dimension dim="2">spin</dimension>
     <field>energy</field>
     <field>total</field>
     <field>integrated</field>
     <set>
      <set comment="spin 1">
       <r>   -13.4057     0.0000     0.0000 </r>
       <r>   -13.2853     0.0000     0.0000 </r>
       <r>   -13.1650     0.0000     0.0000 </r>
       <r>   -13.0446     0.0000     0.0000 </r>
       <r>   -12.9243     0.0000     0.0000 </r>
       <r>   -12.8039     0.0000     0.0000 </r>
       <r>   -12.6836     0.0000     0.0000 </r>
       <r>   -12.5632     0.0000     0.0000 </r>
       <r>   -12.4429     0.0000     0.0000 </r>
       <r>   -12.3225     0.0000     0.0000 </r>
       <r>   -12.2022     0.0000     0.0000 </r>
       <r>   -12.0818     0.0000     0.0000 </r>
       <r>   -11.9615     0.0000     0.0000 </r>
       <r>   -11.8411     0.0030     0.0004 </r>
       <r>   -11.7208     0.2356     0.0287 </r>
       <r>   -11.6004     1.2206     0.1756 </r>
       <r>   -11.4801     1.4308     0.3478 </r>
       <r>   -11.3598     2.7674     0.6808 </r>
       <r>   -11.2394     1.6481     0.8792 </r>
       <r>   -11.1191     3.4096     1.2895 </r>
       <r>   -10.9987     3.0628     1.6581 </r>
       <r>   -10.8784     3.5560     2.0861 </r>
       <r>   -10.7580     2.6435     2.4042 </r>
       <r>   -10.6377     4.4887     2.9445 </r>
       <r>   -10.5173     4.4196     3.4764 </r>
       <r>   -10.3970     4.6211     4.0325 </r>
       <r>   -10.2766     3.0789     4.4030 </r>
       <r>   -10.1563     4.3505     4.9266 </r>
       <r>   -10.0359     6.1663     5.6687 </r>
       <r>    -9.9156     5.6184     6.3449 </r>
       <r>    -9.7952     4.0951     6.8378 </r>
       <r>    -9.6749     5.9779     7.5572 </r>
       <r>    -9.5545     3.9015     8.0267 </r>
       <r>    -9.4342     6.2824     8.7828 </r>
       <r>    -9.3138     7.0071     9.6261 </r>
       <r>    -9.1935     6.0019    10.3484 </r>
       <r>    -9.0731     6.8162    11.1688 </r>
       <r>    -8.9528     5.5519    11.8369 </r>
       <r>    -8.8324     5.0907    12.4496 </r>
       <r>    -8.7121     7.4441    13.3455 </r>
       <r>    -8.5917     7.5212    14.2507 </r>
       <r>    -8.4714     6.4290    15.0244 </r>
       <r>    -8.3510     8.1077    16.0001 </r>
       <r>    -8.2307     8.6174    17.0372 </r>
       <r>    -8.1103     6.6794    17.8411 </r>
       <r>    -7.9900     6.1555    18.5819 </r>
       <r>    -7.8696     7.2884    19.4591 </r>
       <r>    -7.7493     7.5746    20.3707 </r>
       <r>    -7.6289     9.8280    21.5535 </r>
       <r>    -7.5086     8.5991    22.5884 </r>
       <r>    -7.3882    10.4709    23.8485 </r>
       <r>    -7.2679     8.6695    24.8919 </r>
       <r>    -7.1475     5.6237    25.5687 </r>
       <r>    -7.0272    10.0344    26.7763 </r>
       <r>    -6.9068     9.4468    27.9133 </r>
       <r>    -6.7865     8.5352    28.9405 </r>
       <r>    -6.6661    11.1041    30.2768 </r>
       <r>    -6.5458    11.8706    31.7055 </r>
       <r>    -6.4254    10.9853    33.0275 </r>
       <r>    -6.3051    11.8706    34.4562 </r>
       <r>    -6.1847    10.1558    35.6784 </r>
       <r>    -6.0644    15.8284    37.5833 </r>
       <r>    -5.9440     9.6918    38.7497 </r>
       <r>    -5.8237     6.7302    39.5597 </r>
       <r>    -5.7033     8.9869    40.6413 </r>
       <r>    -5.5830    15.6284    42.5221 </r>
       <r>    -5.4626    11.9926    43.9655 </r>
       <r>    -5.3423     8.8386    45.0292 </r>
       <r>    -5.2219    11.6760    46.4344 </r>
       <r>    -5.1016     8.9452    47.5109 </r>
       <r>    -4.9812    11.3016    48.8711 </r>
       <r>    -4.8609     9.4020    50.0026 </r>
       <r>    -4.7405    11.0378    51.3310 </r>
       <r>    -4.6202     4.5730    51.8813 </r>
       <r>    -4.4998     7.7901    52.8189 </r>
       <r>    -4.3795     9.6937    53.9855 </r>
       <r>    -4.2591    11.1066    55.3222 </r>
       <r>    -4.1388    11.1480    56.6638 </r>
       <r>    -4.0184    10.3241    57.9063 </r>
       <r>    -3.8981     5.8733    58.6132 </r>
       <r>    -3.7777     4.9822    59.2128 </r>
       <r>    -3.6574     6.2297    59.9625 </r>
       <r>    -3.5370     6.5160    60.7467 </r>
       <r>    -3.4167     8.1215    61.7241 </r>
       <r>    -3.2963     9.3739    62.8523 </r>
       <r>    -3.1760     9.4874    63.9941 </r>
       <r>    -3.0556     8.5790    65.0266 </r>
       <r>    -2.9353     7.1401    65.8859 </r>
       <r>    -2.8149     7.2042    66.7529 </r>
       <r>    -2.6946     9.2816    67.8699 </r>
       <r>    -2.5742     6.5469    68.6578 </r>
       <r>    -2.4539     9.1873    69.7635 </r>
       <r>    -2.3335    11.0116    71.0888 </r>
       <r>    -2.2132    10.5352    72.3567 </r>
       <r>    -2.0928    15.0574    74.1688 </r>
       <r>    -1.9725    12.2044    75.6376 </r>
       <r>    -1.8521    14.7415    77.4118 </r>
       <r>    -1.7318    22.4554    80.1143 </r>
       <r>    -1.6114    19.2384    82.4296 </r>
       <r>    -1.4911    15.7664    84.3271 </r>
       <r>    -1.3707    18.1413    86.5103 </r>
       <r>    -1.2504    13.9393    88.1879 </r>
       <r>    -1.1300    14.1524    89.8912 </r>
       <r>    -1.0097    10.8381    91.1955 </r>
       <r>    -0.8893    12.3265    92.6790 </r>
       <r>    -0.7690    11.5297    94.0666 </r>
       <r>    -0.6487    10.3853    95.3165 </r>
       <r>    -0.5283    12.8434    96.8621 </r>
       <r>    -0.4080     8.9578    97.9402 </r>
       <r>    -0.2876     9.2801    99.0571 </r>
       <r>    -0.1673    10.2706   100.2931 </r>
       <r>    -0.0469     8.5676   101.3242 </r>
       <r>     0.0734     7.7051   102.2515 </r>
       <r>     0.1938     9.7076   103.4198 </r>
       <r>     0.3141     7.6778   104.3438 </r>
       <r>     0.4345    11.6240   105.7428 </r>
       <r>     0.5548    12.8940   107.2946 </r>
       <r>     0.6752    10.0516   108.5043 </r>
       <r>     0.7955    15.8823   110.4157 </r>
       <r>     0.9159    16.9024   112.4499 </r>
       <r>     1.0362    16.2762   114.4087 </r>
       <r>     1.1566    17.7757   116.5480 </r>
       <r>     1.2769    20.1301   118.9707 </r>
       <r>     1.3973    14.2033   120.6800 </r>
       <r>     1.5176    11.8813   122.1100 </r>
       <r>     1.6380    17.1604   124.1752 </r>
       <r>     1.7583    14.2202   125.8866 </r>
       <r>     1.8787    17.4896   127.9914 </r>
       <r>     1.9990    21.2426   130.5480 </r>
       <r>     2.1194    21.3031   133.1118 </r>
       <r>     2.2397    15.9340   135.0294 </r>
       <r>     2.3601    13.6110   136.6675 </r>
       <r>     2.4804    17.3635   138.7572 </r>
       <r>     2.6008    17.7541   140.8939 </r>
       <r>     2.7211    20.0014   143.3011 </r>
       <r>     2.8415    23.9075   146.1783 </r>
       <r>     2.9618    21.8018   148.8022 </r>
       <r>     3.0822    24.2009   151.7147 </r>
       <r>     3.2025    19.8725   154.1064 </r>
       <r>     3.3229    24.2624   157.0263 </r>
       <r>     3.4432    19.1554   159.3317 </r>
       <r>     3.5636    17.8819   161.4837 </r>
       <r>     3.6839    20.0326   163.8947 </r>
       <r>     3.8043    32.0241   167.7487 </r>
       <r>     3.9246    26.1382   170.8945 </r>
       <r>     4.0450    24.5559   173.8497 </r>
       <r>     4.1653    20.4069   176.3057 </r>
       <r>     4.2857    24.3385   179.2348 </r>
       <r>     4.4060    23.9139   182.1129 </r>
       <r>     4.5264    24.3315   185.0411 </r>
       <r>     4.6467    24.2398   187.9584 </r>
       <r>     4.7671    21.1824   190.5077 </r>
       <r>     4.8874    26.4614   193.6923 </r>
       <r>     5.0078    27.9427   197.0552 </r>
       <r>     5.1281    17.8442   199.2027 </r>
       <r>     5.2485    22.8778   201.9560 </r>
       <r>     5.3688    18.7923   204.2177 </r>
       <r>     5.4892    24.8394   207.2071 </r>
       <r>     5.6095    25.8145   210.3139 </r>
       <r>     5.7299    22.2230   212.9884 </r>
       <r>     5.8502    21.3740   215.5607 </r>
       <r>     5.9706    17.0946   217.6181 </r>
       <r>     6.0909    21.7599   220.2369 </r>
       <r>     6.2113    21.6758   222.8455 </r>
       <r>     6.3316    23.4167   225.6637 </r>
       <r>     6.4520    20.1621   228.0902 </r>
       <r>     6.5723    16.1003   230.0279 </r>
       <r>     6.6927    17.4880   232.1325 </r>
       <r>     6.8130    17.4918   234.2377 </r>
       <r>     6.9334    17.6390   236.3605 </r>
       <r>     7.0537    21.4671   238.9441 </r>
       <r>     7.1741    15.3685   240.7936 </r>
       <r>     7.2944     9.2467   241.9065 </r>
       <r>     7.4148    11.1678   243.2505 </r>
       <r>     7.5351    12.7405   244.7838 </r>
       <r>     7.6555    12.8382   246.3289 </r>
       <r>     7.7758    10.1629   247.5520 </r>
       <r>     7.8962     5.8279   248.2534 </r>
       <r>     8.0165     9.3706   249.3811 </r>
       <r>     8.1369     5.7392   250.0718 </r>
       <r>     8.2572     9.3065   251.1919 </r>
       <r>     8.3776     6.9079   252.0232 </r>
       <r>     8.4979     3.9472   252.4983 </r>
       <r>     8.6183     5.2103   253.1253 </r>
       <r>     8.7386     6.1374   253.8640 </r>
       <r>     8.8590     3.9091   254.3344 </r>
       <r>     8.9793     4.0266   254.8190 </r>
       <r>     9.0997     1.9167   255.0497 </r>
       <r>     9.2200     3.7512   255.5012 </r>
       <r>     9.3404     2.4412   255.7950 </r>
       <r>     9.4607     0.9813   255.9131 </r>
       <r>     9.5811     0.5960   255.9848 </r>
       <r>     9.7014     0.1254   255.9999 </r>
       <r>     9.8218     0.0011   256.0000 </r>
       <r>     9.9421     0.0000   256.0000 </r>
       <r>    10.0625     0.0000   256.0000 </r>
       <r>    10.1828     0.0000   256.0000 </r>
       <r>    10.3031     0.0000   256.0000 </r>
       <r>    10.4235     0.0000   256.0000 </r>
       <r>    10.5438     0.0000   256.0000 </r>
       <r>    10.6642     0.0000   256.0000 </r>
       <r>    10.7845     0.0000   256.0000 </r>
       <r>    10.9049     0.0000   256.0000 </r>
       <r>    11.0252     0.0000   256.0000 </r>
       <r>    11.1456     0.0000   256.0000 </r>
       <r>    11.2659     0.0000   256.0000 </r>
       <r>    11.3863     0.0000   256.0000 </r>
       <r>    11.5066     0.0000   256.0000 </r>
       <r>    11.6270     0.0000   256.0000 </r>
       <r>    11.7473     0.0000   256.0000 </r>
       <r>    11.8677     0.0000   256.0000 </r>
       <r>    11.9880     0.0000   256.0000 </r>
       <r>    12.1084     0.0000   256.0000 </r>
       <r>    12.2287     0.0000   256.0000 </r>
       <r>    12.3491     0.0000   256.0000 </r>
       <r>    12.4694     0.0000   256.0000 </r>
       <r>    12.5898     0.0000   256.0000 </r>
       <r>    12.7101     0.0000   256.0000 </r>
       <r>    12.8305     0.0000   256.0000 </r>
       <r>    12.9508     0.0000   256.0000 </r>
       <r>    13.0712     0.0000   256.0000 </r>
       <r>    13.1915     0.0092   256.0011 </r>
       <r>    13.3119     0.7781   256.0948 </r>
       <r>    13.4322     1.7023   256.2996 </r>
       <r>    13.5526     4.2819   256.8150 </r>
       <r>    13.6729     4.6880   257.3792 </r>
       <r>    13.7933     4.6375   257.9373 </r>
       <r>    13.9136     5.0108   258.5403 </r>
       <r>    14.0340     4.9298   259.1336 </r>
       <r>    14.1543     5.7155   259.8215 </r>
       <r>    14.2747     9.5308   260.9685 </r>
       <r>    14.3950     8.6554   262.0102 </r>
       <r>    14.5154     8.4652   263.0290 </r>
       <r>    14.6357     9.0774   264.1214 </r>
       <r>    14.7561     9.1762   265.2258 </r>
       <r>    14.8764    14.3023   266.9470 </r>
       <r>    14.9968    11.8485   268.3730 </r>
       <r>    15.1171    12.4772   269.8746 </r>
       <r>    15.2375     9.9819   271.0759 </r>
       <r>    15.3578    13.5708   272.7092 </r>
       <r>    15.4782    13.6541   274.3524 </r>
       <r>    15.5985    11.9416   275.7896 </r>
       <r>    15.7189    15.8522   277.6974 </r>
       <r>    15.8392    18.3451   279.9052 </r>
       <r>    15.9596    15.9144   281.8205 </r>
       <r>    16.0799    21.8265   284.4473 </r>
       <r>    16.2003    19.7836   286.8283 </r>
       <r>    16.3206    18.5164   289.0567 </r>
       <r>    16.4410    16.4493   291.0364 </r>
       <r>    16.5613    18.8671   293.3070 </r>
       <r>    16.6817    24.8644   296.2994 </r>
       <r>    16.8020    25.6637   299.3881 </r>
       <r>    16.9224    32.4406   303.2923 </r>
       <r>    17.0427    31.8466   307.1250 </r>
       <r>    17.1631    25.1791   310.1553 </r>
       <r>    17.2834    29.2881   313.6801 </r>
       <r>    17.4038    31.3202   317.4494 </r>
       <r>    17.5241    31.3490   321.2223 </r>
       <r>    17.6445    35.5309   325.4984 </r>
       <r>    17.7648    32.8717   329.4545 </r>
       <r>    17.8852    28.6853   332.9068 </r>
       <r>    18.0055    26.5615   336.1034 </r>
       <r>    18.1259    33.2662   340.1070 </r>
       <r>    18.2462    28.0191   343.4791 </r>
       <r>    18.3666    18.9489   345.7595 </r>
       <r>    18.4869    19.0689   348.0545 </r>
       <r>    18.6073    23.8940   350.9301 </r>
       <r>    18.7276    25.5351   354.0033 </r>
       <r>    18.8480    22.0732   356.6598 </r>
       <r>    18.9683    23.0334   359.4318 </r>
       <r>    19.0887    29.6245   362.9971 </r>
       <r>    19.2090    26.0506   366.1323 </r>
       <r>    19.3294    22.8299   368.8799 </r>
       <r>    19.4497    21.6408   371.4843 </r>
       <r>    19.5701    28.4414   374.9072 </r>
       <r>    19.6904    20.6052   377.3870 </r>
       <r>    19.8108    21.4334   379.9665 </r>
       <r>    19.9311    16.2588   381.9233 </r>
       <r>    20.0515     6.0946   382.6568 </r>
       <r>    20.1718     3.6786   383.0995 </r>
       <r>    20.2922     2.3852   383.3865 </r>
       <r>    20.4125     2.7535   383.7179 </r>
       <r>    20.5329     0.9498   383.8322 </r>
       <r>    20.6532     0.6045   383.9050 </r>
       <r>    20.7736     0.0452   383.9104 </r>
       <r>    20.8939     0.3863   383.9569 </r>
       <r>    21.0142     0.0968   383.9686 </r>
       <r>    21.1346     0.2503   383.9987 </r>
       <r>    21.2549     0.0109   384.0000 </r>
       <r>    21.3753     0.0000   384.0000 </r>
       <r>    21.4956     0.0000   384.0000 </r>
       <r>    21.6160     0.0000   384.0000 </r>
       <r>    21.7363     0.0000   384.0000 </r>
       <r>    21.8567     0.0000   384.0000 </r>
       <r>    21.9770     0.0000   384.0000 </r>
       <r>    22.0974     0.0000   384.0000 </r>
       <r>    22.2177     0.0000   384.0000 </r>
       <r>    22.3381     0.0000   384.0000 </r>
       <r>    22.4584     0.0000   384.0000 </r>
       <r>    22.5788     0.0000   384.0000 </r>
       <r>    22.6991     0.0000   384.0000 </r>
      </set>
     </set>
    </array>
   </total>
  </dos>
 </calculation>
 <structure name="finalpos" >
  <crystal>
   <varray name="basis" >
    <v>       7.17999872       0.00000000       0.00000000 </v>
    <v>      -0.35899893       7.17101797       0.00000000 </v>
    <v>      -0.35899893      -0.37742253       7.16107887 </v>
   </varray>
   <i name="volume">    368.70891149 </i>
   <varray name="rec_basis" >
    <v>       0.13927579       0.00697249       0.00734965 </v>
    <v>       0.00000000       0.13945022       0.00734968 </v>
    <v>       0.00000000       0.00000000       0.13964376 </v>
   </varray>
  </crystal>
  <varray name="positions" >
   <v>       0.12500000       0.37500000       0.12500000 </v>
   <v>       0.62500000       0.37500000       0.12500000 </v>
   <v>       0.12500000       0.87500000       0.12500000 </v>
   <v>       0.62500000       0.87500000       0.12500000 </v>
   <v>       0.12500000       0.37500000       0.62500000 </v>
   <v>       0.62500000       0.37500000       0.62500000 </v>
   <v>       0.12500000       0.87500000       0.62500000 </v>
   <v>       0.62500000       0.87500000       0.62500000 </v>
   <v>       0.00000000       0.00000000       0.25000000 </v>
   <v>       0.50000000       0.00000000       0.25000000 </v>
   <v>       0.00000000       0.50000000       0.25000000 </v>
   <v>       0.50000000       0.50000000       0.25000000 </v>
   <v>       0.00000000       0.00000000       0.75000000 </v>
   <v>       0.50000000       0.00000000       0.75000000 </v>
   <v>       0.00000000       0.50000000       0.75000000 </v>
   <v>       0.50000000       0.50000000       0.75000000 </v>
   <v>       0.12500000       0.12500000       0.37500000 </v>
   <v>       0.62500000       0.12500000       0.37500000 </v>
   <v>       0.12500000       0.62500000       0.37500000 </v>
   <v>       0.62500000       0.62500000       0.37500000 </v>
   <v>       0.12500000       0.12500000       0.87500000 </v>
   <v>       0.62500000       0.12500000       0.87500000 </v>
   <v>       0.12500000       0.62500000       0.87500000 </v>
   <v>       0.62500000       0.62500000       0.87500000 </v>
   <v>       0.00000000       0.25000000       0.00000000 </v>
   <v>       0.50000000       0.25000000       0.00000000 </v>
   <v>       0.00000000       0.75000000       0.00000000 </v>
   <v>       0.50000000       0.75000000       0.00000000 </v>
   <v>       0.00000000       0.25000000       0.50000000 </v>
   <v>       0.50000000       0.25000000       0.50000000 </v>
   <v>       0.00000000       0.75000000       0.50000000 </v>
   <v>       0.50000000       0.75000000       0.50000000 </v>
   <v>       0.37500000       0.37500000       0.37500000 </v>
   <v>       0.87500000       0.37500000       0.37500000 </v>
   <v>       0.37500000       0.87500000       0.37500000 </v>
   <v>       0.87500000       0.87500000       0.37500000 </v>
   <v>       0.37500000       0.37500000       0.87500000 </v>
   <v>       0.87500000       0.37500000       0.87500000 </v>
   <v>       0.37500000       0.87500000       0.87500000 </v>
   <v>       0.87500000       0.87500000       0.87500000 </v>
   <v>       0.25000000       0.00000000       0.00000000 </v>
   <v>       0.75000000       0.00000000       0.00000000 </v>
   <v>       0.25000000       0.50000000       0.00000000 </v>
   <v>       0.75000000       0.50000000       0.00000000 </v>
   <v>       0.25000000       0.00000000       0.50000000 </v>
   <v>       0.75000000       0.00000000       0.50000000 </v>
   <v>       0.25000000       0.50000000       0.50000000 </v>
   <v>       0.75000000       0.50000000       0.50000000 </v>
   <v>       0.37500000       0.12500000       0.12500000 </v>
   <v>       0.87500000       0.12500000       0.12500000 </v>
   <v>       0.37500000       0.62500000       0.12500000 </v>
   <v>       0.87500000       0.62500000       0.12500000 </v>
   <v>       0.37500000       0.12500000       0.62500000 </v>
   <v>       0.87500000       0.12500000       0.62500000 </v>
   <v>       0.37500000       0.62500000       0.62500000 </v>
   <v>       0.87500000       0.62500000       0.62500000 </v>
   <v>       0.25000000       0.25000000       0.25000000 </v>
   <v>       0.75000000       0.25000000       0.25000000 </v>
   <v>       0.25000000       0.75000000       0.25000000 </v>
   <v>       0.75000000       0.75000000       0.25000000 </v>
   <v>       0.25000000       0.25000000       0.75000000 </v>
   <v>       0.75000000       0.25000000       0.75000000 </v>
   <v>       0.25000000       0.75000000       0.75000000 </v>
   <v>       0.75000000       0.75000000       0.75000000 </v>
  </varray>
 </structure>
</modeling>
