   8   8   0   0
  0.6161573E+01  0.3713908E-09  0.3713908E-09  0.3573710E-09  0.2000000E-16
  1.000000000000000E-004
  CAR 
 unknown system                          
     21.37094543    -13.38245685  301      8.98280558      1.00000000
    -13.382  0.0000E+00  0.0000E+00
    -13.267  0.0000E+00  0.0000E+00
    -13.151  0.0000E+00  0.0000E+00
    -13.035  0.0000E+00  0.0000E+00
    -12.919  0.0000E+00  0.0000E+00
    -12.803  0.0000E+00  0.0000E+00
    -12.687  0.0000E+00  0.0000E+00
    -12.572  0.0000E+00  0.0000E+00
    -12.456  0.0000E+00  0.0000E+00
    -12.340  0.0000E+00  0.0000E+00
    -12.224  0.0000E+00  0.0000E+00
    -12.108  0.0000E+00  0.0000E+00
    -11.992  0.0000E+00  0.0000E+00
    -11.876  0.0000E+00  0.0000E+00
    -11.761  0.3701E-01  0.5197E-03
    -11.645  0.1628E+00  0.1503E-01
    -11.529  0.2546E+00  0.3924E-01
    -11.413  0.2887E+00  0.7038E-01
    -11.297  0.3391E+00  0.1068E+00
    -11.181  0.3814E+00  0.1489E+00
    -11.066  0.4122E+00  0.1948E+00
    -10.950  0.4456E+00  0.2444E+00
    -10.834  0.4855E+00  0.2984E+00
    -10.718  0.5108E+00  0.3561E+00
    -10.602  0.5353E+00  0.4167E+00
    -10.486  0.5633E+00  0.4803E+00
    -10.370  0.5936E+00  0.5473E+00
    -10.255  0.6196E+00  0.6177E+00
    -10.139  0.6424E+00  0.6909E+00
    -10.023  0.6644E+00  0.7665E+00
     -9.907  0.6876E+00  0.8448E+00
     -9.791  0.7122E+00  0.9259E+00
     -9.675  0.7383E+00  0.1010E+01
     -9.560  0.7598E+00  0.1097E+01
     -9.444  0.7796E+00  0.1186E+01
     -9.328  0.7997E+00  0.1277E+01
     -9.212  0.8213E+00  0.1371E+01
     -9.096  0.8439E+00  0.1468E+01
     -8.980  0.8674E+00  0.1567E+01
     -8.865  0.8886E+00  0.1669E+01
     -8.749  0.9093E+00  0.1773E+01
     -8.633  0.9295E+00  0.1879E+01
     -8.517  0.9506E+00  0.1988E+01
     -8.401  0.9723E+00  0.2099E+01
     -8.285  0.9987E+00  0.2213E+01
     -8.169  0.1038E+01  0.2332E+01
     -8.054  0.1098E+01  0.2456E+01
     -7.938  0.1139E+01  0.2585E+01
     -7.822  0.1174E+01  0.2720E+01
     -7.706  0.1168E+01  0.2855E+01
     -7.590  0.1148E+01  0.2989E+01
     -7.474  0.1130E+01  0.3122E+01
     -7.359  0.1147E+01  0.3253E+01
     -7.243  0.1158E+01  0.3387E+01
     -7.127  0.1170E+01  0.3522E+01
     -7.011  0.1222E+01  0.3660E+01
     -6.895  0.1298E+01  0.3805E+01
     -6.779  0.1358E+01  0.3959E+01
     -6.663  0.1460E+01  0.4121E+01
     -6.548  0.1644E+01  0.4299E+01
     -6.432  0.1753E+01  0.4499E+01
     -6.316  0.1626E+01  0.4695E+01
     -6.200  0.1650E+01  0.4885E+01
     -6.084  0.1590E+01  0.5077E+01
     -5.968  0.1517E+01  0.5256E+01
     -5.853  0.1497E+01  0.5430E+01
     -5.737  0.1521E+01  0.5603E+01
     -5.621  0.1414E+01  0.5773E+01
     -5.505  0.1368E+01  0.5936E+01
     -5.389  0.1323E+01  0.6091E+01
     -5.273  0.1290E+01  0.6243E+01
     -5.157  0.1287E+01  0.6392E+01
     -5.042  0.1239E+01  0.6537E+01
     -4.926  0.1188E+01  0.6678E+01
     -4.810  0.1165E+01  0.6813E+01
     -4.694  0.1096E+01  0.6943E+01
     -4.578  0.1061E+01  0.7068E+01
     -4.462  0.1045E+01  0.7189E+01
     -4.347  0.1049E+01  0.7309E+01
     -4.231  0.9590E+00  0.7424E+01
     -4.115  0.9003E+00  0.7532E+01
     -3.999  0.8179E+00  0.7631E+01
     -3.883  0.7389E+00  0.7721E+01
     -3.767  0.8126E+00  0.7806E+01
     -3.652  0.7825E+00  0.7906E+01
     -3.536  0.8508E+00  0.7997E+01
     -3.420  0.8228E+00  0.8095E+01
     -3.304  0.8268E+00  0.8191E+01
     -3.188  0.9482E+00  0.8289E+01
     -3.072  0.1034E+01  0.8403E+01
     -2.956  0.1145E+01  0.8528E+01
     -2.841  0.1330E+01  0.8671E+01
     -2.725  0.1609E+01  0.8841E+01
     -2.609  0.1901E+01  0.9044E+01
     -2.493  0.2347E+01  0.9286E+01
     -2.377  0.3085E+01  0.9612E+01
     -2.261  0.2889E+01  0.9953E+01
     -2.146  0.2618E+01  0.1028E+02
     -2.030  0.2180E+01  0.1056E+02
     -1.914  0.1924E+01  0.1079E+02
     -1.798  0.1777E+01  0.1101E+02
     -1.682  0.1661E+01  0.1121E+02
     -1.566  0.1578E+01  0.1139E+02
     -1.450  0.1541E+01  0.1157E+02
     -1.335  0.1528E+01  0.1175E+02
     -1.219  0.1609E+01  0.1193E+02
     -1.103  0.1298E+01  0.1208E+02
     -0.987  0.1227E+01  0.1223E+02
     -0.871  0.1186E+01  0.1237E+02
     -0.755  0.1159E+01  0.1251E+02
     -0.640  0.1131E+01  0.1264E+02
     -0.524  0.1109E+01  0.1277E+02
     -0.408  0.1070E+01  0.1289E+02
     -0.292  0.9909E+00  0.1301E+02
     -0.176  0.1004E+01  0.1313E+02
     -0.060  0.1185E+01  0.1325E+02
      0.056  0.1338E+01  0.1340E+02
      0.171  0.1457E+01  0.1356E+02
      0.287  0.1602E+01  0.1374E+02
      0.403  0.1942E+01  0.1394E+02
      0.519  0.2276E+01  0.1418E+02
      0.635  0.2575E+01  0.1447E+02
      0.751  0.2487E+01  0.1476E+02
      0.866  0.2335E+01  0.1504E+02
      0.982  0.2173E+01  0.1530E+02
      1.098  0.1956E+01  0.1554E+02
      1.214  0.1550E+01  0.1575E+02
      1.330  0.1732E+01  0.1594E+02
      1.446  0.1954E+01  0.1615E+02
      1.562  0.2188E+01  0.1639E+02
      1.677  0.2493E+01  0.1666E+02
      1.793  0.2533E+01  0.1695E+02
      1.909  0.2473E+01  0.1725E+02
      2.025  0.2405E+01  0.1753E+02
      2.141  0.2402E+01  0.1780E+02
      2.257  0.2728E+01  0.1810E+02
      2.372  0.3296E+01  0.1844E+02
      2.488  0.3261E+01  0.1884E+02
      2.604  0.2892E+01  0.1919E+02
      2.720  0.2652E+01  0.1951E+02
      2.836  0.2586E+01  0.1982E+02
      2.952  0.2660E+01  0.2012E+02
      3.067  0.3392E+01  0.2047E+02
      3.183  0.3923E+01  0.2090E+02
      3.299  0.3734E+01  0.2134E+02
      3.415  0.3601E+01  0.2175E+02
      3.531  0.3312E+01  0.2215E+02
      3.647  0.2935E+01  0.2252E+02
      3.763  0.2813E+01  0.2284E+02
      3.878  0.3066E+01  0.2319E+02
      3.994  0.3112E+01  0.2354E+02
      4.110  0.3166E+01  0.2390E+02
      4.226  0.3206E+01  0.2427E+02
      4.342  0.3132E+01  0.2464E+02
      4.458  0.3158E+01  0.2500E+02
      4.573  0.3262E+01  0.2538E+02
      4.689  0.3118E+01  0.2575E+02
      4.805  0.2819E+01  0.2609E+02
      4.921  0.2684E+01  0.2641E+02
      5.037  0.2613E+01  0.2672E+02
      5.153  0.2673E+01  0.2702E+02
      5.269  0.2760E+01  0.2734E+02
      5.384  0.2910E+01  0.2766E+02
      5.500  0.2951E+01  0.2800E+02
      5.616  0.2951E+01  0.2834E+02
      5.732  0.2709E+01  0.2867E+02
      5.848  0.2554E+01  0.2897E+02
      5.964  0.2471E+01  0.2926E+02
      6.079  0.2181E+01  0.2953E+02
      6.195  0.2381E+01  0.2978E+02
      6.311  0.1900E+01  0.3005E+02
      6.427  0.1716E+01  0.3025E+02
      6.543  0.1529E+01  0.3044E+02
      6.659  0.1394E+01  0.3061E+02
      6.775  0.1300E+01  0.3077E+02
      6.890  0.1230E+01  0.3091E+02
      7.006  0.1129E+01  0.3105E+02
      7.122  0.1039E+01  0.3117E+02
      7.238  0.9317E+00  0.3129E+02
      7.354  0.8476E+00  0.3139E+02
      7.470  0.7965E+00  0.3149E+02
      7.585  0.7414E+00  0.3158E+02
      7.701  0.6611E+00  0.3166E+02
      7.817  0.5730E+00  0.3173E+02
      7.933  0.5039E+00  0.3179E+02
      8.049  0.4628E+00  0.3185E+02
      8.165  0.3567E+00  0.3189E+02
      8.280  0.2804E+00  0.3193E+02
      8.396  0.1977E+00  0.3196E+02
      8.512  0.1247E+00  0.3198E+02
      8.628  0.8269E-01  0.3199E+02
      8.744  0.5053E-01  0.3200E+02
      8.860  0.8906E-02  0.3200E+02
      8.976  0.0000E+00  0.3200E+02
      9.091  0.0000E+00  0.3200E+02
      9.207  0.0000E+00  0.3200E+02
      9.323  0.0000E+00  0.3200E+02
      9.439  0.0000E+00  0.3200E+02
      9.555  0.0000E+00  0.3200E+02
      9.671  0.0000E+00  0.3200E+02
      9.786  0.0000E+00  0.3200E+02
      9.902  0.0000E+00  0.3200E+02
     10.018  0.0000E+00  0.3200E+02
     10.134  0.0000E+00  0.3200E+02
     10.250  0.0000E+00  0.3200E+02
     10.366  0.0000E+00  0.3200E+02
     10.482  0.0000E+00  0.3200E+02
     10.597  0.0000E+00  0.3200E+02
     10.713  0.0000E+00  0.3200E+02
     10.829  0.0000E+00  0.3200E+02
     10.945  0.0000E+00  0.3200E+02
     11.061  0.0000E+00  0.3200E+02
     11.177  0.0000E+00  0.3200E+02
     11.292  0.0000E+00  0.3200E+02
     11.408  0.0000E+00  0.3200E+02
     11.524  0.0000E+00  0.3200E+02
     11.640  0.0000E+00  0.3200E+02
     11.756  0.0000E+00  0.3200E+02
     11.872  0.0000E+00  0.3200E+02
     11.988  0.2188E-03  0.3200E+02
     12.103  0.3489E-01  0.3200E+02
     12.219  0.9798E-01  0.3201E+02
     12.335  0.1598E+00  0.3202E+02
     12.451  0.1792E+00  0.3204E+02
     12.567  0.2105E+00  0.3207E+02
     12.683  0.2673E+00  0.3209E+02
     12.798  0.3149E+00  0.3213E+02
     12.914  0.3948E+00  0.3217E+02
     13.030  0.7425E+00  0.3223E+02
     13.146  0.7103E+00  0.3231E+02
     13.262  0.7794E+00  0.3239E+02
     13.378  0.9479E+00  0.3249E+02
     13.494  0.1037E+01  0.3261E+02
     13.609  0.1205E+01  0.3274E+02
     13.725  0.1340E+01  0.3288E+02
     13.841  0.1761E+01  0.3306E+02
     13.957  0.1768E+01  0.3328E+02
     14.073  0.1694E+01  0.3347E+02
     14.189  0.1794E+01  0.3368E+02
     14.304  0.1826E+01  0.3389E+02
     14.420  0.1938E+01  0.3410E+02
     14.536  0.2099E+01  0.3433E+02
     14.652  0.2268E+01  0.3459E+02
     14.768  0.2369E+01  0.3486E+02
     14.884  0.2448E+01  0.3514E+02
     14.999  0.2525E+01  0.3543E+02
     15.115  0.2527E+01  0.3572E+02
     15.231  0.2614E+01  0.3602E+02
     15.347  0.2793E+01  0.3633E+02
     15.463  0.2931E+01  0.3666E+02
     15.579  0.3024E+01  0.3701E+02
     15.695  0.3297E+01  0.3737E+02
     15.810  0.3625E+01  0.3777E+02
     15.926  0.4129E+01  0.3822E+02
     16.042  0.4453E+01  0.3871E+02
     16.158  0.5046E+01  0.3927E+02
     16.274  0.4140E+01  0.3983E+02
     16.390  0.3836E+01  0.4029E+02
     16.505  0.3959E+01  0.4074E+02
     16.621  0.4047E+01  0.4122E+02
     16.737  0.3771E+01  0.4167E+02
     16.853  0.3684E+01  0.4210E+02
     16.969  0.3950E+01  0.4254E+02
     17.085  0.3863E+01  0.4299E+02
     17.201  0.3793E+01  0.4344E+02
     17.316  0.3703E+01  0.4387E+02
     17.432  0.3226E+01  0.4427E+02
     17.548  0.2992E+01  0.4463E+02
     17.664  0.2855E+01  0.4497E+02
     17.780  0.2800E+01  0.4530E+02
     17.896  0.2846E+01  0.4562E+02
     18.011  0.2829E+01  0.4595E+02
     18.127  0.2703E+01  0.4627E+02
     18.243  0.2609E+01  0.4658E+02
     18.359  0.2494E+01  0.4687E+02
     18.475  0.2430E+01  0.4716E+02
     18.591  0.1910E+01  0.4742E+02
     18.707  0.1369E+01  0.4761E+02
     18.822  0.9440E+00  0.4774E+02
     18.938  0.6263E+00  0.4783E+02
     19.054  0.4352E+00  0.4789E+02
     19.170  0.3018E+00  0.4793E+02
     19.286  0.2040E+00  0.4796E+02
     19.402  0.1257E+00  0.4798E+02
     19.517  0.6468E-01  0.4799E+02
     19.633  0.3886E-01  0.4800E+02
     19.749  0.3077E-02  0.4800E+02
     19.865  0.0000E+00  0.4800E+02
     19.981  0.0000E+00  0.4800E+02
     20.097  0.0000E+00  0.4800E+02
     20.212  0.0000E+00  0.4800E+02
     20.328  0.0000E+00  0.4800E+02
     20.444  0.0000E+00  0.4800E+02
     20.560  0.0000E+00  0.4800E+02
     20.676  0.0000E+00  0.4800E+02
     20.792  0.0000E+00  0.4800E+02
     20.908  0.0000E+00  0.4800E+02
     21.023  0.0000E+00  0.4800E+02
     21.139  0.0000E+00  0.4800E+02
     21.255  0.0000E+00  0.4800E+02
     21.371  0.0000E+00  0.4800E+02
