       N       E                     dE             d eps       ncg     rms          rms(c)
DAV:   1     0.566555356889E+02    0.56656E+02   -0.14186E+04  9408   0.104E+03
DAV:   2    -0.698392085273E+02   -0.12649E+03   -0.11989E+03 12960   0.217E+02
DAV:   3    -0.741488404763E+02   -0.43096E+01   -0.42869E+01 12240   0.376E+01
DAV:   4    -0.741981578366E+02   -0.49317E-01   -0.49260E-01 12208   0.430E+00
DAV:   5    -0.741991713103E+02   -0.10135E-02   -0.10130E-02 12112   0.570E-01    0.858E+00
DAV:   6    -0.727520817323E+02    0.14471E+01   -0.97628E-01 11216   0.547E+00    0.477E+00
DAV:   7    -0.722619750940E+02    0.49011E+00   -0.11293E+00 11112   0.606E+00    0.668E-01
DAV:   8    -0.722684148545E+02   -0.64398E-02   -0.23282E-02 12136   0.871E-01    0.756E-02
DAV:   9    -0.722686361139E+02   -0.22126E-03   -0.43124E-04 11608   0.136E-01    0.272E-02
DAV:  10    -0.722686924187E+02   -0.56305E-04   -0.53631E-05 11952   0.539E-02    0.254E-03
DAV:  11    -0.722686928409E+02   -0.42218E-06   -0.10757E-06  8832   0.696E-03
   1 F= -.72268693E+02 E0= -.72268693E+02  d E =0.000000E+00
