 vasp.5.4.4.18Apr17-6-g9f103f2a35 (build Mar 12 2022 03:36:41) complex          
  
 executed on IFC19.0.3.199_CrayMP date 2022.11.30  12:32:36
 running on   16 total cores
 distrk:  each k-point on   16 cores,    1 groups
 distr:  one band on NCORES_PER_BAND=   4 cores,    4 groups


--------------------------------------------------------------------------------------------------------


 INCAR:
 POTCAR:   PAW_PBE C 08Apr2002                    
 POTCAR:   PAW_PBE C 08Apr2002                    
   VRHFIN =C: s2p2                                                              
   LEXCH  = PE                                                                  
   EATOM  =   147.1560 eV,   10.8157 Ry                                         
                                                                                
   TITEL  = PAW_PBE C 08Apr2002                                                 
   LULTRA =        F    use ultrasoft PP ?                                      
   IUNSCR =        0    unscreen: 0-lin 1-nonlin 2-no                           
   RPACOR =     .000    partial core radius                                     
   POMASS =   12.011; ZVAL   =    4.000    mass and valenz                      
   RCORE  =    1.500    outmost cutoff radius                                   
   RWIGS  =    1.630; RWIGS  =     .863    wigner-seitz radius (au A)           
   ENMAX  =  400.000; ENMIN  =  300.000 eV                                      
   ICORE  =        2    local potential                                         
   LCOR   =        T    correct aug charges                                     
   LPAW   =        T    paw PP                                                  
   EAUG   =  644.873                                                            
   DEXC   =     .000                                                            
   RMAX   =    2.266    core radius for proj-oper                               
   RAUG   =    1.300    factor for augmentation sphere                          
   RDEP   =    1.501    radius for radial grids                                 
   RDEPT  =    1.300    core radius for aug-charge                              
   QCUT   =   -5.516; QGAM   =   11.032    optimization parameters              
                                                                                
   Description                                                                  
     l     E      TYP  RCUT    TYP  RCUT                                        
     0   .000     23  1.200                                                     
     0   .000     23  1.200                                                     
     1   .000     23  1.500                                                     
     1  2.500     23  1.500                                                     
     2   .000      7  1.500                                                     
  local pseudopotential read in
  atomic valenz-charges read in
  non local Contribution for L=           0  read in
    real space projection operators read in
  non local Contribution for L=           0  read in
    real space projection operators read in
  non local Contribution for L=           1  read in
    real space projection operators read in
  non local Contribution for L=           1  read in
    real space projection operators read in
    PAW grid and wavefunctions read in
 
   number of l-projection  operators is LMAX  =           4
   number of lm-projection operators is LMMAX =           8
 
 PAW_PBE C 08Apr2002                    :
 energy of atom  1       EATOM= -147.1560
 kinetic energy error for atom=    0.0288 (will be added to EATOM!!)
 
 
 POSCAR: C8                                      
  positions in direct lattice
  No initial velocities read in
 exchange correlation table for  LEXCH =        8
   RHO(1)=    0.500       N(1)  =     2000
   RHO(2)=  100.500       N(2)  =     4000
 


--------------------------------------------------------------------------------------------------------


 ion  position               nearest neighbor table
   1  0.250  0.750  0.250-   2 1.59   4 1.59   6 1.59   8 1.59
   2  0.000  0.000  0.500-   1 1.59   3 1.59   5 1.59   7 1.59
   3  0.250  0.250  0.750-   2 1.59   4 1.59   6 1.59   8 1.59
   4  0.000  0.500  0.000-   1 1.59   3 1.59   5 1.59   7 1.59
   5  0.750  0.750  0.750-   2 1.59   4 1.59   6 1.59   8 1.59
   6  0.500  0.000  0.000-   1 1.59   3 1.59   5 1.59   7 1.59
   7  0.750  0.250  0.250-   2 1.59   4 1.59   6 1.59   8 1.59
   8  0.500  0.500  0.500-   1 1.59   3 1.59   5 1.59   7 1.59
 
  LATTYP: Found a simple tetragonal cell.
 ALAT       =     3.7139080000
 C/A-ratio  =     0.9622505458
  
  Lattice vectors:
  
 A1 = (   3.7139080000,   0.0000000000,   0.0000000000)
 A2 = (   0.0000000000,   3.7139080000,   0.0000000000)
 A3 = (   0.0000000000,   0.0000000000,   3.5737100000)


Analysis of symmetry for initial positions (statically):
=====================================================================
 Subroutine PRICEL returns following result:
 
  LATTYP: Found a body centered tetragonal cell.
 ALAT       =     2.6261295315
 C/A-ratio  =     1.3608277723
  
  Lattice vectors:
  
 A1 = (   1.8569540000,   0.0000000000,   1.7868550000)
 A2 = (  -1.8569540000,   0.0000000000,   1.7868550000)
 A3 = (   0.0000000000,  -1.8569540000,  -1.7868550000)
 
   4 primitive cells build up your supercell.
 

 Routine SETGRP: Setting up the symmetry group for a 
 simple tetragonal supercell.


 Subroutine GETGRP returns: Found 16 space group operations
 (whereof  8 operations were pure point group operations)
 out of a pool of 16 trial point group operations.


The static configuration has the point symmetry D_2d.
 The point group associated with its full space group is D_4h.


Analysis of symmetry for dynamics (positions and initial velocities):
=====================================================================
 Subroutine PRICEL returns following result:
 
  LATTYP: Found a body centered tetragonal cell.
 ALAT       =     2.6261295315
 C/A-ratio  =     1.3608277723
  
  Lattice vectors:
  
 A1 = (   1.8569540000,   0.0000000000,   1.7868550000)
 A2 = (  -1.8569540000,   0.0000000000,   1.7868550000)
 A3 = (   0.0000000000,  -1.8569540000,  -1.7868550000)
 
   4 primitive cells build up your supercell.
 

 Routine SETGRP: Setting up the symmetry group for a 
 simple tetragonal supercell.


 Subroutine GETGRP returns: Found 16 space group operations
 (whereof  8 operations were pure point group operations)
 out of a pool of 16 trial point group operations.


The dynamic configuration has the point symmetry D_2d.
 The point group associated with its full space group is D_4h.


 Subroutine INISYM returns: Found 16 space group operations
 (whereof  8 operations are pure point group operations),
 and found     4 'primitive' translations

 
 
 KPOINTS: kpt_density=1000                        

Automatic generation of k-mesh.
Space group operators:
 irot       det(A)        alpha          n_x          n_y          n_z        tau_x        tau_y        tau_z
    1     1.000000     0.000001     1.000000     0.000000     0.000000     0.000000     0.000000     0.000000
    2    -1.000000    90.000000     0.000000     0.000000    -1.000000     0.000000     0.000000     0.000000
    3     1.000000   180.000000     0.000000     0.000000     1.000000     0.000000     0.000000     0.000000
    4    -1.000000    90.000000     0.000000     0.000000     1.000000     0.000000     0.000000     0.000000
    5     1.000000   180.000000     0.000000     1.000000     0.000000     0.000000     0.000000     0.000000
    6    -1.000000   180.000000     0.707107     0.707107     0.000000     0.000000     0.000000     0.000000
    7     1.000000   180.000000     1.000000     0.000000     0.000000     0.000000     0.000000     0.000000
    8    -1.000000   180.000000     0.707107    -0.707107     0.000000     0.000000     0.000000     0.000000
    9    -1.000000     0.000001     1.000000     0.000000     0.000000    -0.250000    -0.250000     0.250000
   10     1.000000    90.000000     0.000000     0.000000    -1.000000    -0.250000    -0.250000     0.250000
   11    -1.000000   180.000000     0.000000     0.000000     1.000000    -0.250000    -0.250000     0.250000
   12     1.000000    90.000000     0.000000     0.000000     1.000000    -0.250000    -0.250000     0.250000
   13    -1.000000   180.000000     0.000000     1.000000     0.000000    -0.250000    -0.250000     0.250000
   14     1.000000   180.000000     0.707107     0.707107     0.000000    -0.250000    -0.250000     0.250000
   15    -1.000000   180.000000     1.000000     0.000000     0.000000    -0.250000    -0.250000     0.250000
   16     1.000000   180.000000     0.707107    -0.707107     0.000000    -0.250000    -0.250000     0.250000
 
 Subroutine IBZKPT returns following result:
 ===========================================
 
 Found    196 irreducible k-points:
 
 Following reciprocal coordinates:
            Coordinates               Weight
  0.000000  0.000000  0.000000      1.000000
  0.083333  0.000000  0.000000      4.000000
  0.166667  0.000000  0.000000      4.000000
  0.250000  0.000000  0.000000      4.000000
  0.333333  0.000000  0.000000      4.000000
  0.416667  0.000000  0.000000      4.000000
  0.500000  0.000000  0.000000      2.000000
  0.083333  0.083333  0.000000      4.000000
  0.166667  0.083333  0.000000      8.000000
  0.250000  0.083333  0.000000      8.000000
  0.333333  0.083333  0.000000      8.000000
  0.416667  0.083333  0.000000      8.000000
  0.500000  0.083333  0.000000      4.000000
  0.166667  0.166667  0.000000      4.000000
  0.250000  0.166667  0.000000      8.000000
  0.333333  0.166667  0.000000      8.000000
  0.416667  0.166667  0.000000      8.000000
  0.500000  0.166667  0.000000      4.000000
  0.250000  0.250000  0.000000      4.000000
  0.333333  0.250000  0.000000      8.000000
  0.416667  0.250000  0.000000      8.000000
  0.500000  0.250000  0.000000      4.000000
  0.333333  0.333333  0.000000      4.000000
  0.416667  0.333333  0.000000      8.000000
  0.500000  0.333333  0.000000      4.000000
  0.416667  0.416667  0.000000      4.000000
  0.500000  0.416667  0.000000      4.000000
  0.500000  0.500000  0.000000      1.000000
  0.000000  0.000000  0.083333      2.000000
  0.083333  0.000000  0.083333      8.000000
  0.166667  0.000000  0.083333      8.000000
  0.250000  0.000000  0.083333      8.000000
  0.333333  0.000000  0.083333      8.000000
  0.416667  0.000000  0.083333      8.000000
  0.500000  0.000000  0.083333      4.000000
  0.083333  0.083333  0.083333      8.000000
  0.166667  0.083333  0.083333     16.000000
  0.250000  0.083333  0.083333     16.000000
  0.333333  0.083333  0.083333     16.000000
  0.416667  0.083333  0.083333     16.000000
  0.500000  0.083333  0.083333      8.000000
  0.166667  0.166667  0.083333      8.000000
  0.250000  0.166667  0.083333     16.000000
  0.333333  0.166667  0.083333     16.000000
  0.416667  0.166667  0.083333     16.000000
  0.500000  0.166667  0.083333      8.000000
  0.250000  0.250000  0.083333      8.000000
  0.333333  0.250000  0.083333     16.000000
  0.416667  0.250000  0.083333     16.000000
  0.500000  0.250000  0.083333      8.000000
  0.333333  0.333333  0.083333      8.000000
  0.416667  0.333333  0.083333     16.000000
  0.500000  0.333333  0.083333      8.000000
  0.416667  0.416667  0.083333      8.000000
  0.500000  0.416667  0.083333      8.000000
  0.500000  0.500000  0.083333      2.000000
  0.000000  0.000000  0.166667      2.000000
  0.083333  0.000000  0.166667      8.000000
  0.166667  0.000000  0.166667      8.000000
  0.250000  0.000000  0.166667      8.000000
  0.333333  0.000000  0.166667      8.000000
  0.416667  0.000000  0.166667      8.000000
  0.500000  0.000000  0.166667      4.000000
  0.083333  0.083333  0.166667      8.000000
  0.166667  0.083333  0.166667     16.000000
  0.250000  0.083333  0.166667     16.000000
  0.333333  0.083333  0.166667     16.000000
  0.416667  0.083333  0.166667     16.000000
  0.500000  0.083333  0.166667      8.000000
  0.166667  0.166667  0.166667      8.000000
  0.250000  0.166667  0.166667     16.000000
  0.333333  0.166667  0.166667     16.000000
  0.416667  0.166667  0.166667     16.000000
  0.500000  0.166667  0.166667      8.000000
  0.250000  0.250000  0.166667      8.000000
  0.333333  0.250000  0.166667     16.000000
  0.416667  0.250000  0.166667     16.000000
  0.500000  0.250000  0.166667      8.000000
  0.333333  0.333333  0.166667      8.000000
  0.416667  0.333333  0.166667     16.000000
  0.500000  0.333333  0.166667      8.000000
  0.416667  0.416667  0.166667      8.000000
  0.500000  0.416667  0.166667      8.000000
  0.500000  0.500000  0.166667      2.000000
  0.000000  0.000000  0.250000      2.000000
  0.083333  0.000000  0.250000      8.000000
  0.166667  0.000000  0.250000      8.000000
  0.250000  0.000000  0.250000      8.000000
  0.333333  0.000000  0.250000      8.000000
  0.416667  0.000000  0.250000      8.000000
  0.500000  0.000000  0.250000      4.000000
  0.083333  0.083333  0.250000      8.000000
  0.166667  0.083333  0.250000     16.000000
  0.250000  0.083333  0.250000     16.000000
  0.333333  0.083333  0.250000     16.000000
  0.416667  0.083333  0.250000     16.000000
  0.500000  0.083333  0.250000      8.000000
  0.166667  0.166667  0.250000      8.000000
  0.250000  0.166667  0.250000     16.000000
  0.333333  0.166667  0.250000     16.000000
  0.416667  0.166667  0.250000     16.000000
  0.500000  0.166667  0.250000      8.000000
  0.250000  0.250000  0.250000      8.000000
  0.333333  0.250000  0.250000     16.000000
  0.416667  0.250000  0.250000     16.000000
  0.500000  0.250000  0.250000      8.000000
  0.333333  0.333333  0.250000      8.000000
  0.416667  0.333333  0.250000     16.000000
  0.500000  0.333333  0.250000      8.000000
  0.416667  0.416667  0.250000      8.000000
  0.500000  0.416667  0.250000      8.000000
  0.500000  0.500000  0.250000      2.000000
  0.000000  0.000000  0.333333      2.000000
  0.083333  0.000000  0.333333      8.000000
  0.166667  0.000000  0.333333      8.000000
  0.250000  0.000000  0.333333      8.000000
  0.333333  0.000000  0.333333      8.000000
  0.416667  0.000000  0.333333      8.000000
  0.500000  0.000000  0.333333      4.000000
  0.083333  0.083333  0.333333      8.000000
  0.166667  0.083333  0.333333     16.000000
  0.250000  0.083333  0.333333     16.000000
  0.333333  0.083333  0.333333     16.000000
  0.416667  0.083333  0.333333     16.000000
  0.500000  0.083333  0.333333      8.000000
  0.166667  0.166667  0.333333      8.000000
  0.250000  0.166667  0.333333     16.000000
  0.333333  0.166667  0.333333     16.000000
  0.416667  0.166667  0.333333     16.000000
  0.500000  0.166667  0.333333      8.000000
  0.250000  0.250000  0.333333      8.000000
  0.333333  0.250000  0.333333     16.000000
  0.416667  0.250000  0.333333     16.000000
  0.500000  0.250000  0.333333      8.000000
  0.333333  0.333333  0.333333      8.000000
  0.416667  0.333333  0.333333     16.000000
  0.500000  0.333333  0.333333      8.000000
  0.416667  0.416667  0.333333      8.000000
  0.500000  0.416667  0.333333      8.000000
  0.500000  0.500000  0.333333      2.000000
  0.000000  0.000000  0.416667      2.000000
  0.083333  0.000000  0.416667      8.000000
  0.166667  0.000000  0.416667      8.000000
  0.250000  0.000000  0.416667      8.000000
  0.333333  0.000000  0.416667      8.000000
  0.416667  0.000000  0.416667      8.000000
  0.500000  0.000000  0.416667      4.000000
  0.083333  0.083333  0.416667      8.000000
  0.166667  0.083333  0.416667     16.000000
  0.250000  0.083333  0.416667     16.000000
  0.333333  0.083333  0.416667     16.000000
  0.416667  0.083333  0.416667     16.000000
  0.500000  0.083333  0.416667      8.000000
  0.166667  0.166667  0.416667      8.000000
  0.250000  0.166667  0.416667     16.000000
  0.333333  0.166667  0.416667     16.000000
  0.416667  0.166667  0.416667     16.000000
  0.500000  0.166667  0.416667      8.000000
  0.250000  0.250000  0.416667      8.000000
  0.333333  0.250000  0.416667     16.000000
  0.416667  0.250000  0.416667     16.000000
  0.500000  0.250000  0.416667      8.000000
  0.333333  0.333333  0.416667      8.000000
  0.416667  0.333333  0.416667     16.000000
  0.500000  0.333333  0.416667      8.000000
  0.416667  0.416667  0.416667      8.000000
  0.500000  0.416667  0.416667      8.000000
  0.500000  0.500000  0.416667      2.000000
  0.000000  0.000000  0.500000      1.000000
  0.083333  0.000000  0.500000      4.000000
  0.166667  0.000000  0.500000      4.000000
  0.250000  0.000000  0.500000      4.000000
  0.333333  0.000000  0.500000      4.000000
  0.416667  0.000000  0.500000      4.000000
  0.500000  0.000000  0.500000      2.000000
  0.083333  0.083333  0.500000      4.000000
  0.166667  0.083333  0.500000      8.000000
  0.250000  0.083333  0.500000      8.000000
  0.333333  0.083333  0.500000      8.000000
  0.416667  0.083333  0.500000      8.000000
  0.500000  0.083333  0.500000      4.000000
  0.166667  0.166667  0.500000      4.000000
  0.250000  0.166667  0.500000      8.000000
  0.333333  0.166667  0.500000      8.000000
  0.416667  0.166667  0.500000      8.000000
  0.500000  0.166667  0.500000      4.000000
  0.250000  0.250000  0.500000      4.000000
  0.333333  0.250000  0.500000      8.000000
  0.416667  0.250000  0.500000      8.000000
  0.500000  0.250000  0.500000      4.000000
  0.333333  0.333333  0.500000      4.000000
  0.416667  0.333333  0.500000      8.000000
  0.500000  0.333333  0.500000      4.000000
  0.416667  0.416667  0.500000      4.000000
  0.500000  0.416667  0.500000      4.000000
  0.500000  0.500000  0.500000      1.000000
 
 Following cartesian coordinates:
            Coordinates               Weight
  0.000000  0.000000  0.000000      1.000000
  0.022438  0.000000  0.000000      4.000000
  0.044876  0.000000  0.000000      4.000000
  0.067315  0.000000  0.000000      4.000000
  0.089753  0.000000  0.000000      4.000000
  0.112191  0.000000  0.000000      4.000000
  0.134629  0.000000  0.000000      2.000000
  0.022438  0.022438  0.000000      4.000000
  0.044876  0.022438  0.000000      8.000000
  0.067315  0.022438  0.000000      8.000000
  0.089753  0.022438  0.000000      8.000000
  0.112191  0.022438  0.000000      8.000000
  0.134629  0.022438  0.000000      4.000000
  0.044876  0.044876  0.000000      4.000000
  0.067315  0.044876  0.000000      8.000000
  0.089753  0.044876  0.000000      8.000000
  0.112191  0.044876  0.000000      8.000000
  0.134629  0.044876  0.000000      4.000000
  0.067315  0.067315  0.000000      4.000000
  0.089753  0.067315  0.000000      8.000000
  0.112191  0.067315  0.000000      8.000000
  0.134629  0.067315  0.000000      4.000000
  0.089753  0.089753  0.000000      4.000000
  0.112191  0.089753  0.000000      8.000000
  0.134629  0.089753  0.000000      4.000000
  0.112191  0.112191  0.000000      4.000000
  0.134629  0.112191  0.000000      4.000000
  0.134629  0.134629  0.000000      1.000000
  0.000000  0.000000  0.023318      2.000000
  0.022438  0.000000  0.023318      8.000000
  0.044876  0.000000  0.023318      8.000000
  0.067315  0.000000  0.023318      8.000000
  0.089753  0.000000  0.023318      8.000000
  0.112191  0.000000  0.023318      8.000000
  0.134629  0.000000  0.023318      4.000000
  0.022438  0.022438  0.023318      8.000000
  0.044876  0.022438  0.023318     16.000000
  0.067315  0.022438  0.023318     16.000000
  0.089753  0.022438  0.023318     16.000000
  0.112191  0.022438  0.023318     16.000000
  0.134629  0.022438  0.023318      8.000000
  0.044876  0.044876  0.023318      8.000000
  0.067315  0.044876  0.023318     16.000000
  0.089753  0.044876  0.023318     16.000000
  0.112191  0.044876  0.023318     16.000000
  0.134629  0.044876  0.023318      8.000000
  0.067315  0.067315  0.023318      8.000000
  0.089753  0.067315  0.023318     16.000000
  0.112191  0.067315  0.023318     16.000000
  0.134629  0.067315  0.023318      8.000000
  0.089753  0.089753  0.023318      8.000000
  0.112191  0.089753  0.023318     16.000000
  0.134629  0.089753  0.023318      8.000000
  0.112191  0.112191  0.023318      8.000000
  0.134629  0.112191  0.023318      8.000000
  0.134629  0.134629  0.023318      2.000000
  0.000000  0.000000  0.046637      2.000000
  0.022438  0.000000  0.046637      8.000000
  0.044876  0.000000  0.046637      8.000000
  0.067315  0.000000  0.046637      8.000000
  0.089753  0.000000  0.046637      8.000000
  0.112191  0.000000  0.046637      8.000000
  0.134629  0.000000  0.046637      4.000000
  0.022438  0.022438  0.046637      8.000000
  0.044876  0.022438  0.046637     16.000000
  0.067315  0.022438  0.046637     16.000000
  0.089753  0.022438  0.046637     16.000000
  0.112191  0.022438  0.046637     16.000000
  0.134629  0.022438  0.046637      8.000000
  0.044876  0.044876  0.046637      8.000000
  0.067315  0.044876  0.046637     16.000000
  0.089753  0.044876  0.046637     16.000000
  0.112191  0.044876  0.046637     16.000000
  0.134629  0.044876  0.046637      8.000000
  0.067315  0.067315  0.046637      8.000000
  0.089753  0.067315  0.046637     16.000000
  0.112191  0.067315  0.046637     16.000000
  0.134629  0.067315  0.046637      8.000000
  0.089753  0.089753  0.046637      8.000000
  0.112191  0.089753  0.046637     16.000000
  0.134629  0.089753  0.046637      8.000000
  0.112191  0.112191  0.046637      8.000000
  0.134629  0.112191  0.046637      8.000000
  0.134629  0.134629  0.046637      2.000000
  0.000000  0.000000  0.069955      2.000000
  0.022438  0.000000  0.069955      8.000000
  0.044876  0.000000  0.069955      8.000000
  0.067315  0.000000  0.069955      8.000000
  0.089753  0.000000  0.069955      8.000000
  0.112191  0.000000  0.069955      8.000000
  0.134629  0.000000  0.069955      4.000000
  0.022438  0.022438  0.069955      8.000000
  0.044876  0.022438  0.069955     16.000000
  0.067315  0.022438  0.069955     16.000000
  0.089753  0.022438  0.069955     16.000000
  0.112191  0.022438  0.069955     16.000000
  0.134629  0.022438  0.069955      8.000000
  0.044876  0.044876  0.069955      8.000000
  0.067315  0.044876  0.069955     16.000000
  0.089753  0.044876  0.069955     16.000000
  0.112191  0.044876  0.069955     16.000000
  0.134629  0.044876  0.069955      8.000000
  0.067315  0.067315  0.069955      8.000000
  0.089753  0.067315  0.069955     16.000000
  0.112191  0.067315  0.069955     16.000000
  0.134629  0.067315  0.069955      8.000000
  0.089753  0.089753  0.069955      8.000000
  0.112191  0.089753  0.069955     16.000000
  0.134629  0.089753  0.069955      8.000000
  0.112191  0.112191  0.069955      8.000000
  0.134629  0.112191  0.069955      8.000000
  0.134629  0.134629  0.069955      2.000000
  0.000000  0.000000  0.093274      2.000000
  0.022438  0.000000  0.093274      8.000000
  0.044876  0.000000  0.093274      8.000000
  0.067315  0.000000  0.093274      8.000000
  0.089753  0.000000  0.093274      8.000000
  0.112191  0.000000  0.093274      8.000000
  0.134629  0.000000  0.093274      4.000000
  0.022438  0.022438  0.093274      8.000000
  0.044876  0.022438  0.093274     16.000000
  0.067315  0.022438  0.093274     16.000000
  0.089753  0.022438  0.093274     16.000000
  0.112191  0.022438  0.093274     16.000000
  0.134629  0.022438  0.093274      8.000000
  0.044876  0.044876  0.093274      8.000000
  0.067315  0.044876  0.093274     16.000000
  0.089753  0.044876  0.093274     16.000000
  0.112191  0.044876  0.093274     16.000000
  0.134629  0.044876  0.093274      8.000000
  0.067315  0.067315  0.093274      8.000000
  0.089753  0.067315  0.093274     16.000000
  0.112191  0.067315  0.093274     16.000000
  0.134629  0.067315  0.093274      8.000000
  0.089753  0.089753  0.093274      8.000000
  0.112191  0.089753  0.093274     16.000000
  0.134629  0.089753  0.093274      8.000000
  0.112191  0.112191  0.093274      8.000000
  0.134629  0.112191  0.093274      8.000000
  0.134629  0.134629  0.093274      2.000000
  0.000000  0.000000  0.116592      2.000000
  0.022438  0.000000  0.116592      8.000000
  0.044876  0.000000  0.116592      8.000000
  0.067315  0.000000  0.116592      8.000000
  0.089753  0.000000  0.116592      8.000000
  0.112191  0.000000  0.116592      8.000000
  0.134629  0.000000  0.116592      4.000000
  0.022438  0.022438  0.116592      8.000000
  0.044876  0.022438  0.116592     16.000000
  0.067315  0.022438  0.116592     16.000000
  0.089753  0.022438  0.116592     16.000000
  0.112191  0.022438  0.116592     16.000000
  0.134629  0.022438  0.116592      8.000000
  0.044876  0.044876  0.116592      8.000000
  0.067315  0.044876  0.116592     16.000000
  0.089753  0.044876  0.116592     16.000000
  0.112191  0.044876  0.116592     16.000000
  0.134629  0.044876  0.116592      8.000000
  0.067315  0.067315  0.116592      8.000000
  0.089753  0.067315  0.116592     16.000000
  0.112191  0.067315  0.116592     16.000000
  0.134629  0.067315  0.116592      8.000000
  0.089753  0.089753  0.116592      8.000000
  0.112191  0.089753  0.116592     16.000000
  0.134629  0.089753  0.116592      8.000000
  0.112191  0.112191  0.116592      8.000000
  0.134629  0.112191  0.116592      8.000000
  0.134629  0.134629  0.116592      2.000000
  0.000000  0.000000  0.139911      1.000000
  0.022438  0.000000  0.139911      4.000000
  0.044876  0.000000  0.139911      4.000000
  0.067315  0.000000  0.139911      4.000000
  0.089753  0.000000  0.139911      4.000000
  0.112191  0.000000  0.139911      4.000000
  0.134629  0.000000  0.139911      2.000000
  0.022438  0.022438  0.139911      4.000000
  0.044876  0.022438  0.139911      8.000000
  0.067315  0.022438  0.139911      8.000000
  0.089753  0.022438  0.139911      8.000000
  0.112191  0.022438  0.139911      8.000000
  0.134629  0.022438  0.139911      4.000000
  0.044876  0.044876  0.139911      4.000000
  0.067315  0.044876  0.139911      8.000000
  0.089753  0.044876  0.139911      8.000000
  0.112191  0.044876  0.139911      8.000000
  0.134629  0.044876  0.139911      4.000000
  0.067315  0.067315  0.139911      4.000000
  0.089753  0.067315  0.139911      8.000000
  0.112191  0.067315  0.139911      8.000000
  0.134629  0.067315  0.139911      4.000000
  0.089753  0.089753  0.139911      4.000000
  0.112191  0.089753  0.139911      8.000000
  0.134629  0.089753  0.139911      4.000000
  0.112191  0.112191  0.139911      4.000000
  0.134629  0.112191  0.139911      4.000000
  0.134629  0.134629  0.139911      1.000000
 
 TETIRR: Found   2592 inequivalent tetrahedra from    10368


--------------------------------------------------------------------------------------------------------




 Dimension of arrays:
   k-points           NKPTS =    196   k-points in BZ     NKDIM =    196   number of bands    NBANDS=     24
   number of dos      NEDOS =    301   number of ions     NIONS =      8
   non local maximal  LDIM  =      4   non local SUM 2l+1 LMDIM =      8
   total plane-waves  NPLWV =  13824
   max r-space proj   IRMAX =      1   max aug-charges    IRDMAX=   3509
   dimension x,y,z NGX =    24 NGY =   24 NGZ =   24
   dimension x,y,z NGXF=    48 NGYF=   48 NGZF=   48
   support grid    NGXF=    48 NGYF=   48 NGZF=   48
   ions per type =               8
   NGX,Y,Z   is equivalent  to a cutoff of  10.74, 10.74, 11.16 a.u.
   NGXF,Y,Z  is equivalent  to a cutoff of  21.49, 21.49, 22.33 a.u.

 SYSTEM =  unknown system                          
 POSCAR =  C8                                      

 Startparameter for this run:
   NWRITE =      2    write-flag & timer
   PREC   = accura    normal or accurate (medium, high low for compatibility)
   ISTART =      0    job   : 0-new  1-cont  2-samecut
   ICHARG =      2    charge: 1-file 2-atom 10-const
   ISPIN  =      1    spin polarized calculation?
   LNONCOLLINEAR =      F non collinear calculations
   LSORBIT =      F    spin-orbit coupling
   INIWAV =      1    electr: 0-lowe 1-rand  2-diag
   LASPH  =      F    aspherical Exc in radial PAW
   METAGGA=      F    non-selfconsistent MetaGGA calc.

 Electronic Relaxation 1
   ENCUT  =  400.0 eV  29.40 Ry    5.42 a.u.   6.06  6.06  5.83*2*pi/ulx,y,z
   ENINI  =  400.0     initial cutoff
   ENAUG  =  644.9 eV  augmentation charge cutoff
   NELM   =     60;   NELMIN=  2; NELMDL= -5     # of ELM steps 
   EDIFF  = 0.1E-05   stopping-criterion for ELM
   LREAL  =      F    real-space projection
   NLSPLINE    = F    spline interpolate recip. space projectors
   LCOMPAT=      F    compatible to vasp.4.4
   GGA_COMPAT  = T    GGA compatible to vasp.4.4-vasp.4.6
   LMAXPAW     = -100 max onsite density
   LMAXMIX     =    2 max onsite mixed and CHGCAR
   VOSKOWN=      0    Vosko Wilk Nusair interpolation
   ROPT   =    0.00000
 Ionic relaxation
   EDIFFG = 0.1E-04   stopping-criterion for IOM
   NSW    =      0    number of steps for IOM
   NBLOCK =      1;   KBLOCK =      1    inner block; outer block 
   IBRION =     -1    ionic relax: 0-MD 1-quasi-New 2-CG
   NFREE  =      0    steps in history (QN), initial steepest desc. (CG)
   ISIF   =      2    stress and relaxation
   IWAVPR =     10    prediction:  0-non 1-charg 2-wave 3-comb
   ISYM   =      2    0-nonsym 1-usesym 2-fastsym
   LCORR  =      T    Harris-Foulkes like correction to forces

   POTIM  = 0.0200    time-step for ionic-motion
   TEIN   =    0.0    initial temperature
   TEBEG  =    0.0;   TEEND  =   0.0 temperature during run
   SMASS  =  -3.00    Nose mass-parameter (am)
   estimated Nose-frequenzy (Omega)   =  0.10E-29 period in steps =****** mass=  -0.315E-27a.u.
   SCALEE = 1.0000    scale energy and forces
   NPACO  =    256;   APACO  = 16.0  distance and # of slots for P.C.
   PSTRESS=    0.0 pullay stress

  Mass of Ions in am
   POMASS =  12.01
  Ionic Valenz
   ZVAL   =   4.00
  Atomic Wigner-Seitz radii
   RWIGS  =  -1.00
  virtual crystal weights 
   VCA    =   1.00
   NELECT =      32.0000    total number of electrons
   NUPDOWN=      -1.0000    fix difference up-down

 DOS related values:
   EMIN   =  10.00;   EMAX   =-10.00  energy-range for DOS
   EFERMI =   0.00
   ISMEAR =    -5;   SIGMA  =   0.06  broadening in eV -4-tet -1-fermi 0-gaus

 Electronic relaxation 2 (details)
   IALGO  =     38    algorithm
   LDIAG  =      T    sub-space diagonalisation (order eigenvalues)
   LSUBROT=      F    optimize rotation matrix (better conditioning)
   TURBO    =      0    0=normal 1=particle mesh
   IRESTART =      0    0=no restart 2=restart with 2 vectors
   NREBOOT  =      0    no. of reboots
   NMIN     =      0    reboot dimension
   EREF     =   0.00    reference energy to select bands
   IMIX   =      4    mixing-type and parameters
     AMIX     =   0.40;   BMIX     =  1.00
     AMIX_MAG =   1.60;   BMIX_MAG =  1.00
     AMIN     =   0.10
     WC   =   100.;   INIMIX=   1;  MIXPRE=   1;  MAXMIX= -45

 Intra band minimization:
   WEIMIN = 0.0000     energy-eigenvalue tresh-hold
   EBREAK =  0.10E-07  absolut break condition
   DEPER  =   0.30     relativ break condition  

   TIME   =   0.40     timestep for ELM

  volume/ion in A,a.u.               =       6.16        41.58
  Fermi-wavevector in a.u.,A,eV,Ry     =   1.417526  2.678735 27.339265  2.009379
  Thomas-Fermi vector in A             =   2.538747
 
 Write flags
   LWAVE        =      F    write WAVECAR
   LDOWNSAMPLE  =      F    k-point downsampling of WAVECAR
   LCHARG       =      F    write CHGCAR
   LVTOT        =      F    write LOCPOT, total local potential
   LVHAR        =      F    write LOCPOT, Hartree potential only
   LELF         =      F    write electronic localiz. function (ELF)
   LORBIT       =      0    0 simple, 1 ext, 2 COOP (PROOUT), +10 PAW based schemes


 Dipole corrections
   LMONO  =      F    monopole corrections only (constant potential shift)
   LDIPOL =      F    correct potential (dipole corrections)
   IDIPOL =      0    1-x, 2-y, 3-z, 4-all directions 
   EPSILON=  1.0000000 bulk dielectric constant

 Exchange correlation treatment:
   GGA     =    --    GGA type
   LEXCH   =     8    internal setting for exchange type
   VOSKOWN=      0    Vosko Wilk Nusair interpolation
   LHFCALC =     F    Hartree Fock is set to
   LHFONE  =     F    Hartree Fock one center treatment
   AEXX    =    0.0000 exact exchange contribution

 Linear response parameters
   LEPSILON=     F    determine dielectric tensor
   LRPA    =     F    only Hartree local field effects (RPA)
   LNABLA  =     F    use nabla operator in PAW spheres
   LVEL    =     F    velocity operator in full k-point grid
   LINTERFAST=   F  fast interpolation
   KINTER  =     0    interpolate to denser k-point grid
   CSHIFT  =0.1000    complex shift for real part using Kramers Kronig
   OMEGAMAX=  -1.0    maximum frequency
   DEG_THRESHOLD= 0.2000000E-02 threshold for treating states as degnerate
   RTIME   =   -0.100 relaxation time in fs
  (WPLASMAI=    0.000 imaginary part of plasma frequency in eV, 0.658/RTIME)
   DFIELD  = 0.0000000 0.0000000 0.0000000 field for delta impulse in time
 
 Orbital magnetization related:
   ORBITALMAG=     F  switch on orbital magnetization
   LCHIMAG   =     F  perturbation theory with respect to B field
   DQ        =  0.001000  dq finite difference perturbation B field
   LLRAUG    =     F  two centre corrections for induced B field



--------------------------------------------------------------------------------------------------------


 Static calculation
 charge density and potential will be updated during run
 non-spin polarized calculation
 Variant of blocked Davidson
 Davidson routine will perform the subspace rotation
 perform sub-space diagonalisation
    after iterative eigenvector-optimisation
 modified Broyden-mixing scheme, WC =      100.0
 initial mixing is a Kerker type mixing with AMIX =  0.4000 and BMIX =      1.0000
 Hartree-type preconditioning will be used
 using additional bands            8
 reciprocal scheme for non local part
 calculate Harris-corrections to forces 
   (improved forces if not selfconsistent)
 use gradient corrections 
 use of overlap-Matrix (Vanderbilt PP)
 Fermi weights with tetrahedron method with Bloechl corrections


--------------------------------------------------------------------------------------------------------


  energy-cutoff  :      400.00
  volume of cell :       49.29
      direct lattice vectors                 reciprocal lattice vectors
     3.713908000  0.000000000  0.000000000     0.269258151  0.000000000  0.000000000
     0.000000000  3.713908000  0.000000000     0.000000000  0.269258151  0.000000000
     0.000000000  0.000000000  3.573710000     0.000000000  0.000000000  0.279821250

  length of vectors
     3.713908000  3.713908000  3.573710000     0.269258151  0.269258151  0.279821250


 
 k-points in units of 2pi/SCALE and weight: kpt_density=1000                        
   0.00000000  0.00000000  0.00000000       0.001
   0.02243818  0.00000000  0.00000000       0.002
   0.04487636  0.00000000  0.00000000       0.002
   0.06731454  0.00000000  0.00000000       0.002
   0.08975272  0.00000000  0.00000000       0.002
   0.11219090  0.00000000  0.00000000       0.002
   0.13462908  0.00000000  0.00000000       0.001
   0.02243818  0.02243818  0.00000000       0.002
   0.04487636  0.02243818  0.00000000       0.005
   0.06731454  0.02243818  0.00000000       0.005
   0.08975272  0.02243818  0.00000000       0.005
   0.11219090  0.02243818  0.00000000       0.005
   0.13462908  0.02243818  0.00000000       0.002
   0.04487636  0.04487636  0.00000000       0.002
   0.06731454  0.04487636  0.00000000       0.005
   0.08975272  0.04487636  0.00000000       0.005
   0.11219090  0.04487636  0.00000000       0.005
   0.13462908  0.04487636  0.00000000       0.002
   0.06731454  0.06731454  0.00000000       0.002
   0.08975272  0.06731454  0.00000000       0.005
   0.11219090  0.06731454  0.00000000       0.005
   0.13462908  0.06731454  0.00000000       0.002
   0.08975272  0.08975272  0.00000000       0.002
   0.11219090  0.08975272  0.00000000       0.005
   0.13462908  0.08975272  0.00000000       0.002
   0.11219090  0.11219090  0.00000000       0.002
   0.13462908  0.11219090  0.00000000       0.002
   0.13462908  0.13462908  0.00000000       0.001
   0.00000000  0.00000000  0.02331844       0.001
   0.02243818  0.00000000  0.02331844       0.005
   0.04487636  0.00000000  0.02331844       0.005
   0.06731454  0.00000000  0.02331844       0.005
   0.08975272  0.00000000  0.02331844       0.005
   0.11219090  0.00000000  0.02331844       0.005
   0.13462908  0.00000000  0.02331844       0.002
   0.02243818  0.02243818  0.02331844       0.005
   0.04487636  0.02243818  0.02331844       0.009
   0.06731454  0.02243818  0.02331844       0.009
   0.08975272  0.02243818  0.02331844       0.009
   0.11219090  0.02243818  0.02331844       0.009
   0.13462908  0.02243818  0.02331844       0.005
   0.04487636  0.04487636  0.02331844       0.005
   0.06731454  0.04487636  0.02331844       0.009
   0.08975272  0.04487636  0.02331844       0.009
   0.11219090  0.04487636  0.02331844       0.009
   0.13462908  0.04487636  0.02331844       0.005
   0.06731454  0.06731454  0.02331844       0.005
   0.08975272  0.06731454  0.02331844       0.009
   0.11219090  0.06731454  0.02331844       0.009
   0.13462908  0.06731454  0.02331844       0.005
   0.08975272  0.08975272  0.02331844       0.005
   0.11219090  0.08975272  0.02331844       0.009
   0.13462908  0.08975272  0.02331844       0.005
   0.11219090  0.11219090  0.02331844       0.005
   0.13462908  0.11219090  0.02331844       0.005
   0.13462908  0.13462908  0.02331844       0.001
   0.00000000  0.00000000  0.04663688       0.001
   0.02243818  0.00000000  0.04663688       0.005
   0.04487636  0.00000000  0.04663688       0.005
   0.06731454  0.00000000  0.04663688       0.005
   0.08975272  0.00000000  0.04663688       0.005
   0.11219090  0.00000000  0.04663688       0.005
   0.13462908  0.00000000  0.04663688       0.002
   0.02243818  0.02243818  0.04663688       0.005
   0.04487636  0.02243818  0.04663688       0.009
   0.06731454  0.02243818  0.04663688       0.009
   0.08975272  0.02243818  0.04663688       0.009
   0.11219090  0.02243818  0.04663688       0.009
   0.13462908  0.02243818  0.04663688       0.005
   0.04487636  0.04487636  0.04663688       0.005
   0.06731454  0.04487636  0.04663688       0.009
   0.08975272  0.04487636  0.04663688       0.009
   0.11219090  0.04487636  0.04663688       0.009
   0.13462908  0.04487636  0.04663688       0.005
   0.06731454  0.06731454  0.04663688       0.005
   0.08975272  0.06731454  0.04663688       0.009
   0.11219090  0.06731454  0.04663688       0.009
   0.13462908  0.06731454  0.04663688       0.005
   0.08975272  0.08975272  0.04663688       0.005
   0.11219090  0.08975272  0.04663688       0.009
   0.13462908  0.08975272  0.04663688       0.005
   0.11219090  0.11219090  0.04663688       0.005
   0.13462908  0.11219090  0.04663688       0.005
   0.13462908  0.13462908  0.04663688       0.001
   0.00000000  0.00000000  0.06995531       0.001
   0.02243818  0.00000000  0.06995531       0.005
   0.04487636  0.00000000  0.06995531       0.005
   0.06731454  0.00000000  0.06995531       0.005
   0.08975272  0.00000000  0.06995531       0.005
   0.11219090  0.00000000  0.06995531       0.005
   0.13462908  0.00000000  0.06995531       0.002
   0.02243818  0.02243818  0.06995531       0.005
   0.04487636  0.02243818  0.06995531       0.009
   0.06731454  0.02243818  0.06995531       0.009
   0.08975272  0.02243818  0.06995531       0.009
   0.11219090  0.02243818  0.06995531       0.009
   0.13462908  0.02243818  0.06995531       0.005
   0.04487636  0.04487636  0.06995531       0.005
   0.06731454  0.04487636  0.06995531       0.009
   0.08975272  0.04487636  0.06995531       0.009
   0.11219090  0.04487636  0.06995531       0.009
   0.13462908  0.04487636  0.06995531       0.005
   0.06731454  0.06731454  0.06995531       0.005
   0.08975272  0.06731454  0.06995531       0.009
   0.11219090  0.06731454  0.06995531       0.009
   0.13462908  0.06731454  0.06995531       0.005
   0.08975272  0.08975272  0.06995531       0.005
   0.11219090  0.08975272  0.06995531       0.009
   0.13462908  0.08975272  0.06995531       0.005
   0.11219090  0.11219090  0.06995531       0.005
   0.13462908  0.11219090  0.06995531       0.005
   0.13462908  0.13462908  0.06995531       0.001
   0.00000000  0.00000000  0.09327375       0.001
   0.02243818  0.00000000  0.09327375       0.005
   0.04487636  0.00000000  0.09327375       0.005
   0.06731454  0.00000000  0.09327375       0.005
   0.08975272  0.00000000  0.09327375       0.005
   0.11219090  0.00000000  0.09327375       0.005
   0.13462908  0.00000000  0.09327375       0.002
   0.02243818  0.02243818  0.09327375       0.005
   0.04487636  0.02243818  0.09327375       0.009
   0.06731454  0.02243818  0.09327375       0.009
   0.08975272  0.02243818  0.09327375       0.009
   0.11219090  0.02243818  0.09327375       0.009
   0.13462908  0.02243818  0.09327375       0.005
   0.04487636  0.04487636  0.09327375       0.005
   0.06731454  0.04487636  0.09327375       0.009
   0.08975272  0.04487636  0.09327375       0.009
   0.11219090  0.04487636  0.09327375       0.009
   0.13462908  0.04487636  0.09327375       0.005
   0.06731454  0.06731454  0.09327375       0.005
   0.08975272  0.06731454  0.09327375       0.009
   0.11219090  0.06731454  0.09327375       0.009
   0.13462908  0.06731454  0.09327375       0.005
   0.08975272  0.08975272  0.09327375       0.005
   0.11219090  0.08975272  0.09327375       0.009
   0.13462908  0.08975272  0.09327375       0.005
   0.11219090  0.11219090  0.09327375       0.005
   0.13462908  0.11219090  0.09327375       0.005
   0.13462908  0.13462908  0.09327375       0.001
   0.00000000  0.00000000  0.11659219       0.001
   0.02243818  0.00000000  0.11659219       0.005
   0.04487636  0.00000000  0.11659219       0.005
   0.06731454  0.00000000  0.11659219       0.005
   0.08975272  0.00000000  0.11659219       0.005
   0.11219090  0.00000000  0.11659219       0.005
   0.13462908  0.00000000  0.11659219       0.002
   0.02243818  0.02243818  0.11659219       0.005
   0.04487636  0.02243818  0.11659219       0.009
   0.06731454  0.02243818  0.11659219       0.009
   0.08975272  0.02243818  0.11659219       0.009
   0.11219090  0.02243818  0.11659219       0.009
   0.13462908  0.02243818  0.11659219       0.005
   0.04487636  0.04487636  0.11659219       0.005
   0.06731454  0.04487636  0.11659219       0.009
   0.08975272  0.04487636  0.11659219       0.009
   0.11219090  0.04487636  0.11659219       0.009
   0.13462908  0.04487636  0.11659219       0.005
   0.06731454  0.06731454  0.11659219       0.005
   0.08975272  0.06731454  0.11659219       0.009
   0.11219090  0.06731454  0.11659219       0.009
   0.13462908  0.06731454  0.11659219       0.005
   0.08975272  0.08975272  0.11659219       0.005
   0.11219090  0.08975272  0.11659219       0.009
   0.13462908  0.08975272  0.11659219       0.005
   0.11219090  0.11219090  0.11659219       0.005
   0.13462908  0.11219090  0.11659219       0.005
   0.13462908  0.13462908  0.11659219       0.001
   0.00000000  0.00000000  0.13991063       0.001
   0.02243818  0.00000000  0.13991063       0.002
   0.04487636  0.00000000  0.13991063       0.002
   0.06731454  0.00000000  0.13991063       0.002
   0.08975272  0.00000000  0.13991063       0.002
   0.11219090  0.00000000  0.13991063       0.002
   0.13462908  0.00000000  0.13991063       0.001
   0.02243818  0.02243818  0.13991063       0.002
   0.04487636  0.02243818  0.13991063       0.005
   0.06731454  0.02243818  0.13991063       0.005
   0.08975272  0.02243818  0.13991063       0.005
   0.11219090  0.02243818  0.13991063       0.005
   0.13462908  0.02243818  0.13991063       0.002
   0.04487636  0.04487636  0.13991063       0.002
   0.06731454  0.04487636  0.13991063       0.005
   0.08975272  0.04487636  0.13991063       0.005
   0.11219090  0.04487636  0.13991063       0.005
   0.13462908  0.04487636  0.13991063       0.002
   0.06731454  0.06731454  0.13991063       0.002
   0.08975272  0.06731454  0.13991063       0.005
   0.11219090  0.06731454  0.13991063       0.005
   0.13462908  0.06731454  0.13991063       0.002
   0.08975272  0.08975272  0.13991063       0.002
   0.11219090  0.08975272  0.13991063       0.005
   0.13462908  0.08975272  0.13991063       0.002
   0.11219090  0.11219090  0.13991063       0.002
   0.13462908  0.11219090  0.13991063       0.002
   0.13462908  0.13462908  0.13991063       0.001
 
 k-points in reciprocal lattice and weights: kpt_density=1000                        
   0.00000000  0.00000000  0.00000000       0.001
   0.08333333  0.00000000  0.00000000       0.002
   0.16666667  0.00000000  0.00000000       0.002
   0.25000000  0.00000000  0.00000000       0.002
   0.33333333  0.00000000  0.00000000       0.002
   0.41666667  0.00000000  0.00000000       0.002
   0.50000000  0.00000000  0.00000000       0.001
   0.08333333  0.08333333  0.00000000       0.002
   0.16666667  0.08333333  0.00000000       0.005
   0.25000000  0.08333333  0.00000000       0.005
   0.33333333  0.08333333  0.00000000       0.005
   0.41666667  0.08333333  0.00000000       0.005
   0.50000000  0.08333333  0.00000000       0.002
   0.16666667  0.16666667  0.00000000       0.002
   0.25000000  0.16666667  0.00000000       0.005
   0.33333333  0.16666667  0.00000000       0.005
   0.41666667  0.16666667  0.00000000       0.005
   0.50000000  0.16666667  0.00000000       0.002
   0.25000000  0.25000000  0.00000000       0.002
   0.33333333  0.25000000  0.00000000       0.005
   0.41666667  0.25000000  0.00000000       0.005
   0.50000000  0.25000000  0.00000000       0.002
   0.33333333  0.33333333  0.00000000       0.002
   0.41666667  0.33333333  0.00000000       0.005
   0.50000000  0.33333333  0.00000000       0.002
   0.41666667  0.41666667  0.00000000       0.002
   0.50000000  0.41666667  0.00000000       0.002
   0.50000000  0.50000000  0.00000000       0.001
   0.00000000  0.00000000  0.08333333       0.001
   0.08333333  0.00000000  0.08333333       0.005
   0.16666667  0.00000000  0.08333333       0.005
   0.25000000  0.00000000  0.08333333       0.005
   0.33333333  0.00000000  0.08333333       0.005
   0.41666667  0.00000000  0.08333333       0.005
   0.50000000  0.00000000  0.08333333       0.002
   0.08333333  0.08333333  0.08333333       0.005
   0.16666667  0.08333333  0.08333333       0.009
   0.25000000  0.08333333  0.08333333       0.009
   0.33333333  0.08333333  0.08333333       0.009
   0.41666667  0.08333333  0.08333333       0.009
   0.50000000  0.08333333  0.08333333       0.005
   0.16666667  0.16666667  0.08333333       0.005
   0.25000000  0.16666667  0.08333333       0.009
   0.33333333  0.16666667  0.08333333       0.009
   0.41666667  0.16666667  0.08333333       0.009
   0.50000000  0.16666667  0.08333333       0.005
   0.25000000  0.25000000  0.08333333       0.005
   0.33333333  0.25000000  0.08333333       0.009
   0.41666667  0.25000000  0.08333333       0.009
   0.50000000  0.25000000  0.08333333       0.005
   0.33333333  0.33333333  0.08333333       0.005
   0.41666667  0.33333333  0.08333333       0.009
   0.50000000  0.33333333  0.08333333       0.005
   0.41666667  0.41666667  0.08333333       0.005
   0.50000000  0.41666667  0.08333333       0.005
   0.50000000  0.50000000  0.08333333       0.001
   0.00000000  0.00000000  0.16666667       0.001
   0.08333333  0.00000000  0.16666667       0.005
   0.16666667  0.00000000  0.16666667       0.005
   0.25000000  0.00000000  0.16666667       0.005
   0.33333333  0.00000000  0.16666667       0.005
   0.41666667  0.00000000  0.16666667       0.005
   0.50000000  0.00000000  0.16666667       0.002
   0.08333333  0.08333333  0.16666667       0.005
   0.16666667  0.08333333  0.16666667       0.009
   0.25000000  0.08333333  0.16666667       0.009
   0.33333333  0.08333333  0.16666667       0.009
   0.41666667  0.08333333  0.16666667       0.009
   0.50000000  0.08333333  0.16666667       0.005
   0.16666667  0.16666667  0.16666667       0.005
   0.25000000  0.16666667  0.16666667       0.009
   0.33333333  0.16666667  0.16666667       0.009
   0.41666667  0.16666667  0.16666667       0.009
   0.50000000  0.16666667  0.16666667       0.005
   0.25000000  0.25000000  0.16666667       0.005
   0.33333333  0.25000000  0.16666667       0.009
   0.41666667  0.25000000  0.16666667       0.009
   0.50000000  0.25000000  0.16666667       0.005
   0.33333333  0.33333333  0.16666667       0.005
   0.41666667  0.33333333  0.16666667       0.009
   0.50000000  0.33333333  0.16666667       0.005
   0.41666667  0.41666667  0.16666667       0.005
   0.50000000  0.41666667  0.16666667       0.005
   0.50000000  0.50000000  0.16666667       0.001
   0.00000000  0.00000000  0.25000000       0.001
   0.08333333  0.00000000  0.25000000       0.005
   0.16666667  0.00000000  0.25000000       0.005
   0.25000000  0.00000000  0.25000000       0.005
   0.33333333  0.00000000  0.25000000       0.005
   0.41666667  0.00000000  0.25000000       0.005
   0.50000000  0.00000000  0.25000000       0.002
   0.08333333  0.08333333  0.25000000       0.005
   0.16666667  0.08333333  0.25000000       0.009
   0.25000000  0.08333333  0.25000000       0.009
   0.33333333  0.08333333  0.25000000       0.009
   0.41666667  0.08333333  0.25000000       0.009
   0.50000000  0.08333333  0.25000000       0.005
   0.16666667  0.16666667  0.25000000       0.005
   0.25000000  0.16666667  0.25000000       0.009
   0.33333333  0.16666667  0.25000000       0.009
   0.41666667  0.16666667  0.25000000       0.009
   0.50000000  0.16666667  0.25000000       0.005
   0.25000000  0.25000000  0.25000000       0.005
   0.33333333  0.25000000  0.25000000       0.009
   0.41666667  0.25000000  0.25000000       0.009
   0.50000000  0.25000000  0.25000000       0.005
   0.33333333  0.33333333  0.25000000       0.005
   0.41666667  0.33333333  0.25000000       0.009
   0.50000000  0.33333333  0.25000000       0.005
   0.41666667  0.41666667  0.25000000       0.005
   0.50000000  0.41666667  0.25000000       0.005
   0.50000000  0.50000000  0.25000000       0.001
   0.00000000  0.00000000  0.33333333       0.001
   0.08333333  0.00000000  0.33333333       0.005
   0.16666667  0.00000000  0.33333333       0.005
   0.25000000  0.00000000  0.33333333       0.005
   0.33333333  0.00000000  0.33333333       0.005
   0.41666667  0.00000000  0.33333333       0.005
   0.50000000  0.00000000  0.33333333       0.002
   0.08333333  0.08333333  0.33333333       0.005
   0.16666667  0.08333333  0.33333333       0.009
   0.25000000  0.08333333  0.33333333       0.009
   0.33333333  0.08333333  0.33333333       0.009
   0.41666667  0.08333333  0.33333333       0.009
   0.50000000  0.08333333  0.33333333       0.005
   0.16666667  0.16666667  0.33333333       0.005
   0.25000000  0.16666667  0.33333333       0.009
   0.33333333  0.16666667  0.33333333       0.009
   0.41666667  0.16666667  0.33333333       0.009
   0.50000000  0.16666667  0.33333333       0.005
   0.25000000  0.25000000  0.33333333       0.005
   0.33333333  0.25000000  0.33333333       0.009
   0.41666667  0.25000000  0.33333333       0.009
   0.50000000  0.25000000  0.33333333       0.005
   0.33333333  0.33333333  0.33333333       0.005
   0.41666667  0.33333333  0.33333333       0.009
   0.50000000  0.33333333  0.33333333       0.005
   0.41666667  0.41666667  0.33333333       0.005
   0.50000000  0.41666667  0.33333333       0.005
   0.50000000  0.50000000  0.33333333       0.001
   0.00000000  0.00000000  0.41666667       0.001
   0.08333333  0.00000000  0.41666667       0.005
   0.16666667  0.00000000  0.41666667       0.005
   0.25000000  0.00000000  0.41666667       0.005
   0.33333333  0.00000000  0.41666667       0.005
   0.41666667  0.00000000  0.41666667       0.005
   0.50000000  0.00000000  0.41666667       0.002
   0.08333333  0.08333333  0.41666667       0.005
   0.16666667  0.08333333  0.41666667       0.009
   0.25000000  0.08333333  0.41666667       0.009
   0.33333333  0.08333333  0.41666667       0.009
   0.41666667  0.08333333  0.41666667       0.009
   0.50000000  0.08333333  0.41666667       0.005
   0.16666667  0.16666667  0.41666667       0.005
   0.25000000  0.16666667  0.41666667       0.009
   0.33333333  0.16666667  0.41666667       0.009
   0.41666667  0.16666667  0.41666667       0.009
   0.50000000  0.16666667  0.41666667       0.005
   0.25000000  0.25000000  0.41666667       0.005
   0.33333333  0.25000000  0.41666667       0.009
   0.41666667  0.25000000  0.41666667       0.009
   0.50000000  0.25000000  0.41666667       0.005
   0.33333333  0.33333333  0.41666667       0.005
   0.41666667  0.33333333  0.41666667       0.009
   0.50000000  0.33333333  0.41666667       0.005
   0.41666667  0.41666667  0.41666667       0.005
   0.50000000  0.41666667  0.41666667       0.005
   0.50000000  0.50000000  0.41666667       0.001
   0.00000000  0.00000000  0.50000000       0.001
   0.08333333  0.00000000  0.50000000       0.002
   0.16666667  0.00000000  0.50000000       0.002
   0.25000000  0.00000000  0.50000000       0.002
   0.33333333  0.00000000  0.50000000       0.002
   0.41666667  0.00000000  0.50000000       0.002
   0.50000000  0.00000000  0.50000000       0.001
   0.08333333  0.08333333  0.50000000       0.002
   0.16666667  0.08333333  0.50000000       0.005
   0.25000000  0.08333333  0.50000000       0.005
   0.33333333  0.08333333  0.50000000       0.005
   0.41666667  0.08333333  0.50000000       0.005
   0.50000000  0.08333333  0.50000000       0.002
   0.16666667  0.16666667  0.50000000       0.002
   0.25000000  0.16666667  0.50000000       0.005
   0.33333333  0.16666667  0.50000000       0.005
   0.41666667  0.16666667  0.50000000       0.005
   0.50000000  0.16666667  0.50000000       0.002
   0.25000000  0.25000000  0.50000000       0.002
   0.33333333  0.25000000  0.50000000       0.005
   0.41666667  0.25000000  0.50000000       0.005
   0.50000000  0.25000000  0.50000000       0.002
   0.33333333  0.33333333  0.50000000       0.002
   0.41666667  0.33333333  0.50000000       0.005
   0.50000000  0.33333333  0.50000000       0.002
   0.41666667  0.41666667  0.50000000       0.002
   0.50000000  0.41666667  0.50000000       0.002
   0.50000000  0.50000000  0.50000000       0.001
 
 position of ions in fractional coordinates (direct lattice) 
   0.25000000  0.75000000  0.25000000
   0.00000000  0.00000000  0.50000000
   0.25000000  0.25000000  0.75000000
   0.00000000  0.50000000  0.00000000
   0.75000000  0.75000000  0.75000000
   0.50000000  0.00000000  0.00000000
   0.75000000  0.25000000  0.25000000
   0.50000000  0.50000000  0.50000000
 
 position of ions in cartesian coordinates  (Angst):
   0.92847700  2.78543100  0.89342750
   0.00000000  0.00000000  1.78685500
   0.92847700  0.92847700  2.68028250
   0.00000000  1.85695400  0.00000000
   2.78543100  2.78543100  2.68028250
   1.85695400  0.00000000  0.00000000
   2.78543100  0.92847700  0.89342750
   1.85695400  1.85695400  1.78685500
 


--------------------------------------------------------------------------------------------------------


 k-point  1 :   0.0000 0.0000 0.0000  plane waves:     891
 k-point  2 :   0.0833 0.0000 0.0000  plane waves:     898
 k-point  3 :   0.1667 0.0000 0.0000  plane waves:     896
 k-point  4 :   0.2500 0.0000 0.0000  plane waves:     900
 k-point  5 :   0.3333 0.0000 0.0000  plane waves:     890
 k-point  6 :   0.4167 0.0000 0.0000  plane waves:     888
 k-point  7 :   0.5000 0.0000 0.0000  plane waves:     884
 k-point  8 :   0.0833 0.0833 0.0000  plane waves:     899
 k-point  9 :   0.1667 0.0833 0.0000  plane waves:     899
 k-point 10 :   0.2500 0.0833 0.0000  plane waves:     898
 k-point 11 :   0.3333 0.0833 0.0000  plane waves:     889
 k-point 12 :   0.4167 0.0833 0.0000  plane waves:     888
 k-point 13 :   0.5000 0.0833 0.0000  plane waves:     890
 k-point 14 :   0.1667 0.1667 0.0000  plane waves:     903
 k-point 15 :   0.2500 0.1667 0.0000  plane waves:     894
 k-point 16 :   0.3333 0.1667 0.0000  plane waves:     891
 k-point 17 :   0.4167 0.1667 0.0000  plane waves:     884
 k-point 18 :   0.5000 0.1667 0.0000  plane waves:     892
 k-point 19 :   0.2500 0.2500 0.0000  plane waves:     891
 k-point 20 :   0.3333 0.2500 0.0000  plane waves:     892
 k-point 21 :   0.4167 0.2500 0.0000  plane waves:     894
 k-point 22 :   0.5000 0.2500 0.0000  plane waves:     896
 k-point 23 :   0.3333 0.3333 0.0000  plane waves:     904
 k-point 24 :   0.4167 0.3333 0.0000  plane waves:     907
 k-point 25 :   0.5000 0.3333 0.0000  plane waves:     900
 k-point 26 :   0.4167 0.4167 0.0000  plane waves:     904
 k-point 27 :   0.5000 0.4167 0.0000  plane waves:     908
 k-point 28 :   0.5000 0.5000 0.0000  plane waves:     896
 k-point 29 :   0.0000 0.0000 0.0833  plane waves:     899
 k-point 30 :   0.0833 0.0000 0.0833  plane waves:     899
 k-point 31 :   0.1667 0.0000 0.0833  plane waves:     896
 k-point 32 :   0.2500 0.0000 0.0833  plane waves:     891
 k-point 33 :   0.3333 0.0000 0.0833  plane waves:     884
 k-point 34 :   0.4167 0.0000 0.0833  plane waves:     883
 k-point 35 :   0.5000 0.0000 0.0833  plane waves:     888
 k-point 36 :   0.0833 0.0833 0.0833  plane waves:     898
 k-point 37 :   0.1667 0.0833 0.0833  plane waves:     897
 k-point 38 :   0.2500 0.0833 0.0833  plane waves:     896
 k-point 39 :   0.3333 0.0833 0.0833  plane waves:     887
 k-point 40 :   0.4167 0.0833 0.0833  plane waves:     888
 k-point 41 :   0.5000 0.0833 0.0833  plane waves:     886
 k-point 42 :   0.1667 0.1667 0.0833  plane waves:     897
 k-point 43 :   0.2500 0.1667 0.0833  plane waves:     890
 k-point 44 :   0.3333 0.1667 0.0833  plane waves:     888
 k-point 45 :   0.4167 0.1667 0.0833  plane waves:     895
 k-point 46 :   0.5000 0.1667 0.0833  plane waves:     894
 k-point 47 :   0.2500 0.2500 0.0833  plane waves:     890
 k-point 48 :   0.3333 0.2500 0.0833  plane waves:     891
 k-point 49 :   0.4167 0.2500 0.0833  plane waves:     897
 k-point 50 :   0.5000 0.2500 0.0833  plane waves:     898
 k-point 51 :   0.3333 0.3333 0.0833  plane waves:     895
 k-point 52 :   0.4167 0.3333 0.0833  plane waves:     899
 k-point 53 :   0.5000 0.3333 0.0833  plane waves:     898
 k-point 54 :   0.4167 0.4167 0.0833  plane waves:     904
 k-point 55 :   0.5000 0.4167 0.0833  plane waves:     900
 k-point 56 :   0.5000 0.5000 0.0833  plane waves:     904
 k-point 57 :   0.0000 0.0000 0.1667  plane waves:     883
 k-point 58 :   0.0833 0.0000 0.1667  plane waves:     896
 k-point 59 :   0.1667 0.0000 0.1667  plane waves:     893
 k-point 60 :   0.2500 0.0000 0.1667  plane waves:     887
 k-point 61 :   0.3333 0.0000 0.1667  plane waves:     891
 k-point 62 :   0.4167 0.0000 0.1667  plane waves:     889
 k-point 63 :   0.5000 0.0000 0.1667  plane waves:     890
 k-point 64 :   0.0833 0.0833 0.1667  plane waves:     895
 k-point 65 :   0.1667 0.0833 0.1667  plane waves:     895
 k-point 66 :   0.2500 0.0833 0.1667  plane waves:     888
 k-point 67 :   0.3333 0.0833 0.1667  plane waves:     889
 k-point 68 :   0.4167 0.0833 0.1667  plane waves:     890
 k-point 69 :   0.5000 0.0833 0.1667  plane waves:     890
 k-point 70 :   0.1667 0.1667 0.1667  plane waves:     891
 k-point 71 :   0.2500 0.1667 0.1667  plane waves:     891
 k-point 72 :   0.3333 0.1667 0.1667  plane waves:     888
 k-point 73 :   0.4167 0.1667 0.1667  plane waves:     895
 k-point 74 :   0.5000 0.1667 0.1667  plane waves:     898
 k-point 75 :   0.2500 0.2500 0.1667  plane waves:     890
 k-point 76 :   0.3333 0.2500 0.1667  plane waves:     896
 k-point 77 :   0.4167 0.2500 0.1667  plane waves:     899
 k-point 78 :   0.5000 0.2500 0.1667  plane waves:     902
 k-point 79 :   0.3333 0.3333 0.1667  plane waves:     896
 k-point 80 :   0.4167 0.3333 0.1667  plane waves:     899
 k-point 81 :   0.5000 0.3333 0.1667  plane waves:     904
 k-point 82 :   0.4167 0.4167 0.1667  plane waves:     896
 k-point 83 :   0.5000 0.4167 0.1667  plane waves:     892
 k-point 84 :   0.5000 0.5000 0.1667  plane waves:     896
 k-point 85 :   0.0000 0.0000 0.2500  plane waves:     888
 k-point 86 :   0.0833 0.0000 0.2500  plane waves:     888
 k-point 87 :   0.1667 0.0000 0.2500  plane waves:     894
 k-point 88 :   0.2500 0.0000 0.2500  plane waves:     891
 k-point 89 :   0.3333 0.0000 0.2500  plane waves:     893
 k-point 90 :   0.4167 0.0000 0.2500  plane waves:     893
 k-point 91 :   0.5000 0.0000 0.2500  plane waves:     894
 k-point 92 :   0.0833 0.0833 0.2500  plane waves:     892
 k-point 93 :   0.1667 0.0833 0.2500  plane waves:     891
 k-point 94 :   0.2500 0.0833 0.2500  plane waves:     890
 k-point 95 :   0.3333 0.0833 0.2500  plane waves:     891
 k-point 96 :   0.4167 0.0833 0.2500  plane waves:     895
 k-point 97 :   0.5000 0.0833 0.2500  plane waves:     894
 k-point 98 :   0.1667 0.1667 0.2500  plane waves:     890
 k-point 99 :   0.2500 0.1667 0.2500  plane waves:     895
 k-point ** :   0.3333 0.1667 0.2500  plane waves:     894
 k-point ** :   0.4167 0.1667 0.2500  plane waves:     896
 k-point ** :   0.5000 0.1667 0.2500  plane waves:     902
 k-point ** :   0.2500 0.2500 0.2500  plane waves:     895
 k-point ** :   0.3333 0.2500 0.2500  plane waves:     898
 k-point ** :   0.4167 0.2500 0.2500  plane waves:     898
 k-point ** :   0.5000 0.2500 0.2500  plane waves:     904
 k-point ** :   0.3333 0.3333 0.2500  plane waves:     894
 k-point ** :   0.4167 0.3333 0.2500  plane waves:     903
 k-point ** :   0.5000 0.3333 0.2500  plane waves:     900
 k-point ** :   0.4167 0.4167 0.2500  plane waves:     896
 k-point ** :   0.5000 0.4167 0.2500  plane waves:     896
 k-point ** :   0.5000 0.5000 0.2500  plane waves:     900
 k-point ** :   0.0000 0.0000 0.3333  plane waves:     892
 k-point ** :   0.0833 0.0000 0.3333  plane waves:     892
 k-point ** :   0.1667 0.0000 0.3333  plane waves:     895
 k-point ** :   0.2500 0.0000 0.3333  plane waves:     888
 k-point ** :   0.3333 0.0000 0.3333  plane waves:     895
 k-point ** :   0.4167 0.0000 0.3333  plane waves:     894
 k-point ** :   0.5000 0.0000 0.3333  plane waves:     888
 k-point ** :   0.0833 0.0833 0.3333  plane waves:     890
 k-point ** :   0.1667 0.0833 0.3333  plane waves:     892
 k-point ** :   0.2500 0.0833 0.3333  plane waves:     892
 k-point ** :   0.3333 0.0833 0.3333  plane waves:     891
 k-point ** :   0.4167 0.0833 0.3333  plane waves:     892
 k-point ** :   0.5000 0.0833 0.3333  plane waves:     898
 k-point ** :   0.1667 0.1667 0.3333  plane waves:     892
 k-point ** :   0.2500 0.1667 0.3333  plane waves:     896
 k-point ** :   0.3333 0.1667 0.3333  plane waves:     898
 k-point ** :   0.4167 0.1667 0.3333  plane waves:     899
 k-point ** :   0.5000 0.1667 0.3333  plane waves:     898
 k-point ** :   0.2500 0.2500 0.3333  plane waves:     904
 k-point ** :   0.3333 0.2500 0.3333  plane waves:     903
 k-point ** :   0.4167 0.2500 0.3333  plane waves:     899
 k-point ** :   0.5000 0.2500 0.3333  plane waves:     900
 k-point ** :   0.3333 0.3333 0.3333  plane waves:     906
 k-point ** :   0.4167 0.3333 0.3333  plane waves:     903
 k-point ** :   0.5000 0.3333 0.3333  plane waves:     902
 k-point ** :   0.4167 0.4167 0.3333  plane waves:     896
 k-point ** :   0.5000 0.4167 0.3333  plane waves:     902
 k-point ** :   0.5000 0.5000 0.3333  plane waves:     904
 k-point ** :   0.0000 0.0000 0.4167  plane waves:     880
 k-point ** :   0.0833 0.0000 0.4167  plane waves:     887
 k-point ** :   0.1667 0.0000 0.4167  plane waves:     885
 k-point ** :   0.2500 0.0000 0.4167  plane waves:     886
 k-point ** :   0.3333 0.0000 0.4167  plane waves:     898
 k-point ** :   0.4167 0.0000 0.4167  plane waves:     894
 k-point ** :   0.5000 0.0000 0.4167  plane waves:     898
 k-point ** :   0.0833 0.0833 0.4167  plane waves:     890
 k-point ** :   0.1667 0.0833 0.4167  plane waves:     887
 k-point ** :   0.2500 0.0833 0.4167  plane waves:     890
 k-point ** :   0.3333 0.0833 0.4167  plane waves:     894
 k-point ** :   0.4167 0.0833 0.4167  plane waves:     893
 k-point ** :   0.5000 0.0833 0.4167  plane waves:     890
 k-point ** :   0.1667 0.1667 0.4167  plane waves:     890
 k-point ** :   0.2500 0.1667 0.4167  plane waves:     898
 k-point ** :   0.3333 0.1667 0.4167  plane waves:     901
 k-point ** :   0.4167 0.1667 0.4167  plane waves:     899
 k-point ** :   0.5000 0.1667 0.4167  plane waves:     904
 k-point ** :   0.2500 0.2500 0.4167  plane waves:     896
 k-point ** :   0.3333 0.2500 0.4167  plane waves:     906
 k-point ** :   0.4167 0.2500 0.4167  plane waves:     903
 k-point ** :   0.5000 0.2500 0.4167  plane waves:     906
 k-point ** :   0.3333 0.3333 0.4167  plane waves:     910
 k-point ** :   0.4167 0.3333 0.4167  plane waves:     907
 k-point ** :   0.5000 0.3333 0.4167  plane waves:     904
 k-point ** :   0.4167 0.4167 0.4167  plane waves:     910
 k-point ** :   0.5000 0.4167 0.4167  plane waves:     912
 k-point ** :   0.5000 0.5000 0.4167  plane waves:     900
 k-point ** :   0.0000 0.0000 0.5000  plane waves:     892
 k-point ** :   0.0833 0.0000 0.5000  plane waves:     884
 k-point ** :   0.1667 0.0000 0.5000  plane waves:     882
 k-point ** :   0.2500 0.0000 0.5000  plane waves:     882
 k-point ** :   0.3333 0.0000 0.5000  plane waves:     898
 k-point ** :   0.4167 0.0000 0.5000  plane waves:     886
 k-point ** :   0.5000 0.0000 0.5000  plane waves:     896
 k-point ** :   0.0833 0.0833 0.5000  plane waves:     880
 k-point ** :   0.1667 0.0833 0.5000  plane waves:     890
 k-point ** :   0.2500 0.0833 0.5000  plane waves:     890
 k-point ** :   0.3333 0.0833 0.5000  plane waves:     896
 k-point ** :   0.4167 0.0833 0.5000  plane waves:     894
 k-point ** :   0.5000 0.0833 0.5000  plane waves:     892
 k-point ** :   0.1667 0.1667 0.5000  plane waves:     888
 k-point ** :   0.2500 0.1667 0.5000  plane waves:     896
 k-point ** :   0.3333 0.1667 0.5000  plane waves:     900
 k-point ** :   0.4167 0.1667 0.5000  plane waves:     902
 k-point ** :   0.5000 0.1667 0.5000  plane waves:     896
 k-point ** :   0.2500 0.2500 0.5000  plane waves:     904
 k-point ** :   0.3333 0.2500 0.5000  plane waves:     910
 k-point ** :   0.4167 0.2500 0.5000  plane waves:     914
 k-point ** :   0.5000 0.2500 0.5000  plane waves:     908
 k-point ** :   0.3333 0.3333 0.5000  plane waves:     908
 k-point ** :   0.4167 0.3333 0.5000  plane waves:     904
 k-point ** :   0.5000 0.3333 0.5000  plane waves:     904
 k-point ** :   0.4167 0.4167 0.5000  plane waves:     910
 k-point ** :   0.5000 0.4167 0.5000  plane waves:     912
 k-point ** :   0.5000 0.5000 0.5000  plane waves:     904

 maximum and minimum number of plane-waves per node :       243      208

 maximum number of plane-waves:       914
 maximum index in each direction: 
   IXMAX=    6   IYMAX=    6   IZMAX=    5
   IXMIN=   -6   IYMIN=   -6   IZMIN=   -6


 parallel 3D FFT for wavefunctions:
    minimum data exchange during FFTs selected (reduces bandwidth)
 parallel 3D FFT for charge:
    minimum data exchange during FFTs selected (reduces bandwidth)


 total amount of memory used by VASP MPI-rank0    38438. kBytes
=======================================================================

   base      :      30000. kBytes
   nonl-proj :       2939. kBytes
   fftplans  :        346. kBytes
   grid      :        481. kBytes
   one-center:          6. kBytes
   wavefun   :       4666. kBytes
 
     INWAV:  cpu time    0.0004: real time    0.0005
 Broyden mixing: mesh for mixing (old mesh)
   NGX = 13   NGY = 13   NGZ = 11
  (NGX  = 48   NGY  = 48   NGZ  = 48)
  gives a total of   1859 points

 initial charge density was supplied:
 charge density of overlapping atoms calculated
 number of electron      32.0000000 magnetization 
 keeping initial charge density in first step


--------------------------------------------------------------------------------------------------------


 Maximum index for augmentation-charges          265 (set IRDMAX)


--------------------------------------------------------------------------------------------------------


 First call to EWALD:  gamma=   0.483
 Maximum number of real-space cells 3x 3x 3
 Maximum number of reciprocal cells 3x 3x 3

    FEWALD:  cpu time    0.0059: real time    0.0059


--------------------------------------- Iteration      1(   1)  ---------------------------------------


    POTLOK:  cpu time    0.0292: real time    0.0523
    SETDIJ:  cpu time    0.0064: real time    0.0064
     EDDAV:  cpu time   13.5516: real time   13.5604
 BZINTS: Fermi energy: 17.236370; 32.000000 electrons
         Band energy: 102.767204;  BLOECHL correction: -0.173213
       DOS:  cpu time    0.5145: real time    0.5145
    --------------------------------------------
      LOOP:  cpu time   14.1017: real time   14.1337

 eigenvalue-minimisations  :  9408
 total energy-change (2. order) : 0.5665554E+02  (-0.1418634E+04)
 number of electron      32.0000000 magnetization 
 augmentation part       32.0000000 magnetization 

 Free energy of the ion-electron system (eV)
  ---------------------------------------------------
  alpha Z        PSCENC =       105.79137905
  Ewald energy   TEWEN  =     -1354.26749656
  -Hartree energ DENC   =       -77.77703277
  -exchange      EXHF   =         0.00000000
  -V(xc)+E(xc)   XCENC  =       112.32752806
  PAW double counting   =       302.65154477     -311.85538214
  entropy T*S    EENTRO =         0.00000000
  eigenvalues    EBANDS =       102.76720431
  atomic energy  EATOM  =      1177.01779097
  Solvation  Ediel_sol  =         0.00000000
  ---------------------------------------------------
  free energy    TOTEN  =        56.65553569 eV

  energy without entropy =       56.65553569  energy(sigma->0) =       56.65553569


--------------------------------------------------------------------------------------------------------




--------------------------------------- Iteration      1(   2)  ---------------------------------------


     EDDAV:  cpu time   15.2073: real time   15.2104
 BZINTS: Fermi energy:  7.984127; 32.000000 electrons
         Band energy: -23.727540;  BLOECHL correction:  0.000000
       DOS:  cpu time    0.1234: real time    0.1234
    --------------------------------------------
      LOOP:  cpu time   15.3307: real time   15.3338

 eigenvalue-minimisations  : 12960
 total energy-change (2. order) :-0.1264947E+03  (-0.1198881E+03)
 number of electron      32.0000000 magnetization 
 augmentation part       32.0000000 magnetization 

 Free energy of the ion-electron system (eV)
  ---------------------------------------------------
  alpha Z        PSCENC =       105.79137905
  Ewald energy   TEWEN  =     -1354.26749656
  -Hartree energ DENC   =       -77.77703277
  -exchange      EXHF   =         0.00000000
  -V(xc)+E(xc)   XCENC  =       112.32752806
  PAW double counting   =       302.65154477     -311.85538214
  entropy T*S    EENTRO =         0.00000000
  eigenvalues    EBANDS =       -23.72753991
  atomic energy  EATOM  =      1177.01779097
  Solvation  Ediel_sol  =         0.00000000
  ---------------------------------------------------
  free energy    TOTEN  =       -69.83920853 eV

  energy without entropy =      -69.83920853  energy(sigma->0) =      -69.83920853


--------------------------------------------------------------------------------------------------------




--------------------------------------- Iteration      1(   3)  ---------------------------------------


     EDDAV:  cpu time   15.4948: real time   15.4958
 BZINTS: Fermi energy:  7.771169; 32.000000 electrons
         Band energy: -28.037172;  BLOECHL correction:  0.000000
       DOS:  cpu time    0.1367: real time    0.1367
    --------------------------------------------
      LOOP:  cpu time   15.6314: real time   15.6325

 eigenvalue-minimisations  : 12240
 total energy-change (2. order) :-0.4309632E+01  (-0.4286911E+01)
 number of electron      32.0000000 magnetization 
 augmentation part       32.0000000 magnetization 

 Free energy of the ion-electron system (eV)
  ---------------------------------------------------
  alpha Z        PSCENC =       105.79137905
  Ewald energy   TEWEN  =     -1354.26749656
  -Hartree energ DENC   =       -77.77703277
  -exchange      EXHF   =         0.00000000
  -V(xc)+E(xc)   XCENC  =       112.32752806
  PAW double counting   =       302.65154477     -311.85538214
  entropy T*S    EENTRO =         0.00000000
  eigenvalues    EBANDS =       -28.03717186
  atomic energy  EATOM  =      1177.01779097
  Solvation  Ediel_sol  =         0.00000000
  ---------------------------------------------------
  free energy    TOTEN  =       -74.14884048 eV

  energy without entropy =      -74.14884048  energy(sigma->0) =      -74.14884048


--------------------------------------------------------------------------------------------------------




--------------------------------------- Iteration      1(   4)  ---------------------------------------


     EDDAV:  cpu time   14.5435: real time   14.5445
 BZINTS: Fermi energy:  7.709497; 32.000000 electrons
         Band energy: -28.086489;  BLOECHL correction:  0.000000
       DOS:  cpu time    0.1233: real time    0.1233
    --------------------------------------------
      LOOP:  cpu time   14.6669: real time   14.6678

 eigenvalue-minimisations  : 12208
 total energy-change (2. order) :-0.4931736E-01  (-0.4926030E-01)
 number of electron      32.0000000 magnetization 
 augmentation part       32.0000000 magnetization 

 Free energy of the ion-electron system (eV)
  ---------------------------------------------------
  alpha Z        PSCENC =       105.79137905
  Ewald energy   TEWEN  =     -1354.26749656
  -Hartree energ DENC   =       -77.77703277
  -exchange      EXHF   =         0.00000000
  -V(xc)+E(xc)   XCENC  =       112.32752806
  PAW double counting   =       302.65154477     -311.85538214
  entropy T*S    EENTRO =         0.00000000
  eigenvalues    EBANDS =       -28.08648922
  atomic energy  EATOM  =      1177.01779097
  Solvation  Ediel_sol  =         0.00000000
  ---------------------------------------------------
  free energy    TOTEN  =       -74.19815784 eV

  energy without entropy =      -74.19815784  energy(sigma->0) =      -74.19815784


--------------------------------------------------------------------------------------------------------




--------------------------------------- Iteration      1(   5)  ---------------------------------------


     EDDAV:  cpu time   14.5521: real time   14.5531
 BZINTS: Fermi energy:  7.791165; 32.000000 electrons
         Band energy: -28.087503;  BLOECHL correction:  0.000000
       DOS:  cpu time    0.1373: real time    0.1373
    CHARGE:  cpu time    0.3549: real time    0.3549
    MIXING:  cpu time    0.0021: real time    0.0021
    --------------------------------------------
      LOOP:  cpu time   15.0464: real time   15.0475

 eigenvalue-minimisations  : 12112
 total energy-change (2. order) :-0.1013474E-02  (-0.1013011E-02)
 number of electron      32.0000006 magnetization 
 augmentation part        0.7223573 magnetization 

 Broyden mixing:
  rms(total) = 0.85792E+00    rms(broyden)= 0.85780E+00
  rms(prec ) = 0.19664E+01
  weight for this iteration     100.00

 Free energy of the ion-electron system (eV)
  ---------------------------------------------------
  alpha Z        PSCENC =       105.79137905
  Ewald energy   TEWEN  =     -1354.26749656
  -Hartree energ DENC   =       -77.77703277
  -exchange      EXHF   =         0.00000000
  -V(xc)+E(xc)   XCENC  =       112.32752806
  PAW double counting   =       302.65154477     -311.85538214
  entropy T*S    EENTRO =         0.00000000
  eigenvalues    EBANDS =       -28.08750269
  atomic energy  EATOM  =      1177.01779097
  Solvation  Ediel_sol  =         0.00000000
  ---------------------------------------------------
  free energy    TOTEN  =       -74.19917131 eV

  energy without entropy =      -74.19917131  energy(sigma->0) =      -74.19917131


--------------------------------------------------------------------------------------------------------




--------------------------------------- Iteration      1(   6)  ---------------------------------------


    POTLOK:  cpu time    0.0224: real time    0.0226
    SETDIJ:  cpu time    0.0062: real time    0.0062
     EDDAV:  cpu time   13.9137: real time   13.9144
 BZINTS: Fermi energy:  8.351579; 32.000000 electrons
         Band energy: -13.535711;  BLOECHL correction:  0.000000
       DOS:  cpu time    0.1374: real time    0.1374
    CHARGE:  cpu time    0.3371: real time    0.3371
    MIXING:  cpu time    0.0020: real time    0.0020
    --------------------------------------------
      LOOP:  cpu time   14.4187: real time   14.4196

 eigenvalue-minimisations  : 11216
 total energy-change (2. order) : 0.1447090E+01  (-0.9762825E-01)
 number of electron      32.0000006 magnetization 
 augmentation part        0.7072411 magnetization 

 Broyden mixing:
  rms(total) = 0.47717E+00    rms(broyden)= 0.47717E+00
  rms(prec ) = 0.10753E+01
  weight for this iteration     100.00

 eigenvalues of (default mixing * dielectric matrix)
  average eigenvalue GAMMA=   2.1995
  2.1995

 Free energy of the ion-electron system (eV)
  ---------------------------------------------------
  alpha Z        PSCENC =       105.79137905
  Ewald energy   TEWEN  =     -1354.26749656
  -Hartree energ DENC   =       -91.74156652
  -exchange      EXHF   =         0.00000000
  -V(xc)+E(xc)   XCENC  =       113.62412980
  PAW double counting   =       379.09808503     -388.73869239
  entropy T*S    EENTRO =         0.00000000
  eigenvalues    EBANDS =       -13.53571111
  atomic energy  EATOM  =      1177.01779097
  Solvation  Ediel_sol  =         0.00000000
  ---------------------------------------------------
  free energy    TOTEN  =       -72.75208173 eV

  energy without entropy =      -72.75208173  energy(sigma->0) =      -72.75208173


--------------------------------------------------------------------------------------------------------




--------------------------------------- Iteration      1(   7)  ---------------------------------------


    POTLOK:  cpu time    0.0210: real time    0.0213
    SETDIJ:  cpu time    0.0059: real time    0.0059
     EDDAV:  cpu time   13.7093: real time   13.7100
 BZINTS: Fermi energy:  9.004490; 32.000000 electrons
         Band energy:   3.587144;  BLOECHL correction:  0.000000
       DOS:  cpu time    0.1379: real time    0.1379
    CHARGE:  cpu time    0.3347: real time    0.3347
    MIXING:  cpu time    0.0020: real time    0.0020
    --------------------------------------------
      LOOP:  cpu time   14.2108: real time   14.2117

 eigenvalue-minimisations  : 11112
 total energy-change (2. order) : 0.4901066E+00  (-0.1129289E+00)
 number of electron      32.0000006 magnetization 
 augmentation part        0.6910574 magnetization 

 Broyden mixing:
  rms(total) = 0.66831E-01    rms(broyden)= 0.66713E-01
  rms(prec ) = 0.11542E+00
  weight for this iteration     100.00

 eigenvalues of (default mixing * dielectric matrix)
  average eigenvalue GAMMA=   2.2647
  1.9979  2.5314

 Free energy of the ion-electron system (eV)
  ---------------------------------------------------
  alpha Z        PSCENC =       105.79137905
  Ewald energy   TEWEN  =     -1354.26749656
[...]

 k-point   184 :       0.3333    0.1667    0.5000
  band No.  band energies     occupation 
      1      -8.4260      2.00000
      2      -8.4260      2.00000
      3      -6.0229      2.00000
      4      -6.0229      2.00000
      5      -2.3591      2.00000
      6      -2.3591      2.00000
      7      -0.0122      2.00000
      8      -0.0122      2.00000
      9       2.1276      2.00000
     10       2.1276      2.00000
     11       4.1750      2.00000
     12       4.1750      2.00000
     13       4.7427      2.00000
     14       4.7427      2.00000
     15       6.2448      2.00000
     16       6.2448      2.00000
     17      15.3628      0.00000
     18      15.3628      0.00000
     19      16.6451      0.00000
     20      16.6451      0.00000
     21      17.3901      0.00000
     22      17.3901      0.00000
     23      18.3346      0.00000
     24      18.3546      0.00000

 k-point   185 :       0.4167    0.1667    0.5000
  band No.  band energies     occupation 
      1      -7.9412      2.00000
      2      -7.9412      2.00000
      3      -6.7148      2.00000
      4      -6.7148      2.00000
      5      -1.9567      2.00000
      6      -1.9567      2.00000
      7      -0.7594      2.00000
      8      -0.7594      2.00000
      9       2.6093      2.00000
     10       2.6093      2.00000
     11       3.6509      2.00000
     12       3.6509      2.00000
     13       5.4981      2.00000
     14       5.4981      2.00000
     15       6.2919      2.00000
     16       6.2919      2.00000
     17      16.3714      0.00000
     18      16.3714      0.00000
     19      16.4087      0.00000
     20      16.4087      0.00000
     21      16.8433      0.00000
     22      16.8433      0.00000
     23      18.2222      0.00000
     24      18.2223      0.00000

 k-point   186 :       0.5000    0.1667    0.5000
  band No.  band energies     occupation 
      1      -7.3651      2.00000
      2      -7.3651      2.00000
      3      -7.3651      2.00000
      4      -7.3651      2.00000
      5      -1.4145      2.00000
      6      -1.4145      2.00000
      7      -1.4145      2.00000
      8      -1.4145      2.00000
      9       3.1203      2.00000
     10       3.1203      2.00000
     11       3.1203      2.00000
     12       3.1203      2.00000
     13       6.0414      2.00000
     14       6.0414      2.00000
     15       6.0414      2.00000
     16       6.0414      2.00000
     17      16.4520      0.00000
     18      16.4520      0.00000
     19      16.4520      0.00000
     20      16.4520      0.00000
     21      17.5028      0.00000
     22      17.5028      0.00000
     23      17.5029      0.00000
     24      17.5029      0.00000

 k-point   187 :       0.2500    0.2500    0.5000
  band No.  band energies     occupation 
      1      -8.5371      2.00000
      2      -8.5371      2.00000
      3      -5.5471      2.00000
      4      -5.5471      2.00000
      5      -3.0191      2.00000
      6      -3.0191      2.00000
      7      -0.0948      2.00000
      8      -0.0948      2.00000
      9       2.4538      2.00000
     10       2.4538      2.00000
     11       4.3821      2.00000
     12       4.3821      2.00000
     13       5.0773      2.00000
     14       5.0773      2.00000
     15       5.9212      2.00000
     16       5.9212      2.00000
     17      14.8048      0.00000
     18      14.8048      0.00000
     19      16.9324      0.00000
     20      16.9324      0.00000
     21      17.9793      0.00000
     22      18.0004      0.00000
     23      18.0311      0.00000
     24      18.0359      0.00000

 k-point   188 :       0.3333    0.2500    0.5000
  band No.  band energies     occupation 
      1      -8.1611      2.00000
      2      -8.1611      2.00000
      3      -5.9721      2.00000
      4      -5.9721      2.00000
      5      -3.0780      2.00000
      6      -3.0780      2.00000
      7      -0.9360      2.00000
      8      -0.9360      2.00000
      9       3.1029      2.00000
     10       3.1029      2.00000
     11       4.9554      2.00000
     12       4.9554      2.00000
     13       5.0116      2.00000
     14       5.0116      2.00000
     15       6.1443      2.00000
     16       6.1443      2.00000
     17      15.3397      0.00000
     18      15.3397      0.00000
     19      16.6677      0.00000
     20      16.6677      0.00000
     21      17.4185      0.00000
     22      17.4185      0.00000
     23      17.8527      0.00000
     24      17.8537      0.00000

 k-point   189 :       0.4167    0.2500    0.5000
  band No.  band energies     occupation 
      1      -7.6905      2.00000
      2      -7.6905      2.00000
      3      -6.5453      2.00000
      4      -6.5453      2.00000
      5      -2.8076      2.00000
      6      -2.8076      2.00000
      7      -1.6861      2.00000
      8      -1.6861      2.00000
      9       3.6432      2.00000
     10       3.6432      2.00000
     11       4.5784      2.00000
     12       4.5784      2.00000
     13       5.6414      2.00000
     14       5.6414      2.00000
     15       6.2637      2.00000
     16       6.2637      2.00000
     17      16.0733      0.00000
     18      16.0733      0.00000
     19      16.4816      0.00000
     20      16.4816      0.00000
     21      16.9072      0.00000
     22      16.9072      0.00000
     23      17.8486      0.00000
     24      17.8530      0.00000

 k-point   190 :       0.5000    0.2500    0.5000
  band No.  band energies     occupation 
      1      -7.1412      2.00000
      2      -7.1412      2.00000
      3      -7.1412      2.00000
      4      -7.1412      2.00000
      5      -2.3216      2.00000
      6      -2.3216      2.00000
      7      -2.3216      2.00000
      8      -2.3216      2.00000
      9       4.1300      2.00000
     10       4.1300      2.00000
     11       4.1300      2.00000
     12       4.1300      2.00000
     13       6.0957      2.00000
     14       6.0957      2.00000
     15       6.0957      2.00000
     16       6.0957      2.00000
     17      16.4910      0.00000
     18      16.4910      0.00000
     19      16.4910      0.00000
     20      16.4910      0.00000
     21      17.1057      0.00000
     22      17.1057      0.00000
     23      17.1057      0.00000
     24      17.1057      0.00000

 k-point   191 :       0.3333    0.3333    0.5000
  band No.  band energies     occupation 
      1      -7.7998      2.00000
      2      -7.7998      2.00000
      3      -6.0639      2.00000
      4      -6.0639      2.00000
      5      -3.4847      2.00000
      6      -3.4847      2.00000
      7      -1.7806      2.00000
      8      -1.7806      2.00000
      9       3.9237      2.00000
     10       3.9237      2.00000
     11       5.3745      2.00000
     12       5.3745      2.00000
     13       5.3990      2.00000
     14       5.3990      2.00000
     15       6.1289      2.00000
     16       6.1289      2.00000
     17      15.4914      0.00000
     18      15.4914      0.00000
     19      16.6294      0.00000
     20      16.6294      0.00000
     21      17.3436      0.00000
     22      17.3462      0.00000
     23      17.5282      0.00000
     24      17.5357      0.00000

 k-point   192 :       0.4167    0.3333    0.5000
  band No.  band energies     occupation 
      1      -7.3570      2.00000
      2      -7.3570      2.00000
      3      -6.3901      2.00000
      4      -6.3901      2.00000
      5      -3.4665      2.00000
      6      -3.4665      2.00000
      7      -2.5156      2.00000
      8      -2.5156      2.00000
      9       4.5373      2.00000
     10       4.5373      2.00000
     11       5.2922      2.00000
     12       5.2922      2.00000
     13       5.8411      2.00000
     14       5.8411      2.00000
     15       6.2395      2.00000
     16       6.2395      2.00000
     17      15.8628      0.00000
     18      15.8628      0.00000
     19      16.5404      0.00000
     20      16.5404      0.00000
     21      16.9327      0.00000
     22      16.9327      0.00000
     23      17.2586      0.00000
     24      17.2589      0.00000

 k-point   193 :       0.5000    0.3333    0.5000
  band No.  band energies     occupation 
      1      -6.8640      2.00000
      2      -6.8640      2.00000
      3      -6.8640      2.00000
      4      -6.8640      2.00000
      5      -3.1015      2.00000
      6      -3.1015      2.00000
      7      -3.1015      2.00000
      8      -3.1015      2.00000
      9       4.9782      2.00000
     10       4.9782      2.00000
     11       4.9782      2.00000
     12       4.9782      2.00000
     13       6.1681      2.00000
     14       6.1681      2.00000
     15       6.1681      2.00000
     16       6.1681      2.00000
     17      16.3786      0.00000
     18      16.3786      0.00000
     19      16.3786      0.00000
     20      16.3786      0.00000
     21      16.7567      0.00000
     22      16.7567      0.00000
     23      16.7567      0.00000
     24      16.7567      0.00000

 k-point   194 :       0.4167    0.4167    0.5000
  band No.  band energies     occupation 
      1      -6.9709      2.00000
      2      -6.9709      2.00000
      3      -6.3775      2.00000
      4      -6.3775      2.00000
      5      -3.7879      2.00000
      6      -3.7879      2.00000
      7      -3.2026      2.00000
      8      -3.2026      2.00000
      9       5.1750      2.00000
     10       5.1750      2.00000
     11       5.6078      2.00000
     12       5.6078      2.00000
     13       6.0818      2.00000
     14       6.0818      2.00000
     15       6.2680      2.00000
     16       6.2680      2.00000
     17      15.8325      0.00000
     18      15.8325      0.00000
     19      16.5459      0.00000
     20      16.5459      0.00000
     21      16.5671      0.00000
     22      16.5671      0.00000
     23      16.7854      0.00000
     24      16.7854      0.00000

 k-point   195 :       0.5000    0.4167    0.5000
  band No.  band energies     occupation 
      1      -6.6011      2.00000
      2      -6.6011      2.00000
      3      -6.6011      2.00000
      4      -6.6011      2.00000
      5      -3.6706      2.00000
      6      -3.6706      2.00000
      7      -3.6706      2.00000
      8      -3.6706      2.00000
      9       5.5253      2.00000
     10       5.5253      2.00000
     11       5.5253      2.00000
     12       5.5253      2.00000
     13       6.2581      2.00000
     14       6.2581      2.00000
     15       6.2581      2.00000
     16       6.2581      2.00000
     17      16.0548      0.00000
     18      16.0548      0.00000
     19      16.0548      0.00000
     20      16.0548      0.00000
     21      16.6242      0.00000
     22      16.6242      0.00000
     23      16.6242      0.00000
     24      16.6242      0.00000

 k-point   196 :       0.5000    0.5000    0.5000
  band No.  band energies     occupation 
      1      -6.4826      2.00000
      2      -6.4826      2.00000
      3      -6.4826      2.00000
      4      -6.4826      2.00000
      5      -3.8919      2.00000
      6      -3.8919      2.00000
      7      -3.8919      2.00000
      8      -3.8919      2.00000
      9       5.6988      2.00000
     10       5.6988      2.00000
     11       5.6988      2.00000
     12       5.6988      2.00000
     13       6.3161      2.00000
     14       6.3161      2.00000
     15       6.3161      2.00000
     16       6.3161      2.00000
     17      15.9046      0.00000
     18      15.9046      0.00000
     19      15.9046      0.00000
     20      15.9046      0.00000
     21      16.5868      0.00000
     22      16.5868      0.00000
     23      16.5868      0.00000
     24      16.5869      0.00000


--------------------------------------------------------------------------------------------------------


 soft charge-density along one line, spin component           1
         0         1         2         3         4         5         6         7         8         9
 total charge-density along one line
 
 pseudopotential strength for first ion, spin component:           1
  9.503  -0.003   0.000   0.000   0.000  -0.000  -0.000  -0.000
 -0.003  -0.002  -0.000  -0.000  -0.000  -0.000  -0.000  -0.000
  0.000  -0.000  -3.726  -0.000  -0.000  -0.006  -0.000  -0.000
  0.000  -0.000  -0.000  -3.726   0.000  -0.000  -0.006   0.000
  0.000  -0.000  -0.000   0.000  -3.726  -0.000   0.000  -0.006
 -0.000  -0.000  -0.006  -0.000  -0.000  -0.759  -0.000  -0.000
 -0.000  -0.000  -0.000  -0.006   0.000  -0.000  -0.759   0.000
 -0.000  -0.000  -0.000   0.000  -0.006  -0.000   0.000  -0.759
 total augmentation occupancy for first ion, spin component:           1
  1.417  -0.921  -0.000  -0.000   0.000   0.000   0.000   0.000
 -0.921   0.867   0.000   0.000   0.000   0.000  -0.000  -0.000
  0.000   0.000   1.049  -0.000   0.000   0.171   0.000   0.000
 -0.000   0.000  -0.000   1.061   0.000  -0.000   0.167   0.000
 -0.000   0.000  -0.000   0.000   1.049   0.000   0.000   0.171
  0.000   0.000   0.171   0.000   0.000   0.033   0.000   0.000
  0.000   0.000  -0.000   0.167   0.000  -0.000   0.031  -0.000
  0.000   0.000   0.000   0.000   0.171  -0.000   0.000   0.033


------------------------ aborting loop because EDIFF is reached ----------------------------------------


    CHARGE:  cpu time    0.3161: real time    0.3161
    FORLOC:  cpu time    0.0021: real time    0.0021
    FORNL :  cpu time    0.5033: real time    0.5033
    STRESS:  cpu time    1.1771: real time    1.1774
    FORHAR:  cpu time    0.0082: real time    0.0082
    MIXING:  cpu time    0.0026: real time    0.0026
    OFIELD:  cpu time    0.0001: real time    0.0001

  FORCE on cell =-STRESS in cart. coord.  units (eV):
  Direction    XX          YY          ZZ          XY          YZ          ZX
  --------------------------------------------------------------------------------------
  Alpha Z   105.79138   105.79138   105.79138
  Ewald    -443.47130  -443.47130  -467.32694     0.00000     0.00000     0.00000
  Hartree    38.47298    38.47298    33.06870    -0.00000    -0.00000    -0.00000
  E(xc)    -117.41490  -117.41490  -117.59614     0.00000    -0.00000     0.00000
  Local     -61.44087   -61.44087   -33.73948    -0.00000     0.00000     0.00000
  n-local   -24.64450   -24.40076   -25.52501     0.64158     0.73512     0.61847
  augment    -2.53932    -2.53932    -2.52506    -0.00000    -0.00000    -0.00000
  Kinetic   488.18472   495.28078   504.11083    -4.71970    -5.40490    -4.25996
  Fock        0.00000     0.00000     0.00000     0.00000     0.00000     0.00000
  -------------------------------------------------------------------------------------
  Total     -13.39190   -13.39190    -3.74171     0.00000    -0.00000     0.00000
  in kB    -435.28244  -435.28244  -121.61833     0.00000    -0.00000     0.00000
  external pressure =     -330.73 kB  Pullay stress =        0.00 kB


 VOLUME and BASIS-vectors are now :
 -----------------------------------------------------------------------------
  energy-cutoff  :      400.00
  volume of cell :       49.29
      direct lattice vectors                 reciprocal lattice vectors
     3.713908000  0.000000000  0.000000000     0.269258151  0.000000000  0.000000000
     0.000000000  3.713908000  0.000000000     0.000000000  0.269258151  0.000000000
     0.000000000  0.000000000  3.573710000     0.000000000  0.000000000  0.279821250

  length of vectors
     3.713908000  3.713908000  3.573710000     0.269258151  0.269258151  0.279821250


 FORCES acting on ions
    electron-ion (+dipol)            ewald-force                    non-local-force                 convergence-correction
 -----------------------------------------------------------------------------------------------
   0.000E+00 -.143E-12 0.852E-14   0.142E-13 0.711E-14 0.711E-14   0.655E-17 0.155E-17 0.230E-17   -.427E-14 -.505E-14 -.104E-14
   0.765E-14 -.262E-15 0.254E-13   -.240E-13 -.745E-14 0.164E-16   0.269E-17 -.145E-16 -.412E-17   -.376E-15 -.188E-14 0.111E-14
   0.000E+00 -.168E-12 0.325E-13   0.284E-13 0.284E-13 0.000E+00   -.135E-16 -.214E-16 0.562E-18   -.440E-14 -.562E-14 -.143E-14
   0.765E-14 0.239E-13 -.126E-14   -.596E-14 0.142E-13 -.820E-14   -.819E-17 0.860E-17 -.567E-17   -.903E-16 -.161E-14 0.374E-14
   0.230E-13 0.207E-12 0.404E-12   0.142E-13 -.142E-13 0.711E-14   0.521E-18 0.123E-16 0.883E-17   -.278E-14 -.393E-14 -.150E-14
   0.306E-13 0.454E-16 -.419E-12   -.212E-13 -.263E-13 -.109E-14   0.407E-17 -.648E-17 0.273E-17   -.214E-14 -.167E-14 0.345E-14
   0.230E-13 -.197E-12 -.367E-14   0.213E-13 0.711E-14 0.000E+00   0.170E-16 -.140E-16 0.668E-17   -.324E-14 -.550E-14 -.135E-14
   0.153E-13 0.365E-12 0.200E-13   -.142E-13 -.704E-14 -.730E-14   0.126E-16 0.183E-16 0.194E-17   -.297E-14 -.192E-14 0.411E-15
 -----------------------------------------------------------------------------------------------
   0.107E-12 0.871E-13 0.659E-13   0.128E-13 0.188E-14 -.237E-14   0.218E-16 -.156E-16 0.133E-16   -.203E-13 -.272E-13 0.340E-14
 
 
 POSITION                                       TOTAL-FORCE (eV/Angst)
 -----------------------------------------------------------------------------------
      0.92848      2.78543      0.89343        -0.000000     -0.000000     -0.000000
      0.00000      0.00000      1.78686        -0.000000      0.000000     -0.000000
      0.92848      0.92848      2.68028         0.000000     -0.000000      0.000000
      0.00000      1.85695      0.00000         0.000000     -0.000000      0.000000
      2.78543      2.78543      2.68028         0.000000     -0.000000      0.000000
      1.85695      0.00000      0.00000         0.000000      0.000000     -0.000000
      2.78543      0.92848      0.89343        -0.000000      0.000000     -0.000000
      1.85695      1.85695      1.78686        -0.000000      0.000000     -0.000000
 -----------------------------------------------------------------------------------
    total drift:                                0.000000      0.000000      0.000000


--------------------------------------------------------------------------------------------------------



  FREE ENERGIE OF THE ION-ELECTRON SYSTEM (eV)
  ---------------------------------------------------
  free  energy   TOTEN  =       -72.26869284 eV

  energy  without entropy=      -72.26869284  energy(sigma->0) =      -72.26869284
 


--------------------------------------------------------------------------------------------------------


    POTLOK:  cpu time    0.0346: real time    0.0347


--------------------------------------------------------------------------------------------------------


     LOOP+:  cpu time  162.6524: real time  162.7040
    4ORBIT:  cpu time    0.0000: real time    0.0000
 BZINTS: Fermi energy:  8.982806; 32.000000 electrons
         Band energy:   3.777600;  BLOECHL correction:  0.000000

 total amount of memory used by VASP MPI-rank0    38438. kBytes
=======================================================================

   base      :      30000. kBytes
   nonl-proj :       2939. kBytes
   fftplans  :        346. kBytes
   grid      :        481. kBytes
   one-center:          6. kBytes
   wavefun   :       4666. kBytes
 
  
  
 General timing and accounting informations for this job:
 ========================================================
  
                  Total CPU time used (sec):      166.724
                            User time (sec):      162.209
                          System time (sec):        4.515
                         Elapsed time (sec):      166.818
  
                   Maximum memory used (kb):      195736.
                   Average memory used (kb):           0.
  
                          Minor page faults:        36893
                          Major page faults:           36
                 Voluntary context switches:          784
