   8   8   0   0
  0.5697608E+01  0.3573710E-09  0.3573710E-09  0.3573710E-09  0.2000000E-16
  1.000000000000000E-004
  CAR 
 unknown system                          
     23.44463606    -13.41109207  301      9.82337320      1.00000000
    -13.411  0.0000E+00  0.0000E+00
    -13.288  0.0000E+00  0.0000E+00
    -13.165  0.0000E+00  0.0000E+00
    -13.043  0.0000E+00  0.0000E+00
    -12.920  0.0000E+00  0.0000E+00
    -12.797  0.0000E+00  0.0000E+00
    -12.674  0.0000E+00  0.0000E+00
    -12.551  0.0000E+00  0.0000E+00
    -12.428  0.0000E+00  0.0000E+00
    -12.305  0.0000E+00  0.0000E+00
    -12.183  0.0000E+00  0.0000E+00
    -12.060  0.0000E+00  0.0000E+00
    -11.937  0.0000E+00  0.0000E+00
    -11.814  0.0000E+00  0.0000E+00
    -11.691  0.3716E-01  0.5534E-03
    -11.568  0.1562E+00  0.1530E-01
    -11.445  0.2418E+00  0.3985E-01
    -11.323  0.2749E+00  0.7126E-01
    -11.200  0.3232E+00  0.1080E+00
    -11.077  0.3615E+00  0.1505E+00
    -10.954  0.3917E+00  0.1967E+00
    -10.831  0.4239E+00  0.2468E+00
    -10.708  0.4620E+00  0.3012E+00
    -10.585  0.4845E+00  0.3594E+00
    -10.463  0.5083E+00  0.4204E+00
    -10.340  0.5348E+00  0.4844E+00
    -10.217  0.5633E+00  0.5518E+00
    -10.094  0.5893E+00  0.6228E+00
     -9.971  0.6096E+00  0.6964E+00
     -9.848  0.6325E+00  0.7726E+00
     -9.726  0.6597E+00  0.8520E+00
     -9.603  0.6899E+00  0.9348E+00
     -9.480  0.7236E+00  0.1022E+01
     -9.357  0.7265E+00  0.1111E+01
     -9.234  0.7349E+00  0.1201E+01
     -9.111  0.7533E+00  0.1292E+01
     -8.988  0.7704E+00  0.1385E+01
     -8.866  0.7942E+00  0.1482E+01
     -8.743  0.8175E+00  0.1581E+01
     -8.620  0.8353E+00  0.1682E+01
     -8.497  0.8546E+00  0.1786E+01
     -8.374  0.8801E+00  0.1892E+01
     -8.251  0.9021E+00  0.2002E+01
     -8.128  0.9227E+00  0.2114E+01
     -8.006  0.9365E+00  0.2228E+01
     -7.883  0.9562E+00  0.2345E+01
     -7.760  0.1063E+01  0.2466E+01
     -7.637  0.1123E+01  0.2601E+01
     -7.514  0.1114E+01  0.2739E+01
     -7.391  0.1064E+01  0.2873E+01
     -7.268  0.1027E+01  0.3000E+01
     -7.146  0.1022E+01  0.3127E+01
     -7.023  0.1050E+01  0.3253E+01
     -6.900  0.1090E+01  0.3384E+01
     -6.777  0.1174E+01  0.3523E+01
     -6.654  0.1158E+01  0.3668E+01
     -6.531  0.1230E+01  0.3812E+01
     -6.409  0.1338E+01  0.3972E+01
     -6.286  0.1331E+01  0.4135E+01
     -6.163  0.1331E+01  0.4299E+01
     -6.040  0.1408E+01  0.4467E+01
     -5.917  0.1461E+01  0.4642E+01
     -5.794  0.1540E+01  0.4828E+01
     -5.671  0.1465E+01  0.5012E+01
     -5.549  0.1431E+01  0.5187E+01
     -5.426  0.1406E+01  0.5365E+01
     -5.303  0.1417E+01  0.5537E+01
     -5.180  0.1415E+01  0.5715E+01
     -5.057  0.1311E+01  0.5883E+01
     -4.934  0.1242E+01  0.6039E+01
     -4.811  0.1186E+01  0.6189E+01
     -4.689  0.1162E+01  0.6333E+01
     -4.566  0.1153E+01  0.6475E+01
     -4.443  0.1107E+01  0.6614E+01
     -4.320  0.1176E+01  0.6751E+01
     -4.197  0.1111E+01  0.6894E+01
     -4.074  0.1044E+01  0.7027E+01
     -3.951  0.9676E+00  0.7150E+01
     -3.829  0.9183E+00  0.7266E+01
     -3.706  0.8942E+00  0.7377E+01
     -3.583  0.9035E+00  0.7487E+01
     -3.460  0.1037E+01  0.7604E+01
     -3.337  0.1008E+01  0.7732E+01
     -3.214  0.1067E+01  0.7858E+01
     -3.091  0.9823E+00  0.7989E+01
     -2.969  0.8967E+00  0.8104E+01
     -2.846  0.9882E+00  0.8215E+01
     -2.723  0.9737E+00  0.8336E+01
     -2.600  0.8605E+00  0.8449E+01
     -2.477  0.9848E+00  0.8562E+01
     -2.354  0.1161E+01  0.8692E+01
     -2.232  0.1362E+01  0.8847E+01
     -2.109  0.1653E+01  0.9031E+01
     -1.986  0.2072E+01  0.9259E+01
     -1.863  0.2554E+01  0.9540E+01
     -1.740  0.2448E+01  0.9860E+01
     -1.617  0.2249E+01  0.1014E+02
     -1.494  0.2223E+01  0.1042E+02
     -1.372  0.1943E+01  0.1068E+02
     -1.249  0.1827E+01  0.1091E+02
     -1.126  0.1686E+01  0.1112E+02
     -1.003  0.1544E+01  0.1132E+02
     -0.880  0.1455E+01  0.1150E+02
     -0.757  0.1390E+01  0.1168E+02
     -0.634  0.1353E+01  0.1185E+02
     -0.512  0.1324E+01  0.1201E+02
     -0.389  0.1288E+01  0.1217E+02
     -0.266  0.1219E+01  0.1232E+02
     -0.143  0.1172E+01  0.1248E+02
     -0.020  0.1100E+01  0.1262E+02
      0.103  0.1101E+01  0.1275E+02
      0.226  0.1086E+01  0.1289E+02
      0.348  0.9980E+00  0.1302E+02
      0.471  0.9875E+00  0.1314E+02
      0.594  0.1341E+01  0.1328E+02
      0.717  0.1811E+01  0.1347E+02
      0.840  0.2079E+01  0.1371E+02
      0.963  0.2135E+01  0.1398E+02
      1.085  0.2238E+01  0.1424E+02
      1.208  0.2166E+01  0.1451E+02
      1.331  0.2178E+01  0.1478E+02
      1.454  0.2236E+01  0.1505E+02
      1.577  0.2142E+01  0.1532E+02
      1.700  0.1449E+01  0.1554E+02
      1.823  0.1360E+01  0.1571E+02
      1.945  0.1680E+01  0.1590E+02
      2.068  0.2004E+01  0.1612E+02
      2.191  0.2393E+01  0.1640E+02
      2.314  0.2473E+01  0.1671E+02
      2.437  0.2326E+01  0.1700E+02
      2.560  0.2229E+01  0.1728E+02
      2.683  0.2234E+01  0.1755E+02
      2.805  0.2593E+01  0.1784E+02
      2.928  0.2570E+01  0.1817E+02
      3.051  0.2799E+01  0.1849E+02
      3.174  0.3091E+01  0.1886E+02
      3.297  0.2669E+01  0.1920E+02
      3.420  0.2749E+01  0.1953E+02
      3.543  0.2600E+01  0.1986E+02
      3.665  0.2681E+01  0.2018E+02
      3.788  0.3347E+01  0.2055E+02
      3.911  0.3573E+01  0.2098E+02
      4.034  0.3382E+01  0.2141E+02
      4.157  0.3077E+01  0.2180E+02
      4.280  0.2995E+01  0.2218E+02
      4.403  0.2927E+01  0.2254E+02
      4.525  0.2895E+01  0.2290E+02
      4.648  0.3047E+01  0.2326E+02
      4.771  0.2724E+01  0.2361E+02
      4.894  0.2819E+01  0.2395E+02
      5.017  0.2947E+01  0.2430E+02
      5.140  0.3002E+01  0.2467E+02
      5.262  0.3127E+01  0.2504E+02
      5.385  0.2837E+01  0.2540E+02
      5.508  0.2879E+01  0.2576E+02
      5.631  0.2510E+01  0.2608E+02
      5.754  0.2395E+01  0.2638E+02
      5.877  0.2519E+01  0.2669E+02
      6.000  0.2570E+01  0.2700E+02
      6.122  0.2847E+01  0.2734E+02
      6.245  0.2922E+01  0.2769E+02
      6.368  0.2664E+01  0.2803E+02
      6.491  0.2614E+01  0.2836E+02
      6.614  0.2506E+01  0.2867E+02
      6.737  0.2569E+01  0.2898E+02
      6.860  0.2148E+01  0.2931E+02
      6.982  0.1743E+01  0.2953E+02
      7.105  0.1984E+01  0.2976E+02
      7.228  0.2007E+01  0.3001E+02
      7.351  0.1633E+01  0.3023E+02
      7.474  0.1454E+01  0.3042E+02
      7.597  0.1365E+01  0.3059E+02
      7.720  0.1268E+01  0.3075E+02
      7.842  0.1148E+01  0.3090E+02
      7.965  0.1028E+01  0.3104E+02
      8.088  0.9541E+00  0.3116E+02
      8.211  0.8893E+00  0.3127E+02
      8.334  0.8542E+00  0.3138E+02
      8.457  0.7771E+00  0.3148E+02
      8.579  0.6883E+00  0.3157E+02
      8.702  0.6102E+00  0.3165E+02
      8.825  0.5800E+00  0.3172E+02
      8.948  0.5198E+00  0.3179E+02
      9.071  0.4049E+00  0.3184E+02
      9.194  0.3750E+00  0.3189E+02
      9.317  0.3721E+00  0.3194E+02
      9.439  0.1984E+00  0.3197E+02
      9.562  0.1464E+00  0.3199E+02
      9.685  0.1130E-01  0.3200E+02
      9.808  0.0000E+00  0.3200E+02
      9.931  0.0000E+00  0.3200E+02
     10.054  0.0000E+00  0.3200E+02
     10.177  0.0000E+00  0.3200E+02
     10.299  0.0000E+00  0.3200E+02
     10.422  0.0000E+00  0.3200E+02
     10.545  0.0000E+00  0.3200E+02
     10.668  0.0000E+00  0.3200E+02
     10.791  0.0000E+00  0.3200E+02
     10.914  0.0000E+00  0.3200E+02
     11.037  0.0000E+00  0.3200E+02
     11.159  0.0000E+00  0.3200E+02
     11.282  0.0000E+00  0.3200E+02
     11.405  0.0000E+00  0.3200E+02
     11.528  0.0000E+00  0.3200E+02
     11.651  0.0000E+00  0.3200E+02
     11.774  0.0000E+00  0.3200E+02
     11.897  0.0000E+00  0.3200E+02
     12.019  0.0000E+00  0.3200E+02
     12.142  0.0000E+00  0.3200E+02
     12.265  0.0000E+00  0.3200E+02
     12.388  0.0000E+00  0.3200E+02
     12.511  0.0000E+00  0.3200E+02
     12.634  0.0000E+00  0.3200E+02
     12.756  0.0000E+00  0.3200E+02
     12.879  0.0000E+00  0.3200E+02
     13.002  0.0000E+00  0.3200E+02
     13.125  0.0000E+00  0.3200E+02
     13.248  0.0000E+00  0.3200E+02
     13.371  0.0000E+00  0.3200E+02
     13.494  0.0000E+00  0.3200E+02
     13.616  0.0000E+00  0.3200E+02
     13.739  0.1211E-02  0.3200E+02
     13.862  0.1828E+00  0.3201E+02
     13.985  0.5024E+00  0.3205E+02
     14.108  0.6176E+00  0.3212E+02
     14.231  0.6389E+00  0.3220E+02
     14.354  0.6985E+00  0.3228E+02
     14.476  0.8403E+00  0.3238E+02
     14.599  0.9604E+00  0.3249E+02
     14.722  0.1144E+01  0.3262E+02
     14.845  0.1509E+01  0.3278E+02
     14.968  0.1337E+01  0.3295E+02
     15.091  0.1367E+01  0.3311E+02
     15.214  0.1469E+01  0.3328E+02
     15.336  0.1482E+01  0.3346E+02
     15.459  0.1570E+01  0.3365E+02
     15.582  0.1694E+01  0.3385E+02
     15.705  0.1864E+01  0.3407E+02
     15.828  0.1969E+01  0.3431E+02
     15.951  0.2013E+01  0.3455E+02
     16.073  0.2216E+01  0.3481E+02
     16.196  0.2116E+01  0.3507E+02
     16.319  0.2201E+01  0.3534E+02
     16.442  0.2306E+01  0.3562E+02
     16.565  0.2439E+01  0.3591E+02
     16.688  0.2589E+01  0.3622E+02
     16.811  0.2709E+01  0.3654E+02
     16.933  0.2846E+01  0.3688E+02
     17.056  0.3375E+01  0.3725E+02
     17.179  0.3503E+01  0.3767E+02
     17.302  0.4069E+01  0.3814E+02
     17.425  0.3761E+01  0.3864E+02
     17.548  0.3144E+01  0.3904E+02
     17.671  0.2807E+01  0.3942E+02
     17.793  0.3236E+01  0.3976E+02
     17.916  0.2813E+01  0.4013E+02
     18.039  0.2685E+01  0.4045E+02
     18.162  0.3011E+01  0.4081E+02
     18.285  0.3625E+01  0.4120E+02
     18.408  0.4136E+01  0.4168E+02
     18.531  0.4253E+01  0.4220E+02
     18.653  0.4213E+01  0.4272E+02
     18.776  0.3653E+01  0.4321E+02
     18.899  0.3363E+01  0.4363E+02
     19.022  0.3407E+01  0.4404E+02
     19.145  0.3128E+01  0.4444E+02
     19.268  0.3061E+01  0.4482E+02
     19.391  0.2829E+01  0.4518E+02
     19.513  0.2572E+01  0.4552E+02
     19.636  0.2551E+01  0.4583E+02
     19.759  0.2701E+01  0.4615E+02
     19.882  0.2829E+01  0.4649E+02
     20.005  0.2799E+01  0.4684E+02
     20.128  0.2364E+01  0.4717E+02
     20.250  0.1937E+01  0.4743E+02
     20.373  0.1460E+01  0.4764E+02
     20.496  0.8228E+00  0.4778E+02
     20.619  0.4798E+00  0.4785E+02
     20.742  0.2946E+00  0.4790E+02
     20.865  0.2240E+00  0.4793E+02
     20.988  0.1625E+00  0.4796E+02
     21.110  0.1145E+00  0.4797E+02
     21.233  0.7429E-01  0.4798E+02
     21.356  0.5130E-01  0.4799E+02
     21.479  0.3293E-01  0.4800E+02
     21.602  0.1322E-01  0.4800E+02
     21.725  0.9398E-03  0.4800E+02
     21.848  0.0000E+00  0.4800E+02
     21.970  0.0000E+00  0.4800E+02
     22.093  0.0000E+00  0.4800E+02
     22.216  0.0000E+00  0.4800E+02
     22.339  0.0000E+00  0.4800E+02
     22.462  0.0000E+00  0.4800E+02
     22.585  0.0000E+00  0.4800E+02
     22.708  0.0000E+00  0.4800E+02
     22.830  0.0000E+00  0.4800E+02
     22.953  0.0000E+00  0.4800E+02
     23.076  0.0000E+00  0.4800E+02
     23.199  0.0000E+00  0.4800E+02
     23.322  0.0000E+00  0.4800E+02
     23.445  0.0000E+00  0.4800E+02
