Automatically generated mesh
     189
Reciprocal lattice
    0.00000000000000    0.00000000000000    0.00000000000000             1
    0.08333333333333    0.00000000000000    0.00000000000000             6
    0.16666666666667    0.00000000000000    0.00000000000000             6
    0.25000000000000   -0.00000000000000    0.00000000000000             6
    0.33333333333333    0.00000000000000    0.00000000000000             6
    0.41666666666667   -0.00000000000000    0.00000000000000             6
    0.50000000000000   -0.00000000000000    0.00000000000000             3
    0.08333333333333    0.08333333333333   -0.00000000000000             6
    0.16666666666667    0.08333333333333    0.00000000000000            12
    0.25000000000000    0.08333333333333    0.00000000000000            12
    0.33333333333333    0.08333333333333    0.00000000000000            12
    0.41666666666667    0.08333333333333    0.00000000000000            12
    0.50000000000000    0.08333333333333    0.00000000000000            12
   -0.41666666666667    0.08333333333333   -0.00000000000000            12
   -0.33333333333333    0.08333333333333   -0.00000000000000            12
   -0.25000000000000    0.08333333333333   -0.00000000000000            12
   -0.16666666666667    0.08333333333333   -0.00000000000000            12
   -0.08333333333333    0.08333333333333   -0.00000000000000             6
    0.16666666666667    0.16666666666667    0.00000000000000             6
    0.25000000000000    0.16666666666667   -0.00000000000000            12
    0.33333333333333    0.16666666666667    0.00000000000000            12
    0.41666666666667    0.16666666666667    0.00000000000000            12
    0.50000000000000    0.16666666666667   -0.00000000000000            12
   -0.41666666666667    0.16666666666667   -0.00000000000000            12
   -0.33333333333333    0.16666666666667   -0.00000000000000            12
   -0.25000000000000    0.16666666666667   -0.00000000000000            12
   -0.16666666666667    0.16666666666667   -0.00000000000000             6
    0.25000000000000    0.25000000000000   -0.00000000000000             6
    0.33333333333333    0.25000000000000   -0.00000000000000            12
    0.41666666666667    0.25000000000000    0.00000000000000            12
    0.50000000000000    0.25000000000000    0.00000000000000            12
   -0.41666666666667    0.25000000000000   -0.00000000000000            12
   -0.33333333333333    0.25000000000000   -0.00000000000000            12
   -0.25000000000000    0.25000000000000   -0.00000000000000             6
    0.33333333333333    0.33333333333333   -0.00000000000000             6
    0.41666666666667    0.33333333333333    0.00000000000000            12
    0.50000000000000    0.33333333333333   -0.00000000000000            12
   -0.41666666666667    0.33333333333333   -0.00000000000000            12
   -0.33333333333333    0.33333333333333   -0.00000000000000             6
    0.41666666666667    0.41666666666667   -0.00000000000000             6
    0.50000000000000    0.41666666666667   -0.00000000000000            12
   -0.41666666666667    0.41666666666667   -0.00000000000000             6
    0.50000000000000    0.50000000000000   -0.00000000000000             3
    0.08333333333333    0.08333333333333    0.08333333333333             2
    0.16666666666667    0.08333333333333    0.08333333333333             6
    0.25000000000000    0.08333333333333    0.08333333333333             6
    0.33333333333333    0.08333333333333    0.08333333333333             6
    0.41666666666667    0.08333333333333    0.08333333333333             6
    0.50000000000000    0.08333333333333    0.08333333333333             6
   -0.41666666666667    0.08333333333333    0.08333333333333             6
   -0.33333333333333    0.08333333333333    0.08333333333333             6
   -0.25000000000000    0.08333333333333    0.08333333333333             6
   -0.16666666666667    0.08333333333333    0.08333333333333             6
   -0.08333333333333    0.08333333333333    0.08333333333333             6
    0.16666666666667    0.16666666666667    0.08333333333333             6
    0.25000000000000    0.16666666666667    0.08333333333333            12
    0.33333333333333    0.16666666666667    0.08333333333333            12
    0.41666666666667    0.16666666666667    0.08333333333333            12
    0.50000000000000    0.16666666666667    0.08333333333333            12
   -0.41666666666667    0.16666666666667    0.08333333333333            12
   -0.33333333333333    0.16666666666667    0.08333333333333            12
   -0.25000000000000    0.16666666666667    0.08333333333333            12
   -0.16666666666667    0.16666666666667    0.08333333333333            12
   -0.08333333333333    0.16666666666667    0.08333333333333            12
    0.25000000000000    0.25000000000000    0.08333333333333             6
    0.33333333333333    0.25000000000000    0.08333333333333            12
    0.41666666666667    0.25000000000000    0.08333333333333            12
    0.50000000000000    0.25000000000000    0.08333333333333            12
   -0.41666666666667    0.25000000000000    0.08333333333333            12
   -0.33333333333333    0.25000000000000    0.08333333333333            12
   -0.25000000000000    0.25000000000000    0.08333333333333            12
   -0.16666666666667    0.25000000000000    0.08333333333333            12
   -0.08333333333333    0.25000000000000    0.08333333333333            12
    0.33333333333333    0.33333333333333    0.08333333333333             6
    0.41666666666667    0.33333333333333    0.08333333333333            12
    0.50000000000000    0.33333333333333    0.08333333333333            12
   -0.41666666666667    0.33333333333333    0.08333333333333            12
   -0.33333333333333    0.33333333333333    0.08333333333333            12
   -0.25000000000000    0.33333333333333    0.08333333333333            12
   -0.16666666666667    0.33333333333333    0.08333333333333            12
   -0.08333333333333    0.33333333333333    0.08333333333333            12
    0.41666666666667    0.41666666666667    0.08333333333333             6
    0.50000000000000    0.41666666666667    0.08333333333333            12
   -0.41666666666667    0.41666666666667    0.08333333333333            12
   -0.33333333333333    0.41666666666667    0.08333333333333            12
   -0.25000000000000    0.41666666666667    0.08333333333333            12
   -0.16666666666667    0.41666666666667    0.08333333333333            12
   -0.08333333333333    0.41666666666667    0.08333333333333            12
    0.50000000000000    0.50000000000000    0.08333333333333             6
   -0.41666666666667    0.50000000000000    0.08333333333333            12
   -0.33333333333333    0.50000000000000    0.08333333333333            12
   -0.25000000000000    0.50000000000000    0.08333333333333            12
   -0.16666666666667    0.50000000000000    0.08333333333333            12
   -0.08333333333333    0.50000000000000    0.08333333333333             6
   -0.41666666666667   -0.41666666666667    0.08333333333333             6
   -0.33333333333333   -0.41666666666667    0.08333333333333            12
   -0.25000000000000   -0.41666666666667    0.08333333333333            12
   -0.16666666666667   -0.41666666666667    0.08333333333333            12
   -0.33333333333333   -0.33333333333333    0.08333333333333             6
   -0.25000000000000   -0.33333333333333    0.08333333333333            12
   -0.16666666666667   -0.33333333333333    0.08333333333333            12
   -0.25000000000000   -0.25000000000000    0.08333333333333             6
   -0.16666666666667   -0.25000000000000    0.08333333333333            12
   -0.16666666666667   -0.16666666666667    0.08333333333333             6
    0.16666666666667    0.16666666666667    0.16666666666667             2
    0.25000000000000    0.16666666666667    0.16666666666667             6
    0.33333333333333    0.16666666666667    0.16666666666667             6
    0.41666666666667    0.16666666666667    0.16666666666667             6
    0.50000000000000    0.16666666666667    0.16666666666667             6
   -0.41666666666667    0.16666666666667    0.16666666666667             6
   -0.33333333333333    0.16666666666667    0.16666666666667             6
   -0.25000000000000    0.16666666666667    0.16666666666667             6
   -0.16666666666667    0.16666666666667    0.16666666666667             6
    0.25000000000000    0.25000000000000    0.16666666666667             6
    0.33333333333333    0.25000000000000    0.16666666666667            12
    0.41666666666667    0.25000000000000    0.16666666666667            12
    0.50000000000000    0.25000000000000    0.16666666666667            12
   -0.41666666666667    0.25000000000000    0.16666666666667            12
   -0.33333333333333    0.25000000000000    0.16666666666667            12
   -0.25000000000000    0.25000000000000    0.16666666666667            12
   -0.16666666666667    0.25000000000000    0.16666666666667            12
    0.33333333333333    0.33333333333333    0.16666666666667             6
    0.41666666666667    0.33333333333333    0.16666666666667            12
    0.50000000000000    0.33333333333333    0.16666666666667            12
   -0.41666666666667    0.33333333333333    0.16666666666667            12
   -0.33333333333333    0.33333333333333    0.16666666666667            12
   -0.25000000000000    0.33333333333333    0.16666666666667            12
   -0.16666666666667    0.33333333333333    0.16666666666667            12
    0.41666666666667    0.41666666666667    0.16666666666667             6
    0.50000000000000    0.41666666666667    0.16666666666667            12
   -0.41666666666667    0.41666666666667    0.16666666666667            12
   -0.33333333333333    0.41666666666667    0.16666666666667            12
   -0.25000000000000    0.41666666666667    0.16666666666667            12
   -0.16666666666667    0.41666666666667    0.16666666666667            12
    0.50000000000000    0.50000000000000    0.16666666666667             6
   -0.41666666666667    0.50000000000000    0.16666666666667            12
   -0.33333333333333    0.50000000000000    0.16666666666667            12
   -0.25000000000000    0.50000000000000    0.16666666666667            12
   -0.16666666666667    0.50000000000000    0.16666666666667             6
   -0.41666666666667   -0.41666666666667    0.16666666666667             6
   -0.33333333333333   -0.41666666666667    0.16666666666667            12
   -0.25000000000000   -0.41666666666667    0.16666666666667            12
   -0.33333333333333   -0.33333333333333    0.16666666666667             6
   -0.25000000000000   -0.33333333333333    0.16666666666667            12
   -0.25000000000000   -0.25000000000000    0.16666666666667             6
    0.25000000000000    0.25000000000000    0.25000000000000             2
    0.33333333333333    0.25000000000000    0.25000000000000             6
    0.41666666666667    0.25000000000000    0.25000000000000             6
    0.50000000000000    0.25000000000000    0.25000000000000             6
   -0.41666666666667    0.25000000000000    0.25000000000000             6
   -0.33333333333333    0.25000000000000    0.25000000000000             6
   -0.25000000000000    0.25000000000000    0.25000000000000             6
    0.33333333333333    0.33333333333333    0.25000000000000             6
    0.41666666666667    0.33333333333333    0.25000000000000            12
    0.50000000000000    0.33333333333333    0.25000000000000            12
   -0.41666666666667    0.33333333333333    0.25000000000000            12
   -0.33333333333333    0.33333333333333    0.25000000000000            12
   -0.25000000000000    0.33333333333333    0.25000000000000            12
    0.41666666666667    0.41666666666667    0.25000000000000             6
    0.50000000000000    0.41666666666667    0.25000000000000            12
   -0.41666666666667    0.41666666666667    0.25000000000000            12
   -0.33333333333333    0.41666666666667    0.25000000000000            12
   -0.25000000000000    0.41666666666667    0.25000000000000            12
    0.50000000000000    0.50000000000000    0.25000000000000             6
   -0.41666666666667    0.50000000000000    0.25000000000000            12
   -0.33333333333333    0.50000000000000    0.25000000000000            12
   -0.25000000000000    0.50000000000000    0.25000000000000             6
   -0.41666666666667   -0.41666666666667    0.25000000000000             6
   -0.33333333333333   -0.41666666666667    0.25000000000000            12
   -0.33333333333333   -0.33333333333333    0.25000000000000             6
    0.33333333333333    0.33333333333333    0.33333333333333             2
    0.41666666666667    0.33333333333333    0.33333333333333             6
    0.50000000000000    0.33333333333333    0.33333333333333             6
   -0.41666666666667    0.33333333333333    0.33333333333333             6
   -0.33333333333333    0.33333333333333    0.33333333333333             6
    0.41666666666667    0.41666666666667    0.33333333333333             6
    0.50000000000000    0.41666666666667    0.33333333333333            12
   -0.41666666666667    0.41666666666667    0.33333333333333            12
   -0.33333333333333    0.41666666666667    0.33333333333333            12
    0.50000000000000    0.50000000000000    0.33333333333333             6
   -0.41666666666667    0.50000000000000    0.33333333333333            12
   -0.33333333333333    0.50000000000000    0.33333333333333             6
   -0.41666666666667   -0.41666666666667    0.33333333333333             6
    0.41666666666667    0.41666666666667    0.41666666666667             2
    0.50000000000000    0.41666666666667    0.41666666666667             6
   -0.41666666666667    0.41666666666667    0.41666666666667             6
    0.50000000000000    0.50000000000000    0.41666666666667             6
   -0.41666666666667    0.50000000000000    0.41666666666667             6
    0.50000000000000    0.50000000000000    0.50000000000000             1
Tetrahedra
       864    0.00009645061728
        12         1         2         8        44
        12         2         8         9        45
        12         2         3         9        45
        12         2         8        44        45
        12         3         9        10        46
        12         3         4        10        46
        12         3         9        45        46
        12         4        10        11        47
        12         4         5        11        47
        12         4        10        46        47
        12         5        11        12        48
        12         5         6        12        48
        12         5        11        47        48
        12         6        12        13        49
        12         6         7        13        49
        12         6        12        48        49
        12         7        13        14        50
        12         6         7        14        50
        12         7        13        49        50
        12         6        14        15        51
        12         5         6        15        51
        12         6        14        50        51
        12         5        15        16        52
        12         4         5        16        52
        12         5        15        51        52
        12         4        16        17        53
        12         3         4        17        53
        12         4        16        52        53
        12         3        17        18        54
        12         2         3        18        54
        12         3        17        53        54
        12         2         2         8        18
        12         1         2         2         8
        12         2         8        18        54
        12         8         9        19        55
        12         8         9        45        55
        12         8        44        45        55
        12         9        19        20        56
        12         9        10        20        56
        12         9        10        46        56
        12         9        19        55        56
        12         9        45        55        56
        12         9        45        46        56
        12        10        20        21        57
        12        10        11        21        57
        12        10        11        47        57
        12        10        20        56        57
        12        10        46        56        57
        12        10        46        47        57
        12        11        21        22        58
        12        11        12        22        58
        12        11        12        48        58
        12        11        21        57        58
        12        11        47        57        58
        12        11        47        48        58
        12        12        22        23        59
        12        12        13        23        59
        12        12        13        49        59
        12        12        22        58        59
        12        12        48        58        59
        12        12        48        49        59
        12        13        23        24        60
        12        13        14        24        60
        12        13        14        50        60
        12        13        23        59        60
        12        13        49        59        60
        12        13        49        50        60
        12        14        24        25        61
        12        14        15        25        61
        12        14        15        51        61
        12        14        24        60        61
        12        14        50        60        61
        12        14        50        51        61
        12        15        25        26        62
        12        15        16        26        62
        12        15        16        52        62
        12        15        25        61        62
        12        15        51        61        62
        12        15        51        52        62
        12        16        26        27        63
        12        16        17        27        63
        12        16        17        53        63
        12        16        26        62        63
        12        16        52        62        63
        12        16        52        53        63
        12        17        17        27        64
        12        17        17        18        64
        12        17        18        54        64
        12        17        27        63        64
        12        17        53        63        64
        12        17        53        54        64
        12         3         9        17        18
        12         2         3         9        18
        12         2         8         9        18
        12         9        17        18        64
        12         9        18        54        64
        12         8         9        18        54
        12        19        20        28        65
        12        19        20        56        65
        12        19        55        56        65
        12        20        28        29        66
        12        20        21        29        66
        12        20        21        57        66
        12        20        28        65        66
        12        20        56        65        66
        12        20        56        57        66
        12        21        29        30        67
        12        21        22        30        67
        12        21        22        58        67
        12        21        29        66        67
        12        21        57        66        67
        12        21        57        58        67
        12        22        30        31        68
        12        22        23        31        68
        12        22        23        59        68
        12        22        30        67        68
        12        22        58        67        68
        12        22        58        59        68
        12        23        31        32        69
        12        23        24        32        69
        12        23        24        60        69
        12        23        31        68        69
        12        23        59        68        69
        12        23        59        60        69
        12        24        32        33        70
        12        24        25        33        70
        12        24        25        61        70
        12        24        32        69        70
        12        24        60        69        70
        12        24        60        61        70
        12        25        33        34        71
        12        25        26        34        71
        12        25        26        62        71
        12        25        33        70        71
        12        25        61        70        71
        12        25        61        62        71
        12        26        26        34        72
        12        26        26        27        72
        12        26        27        63        72
        12        26        34        71        72
        12        26        62        71        72
        12        26        62        63        72
        12        16        26        27        73
        12        16        17        27        73
        12        17        27        64        73
        12        26        27        72        73
        12        27        63        72        73
        12        27        63        64        73
        12         4        10        16        17
        12         3         4        10        17
        12         3         9        10        17
        12        10        16        17        73
        12        10        17        64        73
        12         9        10        17        64
        12        28        29        35        74
        12        28        29        66        74
        12        28        65        66        74
        12        29        35        36        75
        12        29        30        36        75
        12        29        30        67        75
        12        29        35        74        75
        12        29        66        74        75
        12        29        66        67        75
        12        30        36        37        76
        12        30        31        37        76
        12        30        31        68        76
        12        30        36        75        76
        12        30        67        75        76
        12        30        67        68        76
        12        31        37        38        77
        12        31        32        38        77
        12        31        32        69        77
        12        31        37        76        77
        12        31        68        76        77
        12        31        68        69        77
        12        32        38        39        78
        12        32        33        39        78
        12        32        33        70        78
        12        32        38        77        78
        12        32        69        77        78
        12        32        69        70        78
        12        33        33        39        79
        12        33        33        34        79
        12        33        34        71        79
        12        33        39        78        79
        12        33        70        78        79
        12        33        70        71        79
        12        25        33        34        80
        12        25        26        34        80
        12        26        34        72        80
        12        33        34        79        80
        12        34        71        79        80
        12        34        71        72        80
        12        15        25        26        81
        12        15        16        26        81
        12        16        26        73        81
        12        25        26        80        81
        12        26        72        80        81
        12        26        72        73        81
        12         5        11        15        16
        12         4         5        11        16
        12         4        10        11        16
        12        11        15        16        81
        12        11        16        73        81
        12        10        11        16        73
        12        35        36        40        82
        12        35        36        75        82
        12        35        74        75        82
        12        36        40        41        83
        12        36        37        41        83
        12        36        37        76        83
        12        36        40        82        83
        12        36        75        82        83
        12        36        75        76        83
        12        37        41        42        84
        12        37        38        42        84
        12        37        38        77        84
        12        37        41        83        84
        12        37        76        83        84
        12        37        76        77        84
        12        38        38        42        85
        12        38        38        39        85
        12        38        39        78        85
        12        38        42        84        85
        12        38        77        84        85
        12        38        77        78        85
        12        32        38        39        86
        12        32        33        39        86
        12        33        39        79        86
        12        38        39        85        86
        12        39        78        85        86
        12        39        78        79        86
        12        24        32        33        87
        12        24        25        33        87
        12        25        33        80        87
        12        32        33        86        87
        12        33        79        86        87
        12        33        79        80        87
        12        14        24        25        88
        12        14        15        25        88
        12        15        25        81        88
        12        24        25        87        88
        12        25        80        87        88
        12        25        80        81        88
        12         6        12        14        15
        12         5         6        12        15
        12         5        11        12        15
        12        12        14        15        88
        12        12        15        81        88
        12        11        12        15        81
        12        40        41        43        89
        12        40        41        83        89
        12        40        82        83        89
        12        41        41        43        90
        12        41        41        42        90
        12        41        42        84        90
        12        41        43        89        90
        12        41        83        89        90
        12        41        83        84        90
        12        37        41        42        91
        12        37        38        42        91
        12        38        42        85        91
        12        41        42        90        91
        12        42        84        90        91
        12        42        84        85        91
        12        31        37        38        92
        12        31        32        38        92
        12        32        38        86        92
        12        37        38        91        92
        12        38        85        91        92
        12        38        85        86        92
        12        23        31        32        93
        12        23        24        32        93
        12        24        32        87        93
        12        31        32        92        93
        12        32        86        92        93
        12        32        86        87        93
        12        13        23        24        94
        12        13        14        24        94
        12        14        24        88        94
        12        23        24        93        94
        12        24        87        93        94
        12        24        87        88        94
        12         7        13        13        14
        12         6         7        13        14
        12         6        12        13        14
        12        13        13        14        94
        12        13        14        88        94
        12        12        13        14        88
        12        40        41        43        95
        12        41        43        90        95
        12        43        89        90        95
        12        36        40        41        96
        12        36        37        41        96
        12        37        41        91        96
        12        40        41        95        96
        12        41        90        95        96
        12        41        90        91        96
        12        30        36        37        97
        12        30        31        37        97
        12        31        37        92        97
        12        36        37        96        97
        12        37        91        96        97
        12        37        91        92        97
        12        22        30        31        98
        12        22        23        31        98
        12        23        31        93        98
        12        30        31        97        98