       N       E                     dE             d eps       ncg     rms          rms(c)
DAV:   1     0.579446909892E+02    0.57945E+02   -0.14399E+04  9072   0.105E+03
DAV:   2    -0.708976760101E+02   -0.12884E+03   -0.12213E+03 12560   0.222E+02
DAV:   3    -0.750344746524E+02   -0.41368E+01   -0.41169E+01 11880   0.372E+01
DAV:   4    -0.750752878970E+02   -0.40813E-01   -0.40783E-01 11256   0.407E+00
DAV:   5    -0.750761184976E+02   -0.83060E-03   -0.83029E-03 11896   0.520E-01    0.949E+00
DAV:   6    -0.731759252723E+02    0.19002E+01   -0.12655E+00 10240   0.644E+00    0.520E+00
DAV:   7    -0.725357241438E+02    0.64020E+00   -0.14386E+00 10752   0.705E+00    0.702E-01
DAV:   8    -0.725434055972E+02   -0.76815E-02   -0.31908E-02 11432   0.105E+00    0.777E-02
DAV:   9    -0.725436319138E+02   -0.22632E-03   -0.44525E-04 11064   0.143E-01    0.305E-02
DAV:  10    -0.725436897943E+02   -0.57880E-04   -0.45182E-05 11384   0.506E-02    0.294E-03
DAV:  11    -0.725436909794E+02   -0.11852E-05   -0.11716E-06  8456   0.799E-03    0.794E-04
DAV:  12    -0.725436909228E+02    0.56621E-07   -0.10530E-07  8136   0.231E-03
   1 F= -.72543691E+02 E0= -.72543691E+02  d E =0.000000E+00
