 vasp.5.4.4.18Apr17-6-g9f103f2a35 (build Mar 12 2022 03:36:41) complex          
  
 executed on IFC19.0.3.199_CrayMP date 2022.11.30  12:52:21
 running on   16 total cores
 distrk:  each k-point on   16 cores,    1 groups
 distr:  one band on NCORES_PER_BAND=   4 cores,    4 groups


--------------------------------------------------------------------------------------------------------


 INCAR:
 POTCAR:   PAW_PBE C 08Apr2002                    
 POTCAR:   PAW_PBE C 08Apr2002                    
   VRHFIN =C: s2p2                                                              
   LEXCH  = PE                                                                  
   EATOM  =   147.1560 eV,   10.8157 Ry                                         
                                                                                
   TITEL  = PAW_PBE C 08Apr2002                                                 
   LULTRA =        F    use ultrasoft PP ?                                      
   IUNSCR =        0    unscreen: 0-lin 1-nonlin 2-no                           
   RPACOR =     .000    partial core radius                                     
   POMASS =   12.011; ZVAL   =    4.000    mass and valenz                      
   RCORE  =    1.500    outmost cutoff radius                                   
   RWIGS  =    1.630; RWIGS  =     .863    wigner-seitz radius (au A)           
   ENMAX  =  400.000; ENMIN  =  300.000 eV                                      
   ICORE  =        2    local potential                                         
   LCOR   =        T    correct aug charges                                     
   LPAW   =        T    paw PP                                                  
   EAUG   =  644.873                                                            
   DEXC   =     .000                                                            
   RMAX   =    2.266    core radius for proj-oper                               
   RAUG   =    1.300    factor for augmentation sphere                          
   RDEP   =    1.501    radius for radial grids                                 
   RDEPT  =    1.300    core radius for aug-charge                              
   QCUT   =   -5.516; QGAM   =   11.032    optimization parameters              
                                                                                
   Description                                                                  
     l     E      TYP  RCUT    TYP  RCUT                                        
     0   .000     23  1.200                                                     
     0   .000     23  1.200                                                     
     1   .000     23  1.500                                                     
     1  2.500     23  1.500                                                     
     2   .000      7  1.500                                                     
  local pseudopotential read in
  atomic valenz-charges read in
  non local Contribution for L=           0  read in
    real space projection operators read in
  non local Contribution for L=           0  read in
    real space projection operators read in
  non local Contribution for L=           1  read in
    real space projection operators read in
  non local Contribution for L=           1  read in
    real space projection operators read in
    PAW grid and wavefunctions read in
 
   number of l-projection  operators is LMAX  =           4
   number of lm-projection operators is LMMAX =           8
 
 PAW_PBE C 08Apr2002                    :
 energy of atom  1       EATOM= -147.1560
 kinetic energy error for atom=    0.0288 (will be added to EATOM!!)
 
 
 POSCAR: C8                                      
  positions in direct lattice
  No initial velocities read in
 exchange correlation table for  LEXCH =        8
   RHO(1)=    0.500       N(1)  =     2000
   RHO(2)=  100.500       N(2)  =     4000
 


--------------------------------------------------------------------------------------------------------


 ion  position               nearest neighbor table
   1  0.250  0.750  0.250-   6 1.53   8 1.53   2 1.53   4 1.59
   2  0.000  0.000  0.500-   5 1.53   7 1.53   1 1.53   3 1.59
   3  0.250  0.250  0.750-   6 1.53   8 1.53   4 1.53   2 1.59
   4  0.000  0.500  0.000-   5 1.53   7 1.53   3 1.53   1 1.59
   5  0.750  0.750  0.750-   2 1.53   4 1.53   6 1.53   8 1.59
   6  0.500  0.000  0.000-   1 1.53   3 1.53   5 1.53   7 1.59
   7  0.750  0.250  0.250-   2 1.53   4 1.53   8 1.53   6 1.59
   8  0.500  0.500  0.500-   1 1.53   3 1.53   7 1.53   5 1.59
 
  LATTYP: Found a trigonal (rhomboedric) cell.
 ALAT       =     3.5737095227
 COS(alpha) =     0.0299999201
  
  Lattice vectors:
  
 A1 = (   3.5737100000,   0.0000000000,   0.0000000000)
 A2 = (   0.1072110000,   3.5721010000,   0.0000000000)
 A3 = (   0.1072110000,   0.1040420000,   3.5705860000)


Analysis of symmetry for initial positions (statically):
=====================================================================
 Subroutine PRICEL returns following result:
 
  LATTYP: Found a trigonal (rhomboedric) cell.
 ALAT       =     2.5646192960
 COS(alpha) =     0.5291261024
  
  Lattice vectors:
  
 A1 = (  -0.1072110000,  -1.8380715000,  -1.7852930000)
 A2 = (  -1.8404605000,  -1.7860505000,  -0.0000000000)
 A3 = (  -1.8404605000,  -0.0520210000,  -1.7852930000)
 
   4 primitive cells build up your supercell.
 

 Routine SETGRP: Setting up the symmetry group for a 
 trigonal (rhombohedral) supercell.


 Subroutine GETGRP returns: Found 12 space group operations
 (whereof  6 operations were pure point group operations)
 out of a pool of 12 trial point group operations.


The static configuration has the point symmetry C_3v.
 The point group associated with its full space group is D_3d.


Analysis of symmetry for dynamics (positions and initial velocities):
=====================================================================
 Subroutine PRICEL returns following result:
 
  LATTYP: Found a trigonal (rhomboedric) cell.
 ALAT       =     2.5646192960
 COS(alpha) =     0.5291261024
  
  Lattice vectors:
  
 A1 = (  -0.1072110000,  -1.8380715000,  -1.7852930000)
 A2 = (  -1.8404605000,  -1.7860505000,  -0.0000000000)
 A3 = (  -1.8404605000,  -0.0520210000,  -1.7852930000)
 
   4 primitive cells build up your supercell.
 

 Routine SETGRP: Setting up the symmetry group for a 
 trigonal (rhombohedral) supercell.


 Subroutine GETGRP returns: Found 12 space group operations
 (whereof  6 operations were pure point group operations)
 out of a pool of 12 trial point group operations.


The dynamic configuration has the point symmetry C_3v.
 The point group associated with its full space group is D_3d.


 Subroutine INISYM returns: Found 12 space group operations
 (whereof  6 operations are pure point group operations),
 and found     4 'primitive' translations

 
 
 KPOINTS: kpt_density=1000                        

Automatic generation of k-mesh.
Space group operators:
 irot       det(A)        alpha          n_x          n_y          n_z        tau_x        tau_y        tau_z
    1     1.000000     0.000000     1.000000     0.000000     0.000000     0.000000     0.000000     0.000000
    2    -1.000000   180.000000     0.000000    -0.696733     0.717331     0.000000     0.000000     0.000000
    3     1.000000   120.000000    -0.594419    -0.576846    -0.560282     0.000000     0.000000     0.000000
    4    -1.000000   180.000000    -0.696419     0.717635    -0.000000     0.000000     0.000000     0.000000
    5     1.000000   120.000000     0.594418     0.576846     0.560282     0.000000     0.000000     0.000000
    6    -1.000000   180.000000    -0.696419     0.020902     0.717331     0.000000     0.000000     0.000000
    7    -1.000000     0.000000     1.000000     0.000000     0.000000    -0.750000    -0.750000    -0.750000
    8     1.000000   180.000000     0.000000    -0.696733     0.717331    -0.750000    -0.750000    -0.750000
    9    -1.000000   120.000000    -0.594419    -0.576846    -0.560282    -0.750000    -0.750000    -0.750000
   10     1.000000   180.000000    -0.696419     0.717635    -0.000000    -0.750000    -0.750000    -0.750000
   11    -1.000000   120.000000     0.594418     0.576846     0.560282    -0.750000    -0.750000    -0.750000
   12     1.000000   180.000000    -0.696419     0.020902     0.717331    -0.750000    -0.750000    -0.750000
 
 Subroutine IBZKPT returns following result:
 ===========================================
 
 Found    189 irreducible k-points:
 
 Following reciprocal coordinates:
            Coordinates               Weight
  0.000000  0.000000  0.000000      1.000000
  0.083333  0.000000  0.000000      6.000000
  0.166667  0.000000  0.000000      6.000000
  0.250000 -0.000000  0.000000      6.000000
  0.333333  0.000000  0.000000      6.000000
  0.416667 -0.000000  0.000000      6.000000
  0.500000 -0.000000  0.000000      3.000000
  0.083333  0.083333 -0.000000      6.000000
  0.166667  0.083333  0.000000     12.000000
  0.250000  0.083333  0.000000     12.000000
  0.333333  0.083333  0.000000     12.000000
  0.416667  0.083333  0.000000     12.000000
  0.500000  0.083333  0.000000     12.000000
 -0.416667  0.083333 -0.000000     12.000000
 -0.333333  0.083333 -0.000000     12.000000
 -0.250000  0.083333 -0.000000     12.000000
 -0.166667  0.083333 -0.000000     12.000000
 -0.083333  0.083333 -0.000000      6.000000
  0.166667  0.166667  0.000000      6.000000
  0.250000  0.166667 -0.000000     12.000000
  0.333333  0.166667  0.000000     12.000000
  0.416667  0.166667  0.000000     12.000000
  0.500000  0.166667 -0.000000     12.000000
 -0.416667  0.166667 -0.000000     12.000000
 -0.333333  0.166667 -0.000000     12.000000
 -0.250000  0.166667 -0.000000     12.000000
 -0.166667  0.166667 -0.000000      6.000000
  0.250000  0.250000 -0.000000      6.000000
  0.333333  0.250000 -0.000000     12.000000
  0.416667  0.250000  0.000000     12.000000
  0.500000  0.250000  0.000000     12.000000
 -0.416667  0.250000 -0.000000     12.000000
 -0.333333  0.250000 -0.000000     12.000000
 -0.250000  0.250000 -0.000000      6.000000
  0.333333  0.333333 -0.000000      6.000000
  0.416667  0.333333  0.000000     12.000000
  0.500000  0.333333 -0.000000     12.000000
 -0.416667  0.333333 -0.000000     12.000000
 -0.333333  0.333333 -0.000000      6.000000
  0.416667  0.416667 -0.000000      6.000000
  0.500000  0.416667 -0.000000     12.000000
 -0.416667  0.416667 -0.000000      6.000000
  0.500000  0.500000 -0.000000      3.000000
  0.083333  0.083333  0.083333      2.000000
  0.166667  0.083333  0.083333      6.000000
  0.250000  0.083333  0.083333      6.000000
  0.333333  0.083333  0.083333      6.000000
  0.416667  0.083333  0.083333      6.000000
  0.500000  0.083333  0.083333      6.000000
 -0.416667  0.083333  0.083333      6.000000
 -0.333333  0.083333  0.083333      6.000000
 -0.250000  0.083333  0.083333      6.000000
 -0.166667  0.083333  0.083333      6.000000
 -0.083333  0.083333  0.083333      6.000000
  0.166667  0.166667  0.083333      6.000000
  0.250000  0.166667  0.083333     12.000000
  0.333333  0.166667  0.083333     12.000000
  0.416667  0.166667  0.083333     12.000000
  0.500000  0.166667  0.083333     12.000000
 -0.416667  0.166667  0.083333     12.000000
 -0.333333  0.166667  0.083333     12.000000
 -0.250000  0.166667  0.083333     12.000000
 -0.166667  0.166667  0.083333     12.000000
 -0.083333  0.166667  0.083333     12.000000
  0.250000  0.250000  0.083333      6.000000
  0.333333  0.250000  0.083333     12.000000
  0.416667  0.250000  0.083333     12.000000
  0.500000  0.250000  0.083333     12.000000
 -0.416667  0.250000  0.083333     12.000000
 -0.333333  0.250000  0.083333     12.000000
 -0.250000  0.250000  0.083333     12.000000
 -0.166667  0.250000  0.083333     12.000000
 -0.083333  0.250000  0.083333     12.000000
  0.333333  0.333333  0.083333      6.000000
  0.416667  0.333333  0.083333     12.000000
  0.500000  0.333333  0.083333     12.000000
 -0.416667  0.333333  0.083333     12.000000
 -0.333333  0.333333  0.083333     12.000000
 -0.250000  0.333333  0.083333     12.000000
 -0.166667  0.333333  0.083333     12.000000
 -0.083333  0.333333  0.083333     12.000000
  0.416667  0.416667  0.083333      6.000000
  0.500000  0.416667  0.083333     12.000000
 -0.416667  0.416667  0.083333     12.000000
 -0.333333  0.416667  0.083333     12.000000
 -0.250000  0.416667  0.083333     12.000000
 -0.166667  0.416667  0.083333     12.000000
 -0.083333  0.416667  0.083333     12.000000
  0.500000  0.500000  0.083333      6.000000
 -0.416667  0.500000  0.083333     12.000000
 -0.333333  0.500000  0.083333     12.000000
 -0.250000  0.500000  0.083333     12.000000
 -0.166667  0.500000  0.083333     12.000000
 -0.083333  0.500000  0.083333      6.000000
 -0.416667 -0.416667  0.083333      6.000000
 -0.333333 -0.416667  0.083333     12.000000
 -0.250000 -0.416667  0.083333     12.000000
 -0.166667 -0.416667  0.083333     12.000000
 -0.333333 -0.333333  0.083333      6.000000
 -0.250000 -0.333333  0.083333     12.000000
 -0.166667 -0.333333  0.083333     12.000000
 -0.250000 -0.250000  0.083333      6.000000
 -0.166667 -0.250000  0.083333     12.000000
 -0.166667 -0.166667  0.083333      6.000000
  0.166667  0.166667  0.166667      2.000000
  0.250000  0.166667  0.166667      6.000000
  0.333333  0.166667  0.166667      6.000000
  0.416667  0.166667  0.166667      6.000000
  0.500000  0.166667  0.166667      6.000000
 -0.416667  0.166667  0.166667      6.000000
 -0.333333  0.166667  0.166667      6.000000
 -0.250000  0.166667  0.166667      6.000000
 -0.166667  0.166667  0.166667      6.000000
  0.250000  0.250000  0.166667      6.000000
  0.333333  0.250000  0.166667     12.000000
  0.416667  0.250000  0.166667     12.000000
  0.500000  0.250000  0.166667     12.000000
 -0.416667  0.250000  0.166667     12.000000
 -0.333333  0.250000  0.166667     12.000000
 -0.250000  0.250000  0.166667     12.000000
 -0.166667  0.250000  0.166667     12.000000
  0.333333  0.333333  0.166667      6.000000
  0.416667  0.333333  0.166667     12.000000
  0.500000  0.333333  0.166667     12.000000
 -0.416667  0.333333  0.166667     12.000000
 -0.333333  0.333333  0.166667     12.000000
 -0.250000  0.333333  0.166667     12.000000
 -0.166667  0.333333  0.166667     12.000000
  0.416667  0.416667  0.166667      6.000000
  0.500000  0.416667  0.166667     12.000000
 -0.416667  0.416667  0.166667     12.000000
 -0.333333  0.416667  0.166667     12.000000
 -0.250000  0.416667  0.166667     12.000000
 -0.166667  0.416667  0.166667     12.000000
  0.500000  0.500000  0.166667      6.000000
 -0.416667  0.500000  0.166667     12.000000
 -0.333333  0.500000  0.166667     12.000000
 -0.250000  0.500000  0.166667     12.000000
 -0.166667  0.500000  0.166667      6.000000
 -0.416667 -0.416667  0.166667      6.000000
 -0.333333 -0.416667  0.166667     12.000000
 -0.250000 -0.416667  0.166667     12.000000
 -0.333333 -0.333333  0.166667      6.000000
 -0.250000 -0.333333  0.166667     12.000000
 -0.250000 -0.250000  0.166667      6.000000
  0.250000  0.250000  0.250000      2.000000
  0.333333  0.250000  0.250000      6.000000
  0.416667  0.250000  0.250000      6.000000
  0.500000  0.250000  0.250000      6.000000
 -0.416667  0.250000  0.250000      6.000000
 -0.333333  0.250000  0.250000      6.000000
 -0.250000  0.250000  0.250000      6.000000
  0.333333  0.333333  0.250000      6.000000
  0.416667  0.333333  0.250000     12.000000
  0.500000  0.333333  0.250000     12.000000
 -0.416667  0.333333  0.250000     12.000000
 -0.333333  0.333333  0.250000     12.000000
 -0.250000  0.333333  0.250000     12.000000
  0.416667  0.416667  0.250000      6.000000
  0.500000  0.416667  0.250000     12.000000
 -0.416667  0.416667  0.250000     12.000000
 -0.333333  0.416667  0.250000     12.000000
 -0.250000  0.416667  0.250000     12.000000
  0.500000  0.500000  0.250000      6.000000
 -0.416667  0.500000  0.250000     12.000000
 -0.333333  0.500000  0.250000     12.000000
 -0.250000  0.500000  0.250000      6.000000
 -0.416667 -0.416667  0.250000      6.000000
 -0.333333 -0.416667  0.250000     12.000000
 -0.333333 -0.333333  0.250000      6.000000
  0.333333  0.333333  0.333333      2.000000
  0.416667  0.333333  0.333333      6.000000
  0.500000  0.333333  0.333333      6.000000
 -0.416667  0.333333  0.333333      6.000000
 -0.333333  0.333333  0.333333      6.000000
  0.416667  0.416667  0.333333      6.000000
  0.500000  0.416667  0.333333     12.000000
 -0.416667  0.416667  0.333333     12.000000
 -0.333333  0.416667  0.333333     12.000000
  0.500000  0.500000  0.333333      6.000000
 -0.416667  0.500000  0.333333     12.000000
 -0.333333  0.500000  0.333333      6.000000
 -0.416667 -0.416667  0.333333      6.000000
  0.416667  0.416667  0.416667      2.000000
  0.500000  0.416667  0.416667      6.000000
 -0.416667  0.416667  0.416667      6.000000
  0.500000  0.500000  0.416667      6.000000
 -0.416667  0.500000  0.416667      6.000000
  0.500000  0.500000  0.500000      1.000000
 
 Following cartesian coordinates:
            Coordinates               Weight
  0.000000  0.000000  0.000000      1.000000
  0.023318 -0.000700 -0.000680      6.000000
  0.046637 -0.001400 -0.001360      6.000000
  0.069955 -0.002100 -0.002039      6.000000
  0.093274 -0.002799 -0.002719      6.000000
  0.116592 -0.003499 -0.003399      6.000000
  0.139911 -0.004199 -0.004079      3.000000
  0.023318  0.022629 -0.001360      6.000000
  0.046637  0.021929 -0.002039     12.000000
  0.069955  0.021229 -0.002719     12.000000
  0.093274  0.020529 -0.003399     12.000000
  0.116592  0.019830 -0.004079     12.000000
  0.139911  0.019130 -0.004758     12.000000
 -0.116592  0.026828  0.002719     12.000000
 -0.093274  0.026128  0.002039     12.000000
 -0.069955  0.025429  0.001360     12.000000
 -0.046637  0.024729  0.000680     12.000000
 -0.023318  0.024029 -0.000000      6.000000
  0.046637  0.045258 -0.002719      6.000000
  0.069955  0.044558 -0.003399     12.000000
  0.093274  0.043858 -0.004079     12.000000
  0.116592  0.043159 -0.004758     12.000000
  0.139911  0.042459 -0.005438     12.000000
 -0.116592  0.050157  0.002039     12.000000
 -0.093274  0.049457  0.001360     12.000000
 -0.069955  0.048757  0.000680     12.000000
 -0.046637  0.048058 -0.000000      6.000000
  0.069955  0.067887 -0.004079      6.000000
  0.093274  0.067187 -0.004758     12.000000
  0.116592  0.066487 -0.005438     12.000000
  0.139911  0.065788 -0.006118     12.000000
 -0.116592  0.073486  0.001360     12.000000
 -0.093274  0.072786  0.000680     12.000000
 -0.069955  0.072086 -0.000000      6.000000
  0.093274  0.090516 -0.005438      6.000000
  0.116592  0.089816 -0.006118     12.000000
  0.139911  0.089117 -0.006798     12.000000
 -0.116592  0.096815  0.000680     12.000000
 -0.093274  0.096115 -0.000000      6.000000
  0.116592  0.113145 -0.006798      6.000000
  0.139911  0.112446 -0.007477     12.000000
 -0.116592  0.120144 -0.000000      6.000000
  0.139911  0.135774 -0.008157      3.000000
  0.023318  0.022629  0.021979      2.000000
  0.046637  0.021929  0.021300      6.000000
  0.069955  0.021229  0.020620      6.000000
  0.093274  0.020529  0.019940      6.000000
  0.116592  0.019830  0.019260      6.000000
  0.139911  0.019130  0.018580      6.000000
 -0.116592  0.026828  0.026058      6.000000
 -0.093274  0.026128  0.025378      6.000000
 -0.069955  0.025429  0.024698      6.000000
 -0.046637  0.024729  0.024019      6.000000
 -0.023318  0.024029  0.023339      6.000000
  0.046637  0.045258  0.020620      6.000000
  0.069955  0.044558  0.019940     12.000000
  0.093274  0.043858  0.019260     12.000000
  0.116592  0.043159  0.018580     12.000000
  0.139911  0.042459  0.017901     12.000000
 -0.116592  0.050157  0.025378     12.000000
 -0.093274  0.049457  0.024698     12.000000
 -0.069955  0.048757  0.024019     12.000000
 -0.046637  0.048058  0.023339     12.000000
 -0.023318  0.047358  0.022659     12.000000
  0.069955  0.067887  0.019260      6.000000
  0.093274  0.067187  0.018580     12.000000
  0.116592  0.066487  0.017901     12.000000
  0.139911  0.065788  0.017221     12.000000
 -0.116592  0.073486  0.024698     12.000000
 -0.093274  0.072786  0.024019     12.000000
 -0.069955  0.072086  0.023339     12.000000
 -0.046637  0.071387  0.022659     12.000000
 -0.023318  0.070687  0.021979     12.000000
  0.093274  0.090516  0.017901      6.000000
  0.116592  0.089816  0.017221     12.000000
  0.139911  0.089117  0.016541     12.000000
 -0.116592  0.096815  0.024019     12.000000
 -0.093274  0.096115  0.023339     12.000000
 -0.069955  0.095415  0.022659     12.000000
 -0.046637  0.094715  0.021979     12.000000
 -0.023318  0.094016  0.021300     12.000000
  0.116592  0.113145  0.016541      6.000000
  0.139911  0.112446  0.015861     12.000000
 -0.116592  0.120144  0.023339     12.000000
 -0.093274  0.119444  0.022659     12.000000
 -0.069955  0.118744  0.021979     12.000000
 -0.046637  0.118044  0.021300     12.000000
 -0.023318  0.117345  0.020620     12.000000
  0.139911  0.135774  0.015182      6.000000
 -0.116592  0.143473  0.022659     12.000000
 -0.093274  0.142773  0.021979     12.000000
 -0.069955  0.142073  0.021300     12.000000
 -0.046637  0.141373  0.020620     12.000000
 -0.023318  0.140674  0.019940      6.000000
 -0.116592 -0.113145  0.030137      6.000000
 -0.093274 -0.113845  0.029457     12.000000
 -0.069955 -0.114545  0.028777     12.000000
 -0.046637 -0.115245  0.028097     12.000000
 -0.093274 -0.090516  0.028777      6.000000
 -0.069955 -0.091216  0.028097     12.000000
 -0.046637 -0.091916  0.027417     12.000000
 -0.069955 -0.067887  0.027417      6.000000
 -0.046637 -0.068587  0.026738     12.000000
 -0.046637 -0.045258  0.026058      6.000000
  0.046637  0.045258  0.043959      2.000000
  0.069955  0.044558  0.043279      6.000000
  0.093274  0.043858  0.042599      6.000000
  0.116592  0.043159  0.041919      6.000000
  0.139911  0.042459  0.041240      6.000000
 -0.116592  0.050157  0.048717      6.000000
 -0.093274  0.049457  0.048037      6.000000
 -0.069955  0.048757  0.047357      6.000000
 -0.046637  0.048058  0.046678      6.000000
  0.069955  0.067887  0.042599      6.000000
  0.093274  0.067187  0.041919     12.000000
  0.116592  0.066487  0.041240     12.000000
  0.139911  0.065788  0.040560     12.000000
 -0.116592  0.073486  0.048037     12.000000
 -0.093274  0.072786  0.047357     12.000000
 -0.069955  0.072086  0.046678     12.000000
 -0.046637  0.071387  0.045998     12.000000
  0.093274  0.090516  0.041240      6.000000
  0.116592  0.089816  0.040560     12.000000
  0.139911  0.089117  0.039880     12.000000
 -0.116592  0.096815  0.047357     12.000000
 -0.093274  0.096115  0.046678     12.000000
 -0.069955  0.095415  0.045998     12.000000
 -0.046637  0.094715  0.045318     12.000000
  0.116592  0.113145  0.039880      6.000000
  0.139911  0.112446  0.039200     12.000000
 -0.116592  0.120144  0.046678     12.000000
 -0.093274  0.119444  0.045998     12.000000
 -0.069955  0.118744  0.045318     12.000000
 -0.046637  0.118044  0.044638     12.000000
  0.139911  0.135774  0.038520      6.000000
 -0.116592  0.143473  0.045998     12.000000
 -0.093274  0.142773  0.045318     12.000000
 -0.069955  0.142073  0.044638     12.000000
 -0.046637  0.141373  0.043959      6.000000
 -0.116592 -0.113145  0.053475      6.000000
 -0.093274 -0.113845  0.052796     12.000000
 -0.069955 -0.114545  0.052116     12.000000
 -0.093274 -0.090516  0.052116      6.000000
 -0.069955 -0.091216  0.051436     12.000000
 -0.069955 -0.067887  0.050756      6.000000
  0.069955  0.067887  0.065938      2.000000
  0.093274  0.067187  0.065258      6.000000
  0.116592  0.066487  0.064578      6.000000
  0.139911  0.065788  0.063899      6.000000
 -0.116592  0.073486  0.071376      6.000000
 -0.093274  0.072786  0.070696      6.000000
 -0.069955  0.072086  0.070017      6.000000
  0.093274  0.090516  0.064578      6.000000
  0.116592  0.089816  0.063899     12.000000
  0.139911  0.089117  0.063219     12.000000
 -0.116592  0.096815  0.070696     12.000000
 -0.093274  0.096115  0.070017     12.000000
 -0.069955  0.095415  0.069337     12.000000
  0.116592  0.113145  0.063219      6.000000
  0.139911  0.112446  0.062539     12.000000
 -0.116592  0.120144  0.070017     12.000000
 -0.093274  0.119444  0.069337     12.000000
 -0.069955  0.118744  0.068657     12.000000
  0.139911  0.135774  0.061859      6.000000
 -0.116592  0.143473  0.069337     12.000000
 -0.093274  0.142773  0.068657     12.000000
 -0.069955  0.142073  0.067977      6.000000
 -0.116592 -0.113145  0.076814      6.000000
 -0.093274 -0.113845  0.076134     12.000000
 -0.093274 -0.090516  0.075455      6.000000
  0.093274  0.090516  0.087917      2.000000
  0.116592  0.089816  0.087237      6.000000
  0.139911  0.089117  0.086558      6.000000
 -0.116592  0.096815  0.094035      6.000000
 -0.093274  0.096115  0.093355      6.000000
  0.116592  0.113145  0.086558      6.000000
  0.139911  0.112446  0.085878     12.000000
 -0.116592  0.120144  0.093355     12.000000
 -0.093274  0.119444  0.092676     12.000000
  0.139911  0.135774  0.085198      6.000000
 -0.116592  0.143473  0.092676     12.000000
 -0.093274  0.142773  0.091996      6.000000
 -0.116592 -0.113145  0.100153      6.000000
  0.116592  0.113145  0.109896      2.000000
  0.139911  0.112446  0.109217      6.000000
 -0.116592  0.120144  0.116694      6.000000
  0.139911  0.135774  0.108537      6.000000
 -0.116592  0.143473  0.116014      6.000000
  0.139911  0.135774  0.131876      1.000000
 
 TETIRR: Found    864 inequivalent tetrahedra from    10368


--------------------------------------------------------------------------------------------------------




 Dimension of arrays:
   k-points           NKPTS =    189   k-points in BZ     NKDIM =    189   number of bands    NBANDS=     24
   number of dos      NEDOS =    301   number of ions     NIONS =      8
   non local maximal  LDIM  =      4   non local SUM 2l+1 LMDIM =      8
   total plane-waves  NPLWV =  13824
   max r-space proj   IRMAX =      1   max aug-charges    IRDMAX=   3778
   dimension x,y,z NGX =    24 NGY =   24 NGZ =   24
   dimension x,y,z NGXF=    48 NGYF=   48 NGZF=   48
   support grid    NGXF=    48 NGYF=   48 NGZF=   48
   ions per type =               8
   NGX,Y,Z   is equivalent  to a cutoff of  11.16, 11.16, 11.16 a.u.
   NGXF,Y,Z  is equivalent  to a cutoff of  22.33, 22.33, 22.33 a.u.

 SYSTEM =  unknown system                          
 POSCAR =  C8                                      

 Startparameter for this run:
   NWRITE =      2    write-flag & timer
   PREC   = accura    normal or accurate (medium, high low for compatibility)
   ISTART =      0    job   : 0-new  1-cont  2-samecut
   ICHARG =      2    charge: 1-file 2-atom 10-const
   ISPIN  =      1    spin polarized calculation?
   LNONCOLLINEAR =      F non collinear calculations
   LSORBIT =      F    spin-orbit coupling
   INIWAV =      1    electr: 0-lowe 1-rand  2-diag
   LASPH  =      F    aspherical Exc in radial PAW
   METAGGA=      F    non-selfconsistent MetaGGA calc.

 Electronic Relaxation 1
   ENCUT  =  400.0 eV  29.40 Ry    5.42 a.u.   5.83  5.83  5.83*2*pi/ulx,y,z
   ENINI  =  400.0     initial cutoff
   ENAUG  =  644.9 eV  augmentation charge cutoff
   NELM   =     60;   NELMIN=  2; NELMDL= -5     # of ELM steps 
   EDIFF  = 0.1E-05   stopping-criterion for ELM
   LREAL  =      F    real-space projection
   NLSPLINE    = F    spline interpolate recip. space projectors
   LCOMPAT=      F    compatible to vasp.4.4
   GGA_COMPAT  = T    GGA compatible to vasp.4.4-vasp.4.6
   LMAXPAW     = -100 max onsite density
   LMAXMIX     =    2 max onsite mixed and CHGCAR
   VOSKOWN=      0    Vosko Wilk Nusair interpolation
   ROPT   =    0.00000
 Ionic relaxation
   EDIFFG = 0.1E-04   stopping-criterion for IOM
   NSW    =      0    number of steps for IOM
   NBLOCK =      1;   KBLOCK =      1    inner block; outer block 
   IBRION =     -1    ionic relax: 0-MD 1-quasi-New 2-CG
   NFREE  =      0    steps in history (QN), initial steepest desc. (CG)
   ISIF   =      2    stress and relaxation
   IWAVPR =     10    prediction:  0-non 1-charg 2-wave 3-comb
   ISYM   =      2    0-nonsym 1-usesym 2-fastsym
   LCORR  =      T    Harris-Foulkes like correction to forces

   POTIM  = 0.0200    time-step for ionic-motion
   TEIN   =    0.0    initial temperature
   TEBEG  =    0.0;   TEEND  =   0.0 temperature during run
   SMASS  =  -3.00    Nose mass-parameter (am)
   estimated Nose-frequenzy (Omega)   =  0.10E-29 period in steps =****** mass=  -0.292E-27a.u.
   SCALEE = 1.0000    scale energy and forces
   NPACO  =    256;   APACO  = 16.0  distance and # of slots for P.C.
   PSTRESS=    0.0 pullay stress

  Mass of Ions in am
   POMASS =  12.01
  Ionic Valenz
   ZVAL   =   4.00
  Atomic Wigner-Seitz radii
   RWIGS  =  -1.00
  virtual crystal weights 
   VCA    =   1.00
   NELECT =      32.0000    total number of electrons
   NUPDOWN=      -1.0000    fix difference up-down

 DOS related values:
   EMIN   =  10.00;   EMAX   =-10.00  energy-range for DOS
   EFERMI =   0.00
   ISMEAR =    -5;   SIGMA  =   0.06  broadening in eV -4-tet -1-fermi 0-gaus

 Electronic relaxation 2 (details)
   IALGO  =     38    algorithm
   LDIAG  =      T    sub-space diagonalisation (order eigenvalues)
   LSUBROT=      F    optimize rotation matrix (better conditioning)
   TURBO    =      0    0=normal 1=particle mesh
   IRESTART =      0    0=no restart 2=restart with 2 vectors
   NREBOOT  =      0    no. of reboots
   NMIN     =      0    reboot dimension
   EREF     =   0.00    reference energy to select bands
   IMIX   =      4    mixing-type and parameters
     AMIX     =   0.40;   BMIX     =  1.00
     AMIX_MAG =   1.60;   BMIX_MAG =  1.00
     AMIN     =   0.10
     WC   =   100.;   INIMIX=   1;  MIXPRE=   1;  MAXMIX= -45

 Intra band minimization:
   WEIMIN = 0.0000     energy-eigenvalue tresh-hold
   EBREAK =  0.10E-07  absolut break condition
   DEPER  =   0.30     relativ break condition  

   TIME   =   0.40     timestep for ELM

  volume/ion in A,a.u.               =       5.70        38.45
  Fermi-wavevector in a.u.,A,eV,Ry     =   1.455003  2.749558 28.804004  2.117035
  Thomas-Fermi vector in A             =   2.572088
 
 Write flags
   LWAVE        =      F    write WAVECAR
   LDOWNSAMPLE  =      F    k-point downsampling of WAVECAR
   LCHARG       =      F    write CHGCAR
   LVTOT        =      F    write LOCPOT, total local potential
   LVHAR        =      F    write LOCPOT, Hartree potential only
   LELF         =      F    write electronic localiz. function (ELF)
   LORBIT       =      0    0 simple, 1 ext, 2 COOP (PROOUT), +10 PAW based schemes


 Dipole corrections
   LMONO  =      F    monopole corrections only (constant potential shift)
   LDIPOL =      F    correct potential (dipole corrections)
   IDIPOL =      0    1-x, 2-y, 3-z, 4-all directions 
   EPSILON=  1.0000000 bulk dielectric constant

 Exchange correlation treatment:
   GGA     =    --    GGA type
   LEXCH   =     8    internal setting for exchange type
   VOSKOWN=      0    Vosko Wilk Nusair interpolation
   LHFCALC =     F    Hartree Fock is set to
   LHFONE  =     F    Hartree Fock one center treatment
   AEXX    =    0.0000 exact exchange contribution

 Linear response parameters
   LEPSILON=     F    determine dielectric tensor
   LRPA    =     F    only Hartree local field effects (RPA)
   LNABLA  =     F    use nabla operator in PAW spheres
   LVEL    =     F    velocity operator in full k-point grid
   LINTERFAST=   F  fast interpolation
   KINTER  =     0    interpolate to denser k-point grid
   CSHIFT  =0.1000    complex shift for real part using Kramers Kronig
   OMEGAMAX=  -1.0    maximum frequency
   DEG_THRESHOLD= 0.2000000E-02 threshold for treating states as degnerate
   RTIME   =   -0.100 relaxation time in fs
  (WPLASMAI=    0.000 imaginary part of plasma frequency in eV, 0.658/RTIME)
   DFIELD  = 0.0000000 0.0000000 0.0000000 field for delta impulse in time
 
 Orbital magnetization related:
   ORBITALMAG=     F  switch on orbital magnetization
   LCHIMAG   =     F  perturbation theory with respect to B field
   DQ        =  0.001000  dq finite difference perturbation B field
   LLRAUG    =     F  two centre corrections for induced B field



--------------------------------------------------------------------------------------------------------


 Static calculation
 charge density and potential will be updated during run
 non-spin polarized calculation
 Variant of blocked Davidson
 Davidson routine will perform the subspace rotation
 perform sub-space diagonalisation
    after iterative eigenvector-optimisation
 modified Broyden-mixing scheme, WC =      100.0
 initial mixing is a Kerker type mixing with AMIX =  0.4000 and BMIX =      1.0000
 Hartree-type preconditioning will be used
 using additional bands            8
 reciprocal scheme for non local part
 calculate Harris-corrections to forces 
   (improved forces if not selfconsistent)
 use gradient corrections 
 use of overlap-Matrix (Vanderbilt PP)
 Fermi weights with tetrahedron method with Bloechl corrections


--------------------------------------------------------------------------------------------------------


  energy-cutoff  :      400.00
  volume of cell :       45.58
      direct lattice vectors                 reciprocal lattice vectors
     3.573710000  0.000000000  0.000000000     0.279821250 -0.008398395 -0.008157241
     0.107211000  3.572101000  0.000000000     0.000000000  0.279947292 -0.008157282
     0.107211000  0.104042000  3.570586000     0.000000000  0.000000000  0.280066073

  length of vectors
     3.573710000  3.573709523  3.573710022     0.280066074  0.280066112  0.280066073


 
 k-points in units of 2pi/SCALE and weight: kpt_density=1000                        
   0.00000000  0.00000000  0.00000000       0.001
   0.02331844 -0.00069987 -0.00067977       0.003
   0.04663688 -0.00139973 -0.00135954       0.003
   0.06995531 -0.00209960 -0.00203931       0.003
   0.09327375 -0.00279947 -0.00271908       0.003
   0.11659219 -0.00349933 -0.00339885       0.003
   0.13991063 -0.00419920 -0.00407862       0.002
   0.02331844  0.02262907 -0.00135954       0.003
   0.04663688  0.02192921 -0.00203931       0.007
   0.06995531  0.02122934 -0.00271908       0.007
   0.09327375  0.02052948 -0.00339885       0.007
   0.11659219  0.01982961 -0.00407862       0.007
   0.13991063  0.01912974 -0.00475839       0.007
  -0.11659219  0.02682827  0.00271908       0.007
  -0.09327375  0.02612841  0.00203931       0.007
  -0.06995531  0.02542854  0.00135954       0.007
  -0.04663688  0.02472867  0.00067977       0.007
  -0.02331844  0.02402881 -0.00000000       0.003
   0.04663688  0.04525815 -0.00271909       0.003
   0.06995531  0.04455828 -0.00339886       0.007
   0.09327375  0.04385842 -0.00407863       0.007
   0.11659219  0.04315855 -0.00475840       0.007
   0.13991063  0.04245868 -0.00543817       0.007
  -0.11659219  0.05015721  0.00203930       0.007
  -0.09327375  0.04945735  0.00135953       0.007
  -0.06995531  0.04875748  0.00067976       0.007
  -0.04663688  0.04805761 -0.00000001       0.003
   0.06995531  0.06788722 -0.00407863       0.003
   0.09327375  0.06718736 -0.00475840       0.007
   0.11659219  0.06648749 -0.00543817       0.007
   0.13991063  0.06578763 -0.00611794       0.007
  -0.11659219  0.07348615  0.00135953       0.007
  -0.09327375  0.07278629  0.00067976       0.007
  -0.06995531  0.07208642 -0.00000001       0.003
   0.09327375  0.09051630 -0.00543817       0.003
   0.11659219  0.08981643 -0.00611794       0.007
   0.13991063  0.08911657 -0.00679771       0.007
  -0.11659219  0.09681510  0.00067976       0.007
  -0.09327375  0.09611523 -0.00000001       0.003
   0.11659219  0.11314537 -0.00679772       0.003
   0.13991063  0.11244551 -0.00747749       0.007
  -0.11659219  0.12014404 -0.00000002       0.003
   0.13991063  0.13577445 -0.00815726       0.002
   0.02331844  0.02262907  0.02197930       0.001
   0.04663688  0.02192921  0.02129953       0.003
   0.06995531  0.02122934  0.02061976       0.003
   0.09327375  0.02052948  0.01993999       0.003
   0.11659219  0.01982961  0.01926022       0.003
   0.13991063  0.01912974  0.01858045       0.003
  -0.11659219  0.02682827  0.02605792       0.003
  -0.09327375  0.02612841  0.02537815       0.003
  -0.06995531  0.02542854  0.02469838       0.003
  -0.04663688  0.02472867  0.02401861       0.003
  -0.02331844  0.02402881  0.02333884       0.003
   0.04663688  0.04525815  0.02061975       0.003
   0.06995531  0.04455828  0.01993998       0.007
   0.09327375  0.04385842  0.01926021       0.007
   0.11659219  0.04315855  0.01858044       0.007
   0.13991063  0.04245868  0.01790067       0.007
  -0.11659219  0.05015721  0.02537814       0.007
  -0.09327375  0.04945735  0.02469837       0.007
  -0.06995531  0.04875748  0.02401860       0.007
  -0.04663688  0.04805761  0.02333883       0.007
  -0.02331844  0.04735775  0.02265906       0.007
   0.06995531  0.06788722  0.01926021       0.003
   0.09327375  0.06718736  0.01858044       0.007
   0.11659219  0.06648749  0.01790067       0.007
   0.13991063  0.06578763  0.01722090       0.007
  -0.11659219  0.07348615  0.02469837       0.007
  -0.09327375  0.07278629  0.02401860       0.007
  -0.06995531  0.07208642  0.02333883       0.007
  -0.04663688  0.07138656  0.02265906       0.007
  -0.02331844  0.07068669  0.02197929       0.007
   0.09327375  0.09051630  0.01790067       0.003
   0.11659219  0.08981643  0.01722090       0.007
   0.13991063  0.08911657  0.01654113       0.007
  -0.11659219  0.09681510  0.02401860       0.007
  -0.09327375  0.09611523  0.02333883       0.007
  -0.06995531  0.09541536  0.02265906       0.007
  -0.04663688  0.09471550  0.02197929       0.007
  -0.02331844  0.09401563  0.02129952       0.007
   0.11659219  0.11314537  0.01654112       0.003
   0.13991063  0.11244551  0.01586135       0.007
  -0.11659219  0.12014404  0.02333882       0.007
  -0.09327375  0.11944417  0.02265905       0.007
  -0.06995531  0.11874430  0.02197928       0.007
  -0.04663688  0.11804444  0.02129951       0.007
  -0.02331844  0.11734457  0.02061974       0.007
   0.13991063  0.13577445  0.01518158       0.003
  -0.11659219  0.14347298  0.02265905       0.007
  -0.09327375  0.14277311  0.02197928       0.007
  -0.06995531  0.14207324  0.02129951       0.007
  -0.04663688  0.14137338  0.02061974       0.007
  -0.02331844  0.14067351  0.01993997       0.003
  -0.11659219 -0.11314537  0.03013656       0.003
  -0.09327375 -0.11384524  0.02945679       0.007
  -0.06995531 -0.11454511  0.02877702       0.007
  -0.04663688 -0.11524497  0.02809725       0.007
  -0.09327375 -0.09051630  0.02877701       0.003
  -0.06995531 -0.09121617  0.02809724       0.007
  -0.04663688 -0.09191603  0.02741747       0.007
  -0.06995531 -0.06788722  0.02741747       0.003
  -0.04663688 -0.06858709  0.02673770       0.007
  -0.04663688 -0.04525815  0.02605793       0.003
   0.04663688  0.04525815  0.04395859       0.001
   0.06995531  0.04455828  0.04327882       0.003
   0.09327375  0.04385842  0.04259905       0.003
   0.11659219  0.04315855  0.04191928       0.003
   0.13991063  0.04245868  0.04123951       0.003
  -0.11659219  0.05015721  0.04871698       0.003
  -0.09327375  0.04945735  0.04803721       0.003
  -0.06995531  0.04875748  0.04735744       0.003
  -0.04663688  0.04805761  0.04667767       0.003
   0.06995531  0.06788722  0.04259905       0.003
   0.09327375  0.06718736  0.04191928       0.007
   0.11659219  0.06648749  0.04123951       0.007
   0.13991063  0.06578763  0.04055974       0.007
  -0.11659219  0.07348615  0.04803721       0.007
  -0.09327375  0.07278629  0.04735744       0.007
  -0.06995531  0.07208642  0.04667767       0.007
  -0.04663688  0.07138656  0.04599790       0.007
   0.09327375  0.09051630  0.04123950       0.003
   0.11659219  0.08981643  0.04055973       0.007
   0.13991063  0.08911657  0.03987996       0.007
  -0.11659219  0.09681510  0.04735744       0.007
  -0.09327375  0.09611523  0.04667767       0.007
  -0.06995531  0.09541536  0.04599790       0.007
  -0.04663688  0.09471550  0.04531813       0.007
   0.11659219  0.11314537  0.03987996       0.003
   0.13991063  0.11244551  0.03920019       0.007
  -0.11659219  0.12014404  0.04667766       0.007
  -0.09327375  0.11944417  0.04599789       0.007
  -0.06995531  0.11874430  0.04531812       0.007
  -0.04663688  0.11804444  0.04463835       0.007
   0.13991063  0.13577445  0.03852042       0.003
  -0.11659219  0.14347298  0.04599789       0.007
  -0.09327375  0.14277311  0.04531812       0.007
  -0.06995531  0.14207324  0.04463835       0.007
  -0.04663688  0.14137338  0.04395858       0.003
  -0.11659219 -0.11314537  0.05347540       0.003
  -0.09327375 -0.11384524  0.05279563       0.007
  -0.06995531 -0.11454511  0.05211586       0.007
  -0.09327375 -0.09051630  0.05211585       0.003
  -0.06995531 -0.09121617  0.05143608       0.007
  -0.06995531 -0.06788722  0.05075631       0.003
   0.06995531  0.06788722  0.06593789       0.001
   0.09327375  0.06718736  0.06525812       0.003
   0.11659219  0.06648749  0.06457835       0.003
   0.13991063  0.06578763  0.06389858       0.003
  -0.11659219  0.07348615  0.07137605       0.003
  -0.09327375  0.07278629  0.07069628       0.003
  -0.06995531  0.07208642  0.07001651       0.003
   0.09327375  0.09051630  0.06457834       0.003
   0.11659219  0.08981643  0.06389857       0.007
   0.13991063  0.08911657  0.06321880       0.007
  -0.11659219  0.09681510  0.07069627       0.007
  -0.09327375  0.09611523  0.07001650       0.007
  -0.06995531  0.09541536  0.06933673       0.007
   0.11659219  0.11314537  0.06321880       0.003
   0.13991063  0.11244551  0.06253903       0.007
  -0.11659219  0.12014404  0.07001650       0.007
  -0.09327375  0.11944417  0.06933673       0.007
  -0.06995531  0.11874430  0.06865696       0.007
   0.13991063  0.13577445  0.06185926       0.003
  -0.11659219  0.14347298  0.06933673       0.007
  -0.09327375  0.14277311  0.06865696       0.007
  -0.06995531  0.14207324  0.06797719       0.003
  -0.11659219 -0.11314537  0.07681424       0.003
  -0.09327375 -0.11384524  0.07613447       0.007
  -0.09327375 -0.09051630  0.07545469       0.003
   0.09327375  0.09051630  0.08791718       0.001
   0.11659219  0.08981643  0.08723741       0.003
   0.13991063  0.08911657  0.08655764       0.003
  -0.11659219  0.09681510  0.09403511       0.003
  -0.09327375  0.09611523  0.09335534       0.003
   0.11659219  0.11314537  0.08655764       0.003
   0.13991063  0.11244551  0.08587787       0.007
  -0.11659219  0.12014404  0.09335534       0.007
  -0.09327375  0.11944417  0.09267557       0.007
   0.13991063  0.13577445  0.08519810       0.003
  -0.11659219  0.14347298  0.09267557       0.007
  -0.09327375  0.14277311  0.09199580       0.003
  -0.11659219 -0.11314537  0.10015308       0.003
   0.11659219  0.11314537  0.10989648       0.001
   0.13991063  0.11244551  0.10921671       0.003
  -0.11659219  0.12014404  0.11669418       0.003
   0.13991063  0.13577445  0.10853694       0.003
  -0.11659219  0.14347298  0.11601441       0.003
   0.13991063  0.13577445  0.13187578       0.001
 
 k-points in reciprocal lattice and weights: kpt_density=1000                        
   0.00000000  0.00000000  0.00000000       0.001
   0.08333333  0.00000000  0.00000000       0.003
   0.16666667  0.00000000  0.00000000       0.003
   0.25000000 -0.00000000  0.00000000       0.003
   0.33333333  0.00000000  0.00000000       0.003
   0.41666667 -0.00000000  0.00000000       0.003
   0.50000000 -0.00000000  0.00000000       0.002
   0.08333333  0.08333333 -0.00000000       0.003
   0.16666667  0.08333333  0.00000000       0.007
   0.25000000  0.08333333  0.00000000       0.007
   0.33333333  0.08333333  0.00000000       0.007
   0.41666667  0.08333333  0.00000000       0.007
   0.50000000  0.08333333  0.00000000       0.007
  -0.41666667  0.08333333 -0.00000000       0.007
  -0.33333333  0.08333333 -0.00000000       0.007
  -0.25000000  0.08333333 -0.00000000       0.007
  -0.16666667  0.08333333 -0.00000000       0.007
  -0.08333333  0.08333333 -0.00000000       0.003
   0.16666667  0.16666667  0.00000000       0.003
   0.25000000  0.16666667 -0.00000000       0.007
   0.33333333  0.16666667  0.00000000       0.007
   0.41666667  0.16666667  0.00000000       0.007
   0.50000000  0.16666667 -0.00000000       0.007
  -0.41666667  0.16666667 -0.00000000       0.007
  -0.33333333  0.16666667 -0.00000000       0.007
  -0.25000000  0.16666667 -0.00000000       0.007
  -0.16666667  0.16666667 -0.00000000       0.003
   0.25000000  0.25000000 -0.00000000       0.003
   0.33333333  0.25000000 -0.00000000       0.007
   0.41666667  0.25000000  0.00000000       0.007
   0.50000000  0.25000000  0.00000000       0.007
  -0.41666667  0.25000000 -0.00000000       0.007
  -0.33333333  0.25000000 -0.00000000       0.007
  -0.25000000  0.25000000 -0.00000000       0.003
   0.33333333  0.33333333 -0.00000000       0.003
   0.41666667  0.33333333  0.00000000       0.007
   0.50000000  0.33333333 -0.00000000       0.007
  -0.41666667  0.33333333 -0.00000000       0.007
  -0.33333333  0.33333333 -0.00000000       0.003
   0.41666667  0.41666667 -0.00000000       0.003
   0.50000000  0.41666667 -0.00000000       0.007
  -0.41666667  0.41666667 -0.00000000       0.003
   0.50000000  0.50000000 -0.00000000       0.002
   0.08333333  0.08333333  0.08333333       0.001
   0.16666667  0.08333333  0.08333333       0.003
   0.25000000  0.08333333  0.08333333       0.003
   0.33333333  0.08333333  0.08333333       0.003
   0.41666667  0.08333333  0.08333333       0.003
   0.50000000  0.08333333  0.08333333       0.003
  -0.41666667  0.08333333  0.08333333       0.003
  -0.33333333  0.08333333  0.08333333       0.003
  -0.25000000  0.08333333  0.08333333       0.003
  -0.16666667  0.08333333  0.08333333       0.003
  -0.08333333  0.08333333  0.08333333       0.003
   0.16666667  0.16666667  0.08333333       0.003
   0.25000000  0.16666667  0.08333333       0.007
   0.33333333  0.16666667  0.08333333       0.007
   0.41666667  0.16666667  0.08333333       0.007
   0.50000000  0.16666667  0.08333333       0.007
  -0.41666667  0.16666667  0.08333333       0.007
  -0.33333333  0.16666667  0.08333333       0.007
  -0.25000000  0.16666667  0.08333333       0.007
  -0.16666667  0.16666667  0.08333333       0.007
  -0.08333333  0.16666667  0.08333333       0.007
   0.25000000  0.25000000  0.08333333       0.003
   0.33333333  0.25000000  0.08333333       0.007
   0.41666667  0.25000000  0.08333333       0.007
   0.50000000  0.25000000  0.08333333       0.007
  -0.41666667  0.25000000  0.08333333       0.007
  -0.33333333  0.25000000  0.08333333       0.007
  -0.25000000  0.25000000  0.08333333       0.007
  -0.16666667  0.25000000  0.08333333       0.007
  -0.08333333  0.25000000  0.08333333       0.007
   0.33333333  0.33333333  0.08333333       0.003
   0.41666667  0.33333333  0.08333333       0.007
   0.50000000  0.33333333  0.08333333       0.007
  -0.41666667  0.33333333  0.08333333       0.007
  -0.33333333  0.33333333  0.08333333       0.007
  -0.25000000  0.33333333  0.08333333       0.007
  -0.16666667  0.33333333  0.08333333       0.007
  -0.08333333  0.33333333  0.08333333       0.007
   0.41666667  0.41666667  0.08333333       0.003
   0.50000000  0.41666667  0.08333333       0.007
  -0.41666667  0.41666667  0.08333333       0.007
  -0.33333333  0.41666667  0.08333333       0.007
  -0.25000000  0.41666667  0.08333333       0.007
  -0.16666667  0.41666667  0.08333333       0.007
  -0.08333333  0.41666667  0.08333333       0.007
   0.50000000  0.50000000  0.08333333       0.003
  -0.41666667  0.50000000  0.08333333       0.007
  -0.33333333  0.50000000  0.08333333       0.007
  -0.25000000  0.50000000  0.08333333       0.007
  -0.16666667  0.50000000  0.08333333       0.007
  -0.08333333  0.50000000  0.08333333       0.003
  -0.41666667 -0.41666667  0.08333333       0.003
  -0.33333333 -0.41666667  0.08333333       0.007
  -0.25000000 -0.41666667  0.08333333       0.007
  -0.16666667 -0.41666667  0.08333333       0.007
  -0.33333333 -0.33333333  0.08333333       0.003
  -0.25000000 -0.33333333  0.08333333       0.007
  -0.16666667 -0.33333333  0.08333333       0.007
  -0.25000000 -0.25000000  0.08333333       0.003
  -0.16666667 -0.25000000  0.08333333       0.007
  -0.16666667 -0.16666667  0.08333333       0.003
   0.16666667  0.16666667  0.16666667       0.001
   0.25000000  0.16666667  0.16666667       0.003
   0.33333333  0.16666667  0.16666667       0.003
   0.41666667  0.16666667  0.16666667       0.003
   0.50000000  0.16666667  0.16666667       0.003
  -0.41666667  0.16666667  0.16666667       0.003
  -0.33333333  0.16666667  0.16666667       0.003
  -0.25000000  0.16666667  0.16666667       0.003
  -0.16666667  0.16666667  0.16666667       0.003
   0.25000000  0.25000000  0.16666667       0.003
   0.33333333  0.25000000  0.16666667       0.007
   0.41666667  0.25000000  0.16666667       0.007
   0.50000000  0.25000000  0.16666667       0.007
  -0.41666667  0.25000000  0.16666667       0.007
  -0.33333333  0.25000000  0.16666667       0.007
  -0.25000000  0.25000000  0.16666667       0.007
  -0.16666667  0.25000000  0.16666667       0.007
   0.33333333  0.33333333  0.16666667       0.003
   0.41666667  0.33333333  0.16666667       0.007
   0.50000000  0.33333333  0.16666667       0.007
  -0.41666667  0.33333333  0.16666667       0.007
  -0.33333333  0.33333333  0.16666667       0.007
  -0.25000000  0.33333333  0.16666667       0.007
  -0.16666667  0.33333333  0.16666667       0.007
   0.41666667  0.41666667  0.16666667       0.003
   0.50000000  0.41666667  0.16666667       0.007
  -0.41666667  0.41666667  0.16666667       0.007
  -0.33333333  0.41666667  0.16666667       0.007
  -0.25000000  0.41666667  0.16666667       0.007
  -0.16666667  0.41666667  0.16666667       0.007
   0.50000000  0.50000000  0.16666667       0.003
  -0.41666667  0.50000000  0.16666667       0.007
  -0.33333333  0.50000000  0.16666667       0.007
  -0.25000000  0.50000000  0.16666667       0.007
  -0.16666667  0.50000000  0.16666667       0.003
  -0.41666667 -0.41666667  0.16666667       0.003
  -0.33333333 -0.41666667  0.16666667       0.007
  -0.25000000 -0.41666667  0.16666667       0.007
  -0.33333333 -0.33333333  0.16666667       0.003
  -0.25000000 -0.33333333  0.16666667       0.007
  -0.25000000 -0.25000000  0.16666667       0.003
   0.25000000  0.25000000  0.25000000       0.001
   0.33333333  0.25000000  0.25000000       0.003
   0.41666667  0.25000000  0.25000000       0.003
   0.50000000  0.25000000  0.25000000       0.003
  -0.41666667  0.25000000  0.25000000       0.003
  -0.33333333  0.25000000  0.25000000       0.003
  -0.25000000  0.25000000  0.25000000       0.003
   0.33333333  0.33333333  0.25000000       0.003
   0.41666667  0.33333333  0.25000000       0.007
   0.50000000  0.33333333  0.25000000       0.007
  -0.41666667  0.33333333  0.25000000       0.007
  -0.33333333  0.33333333  0.25000000       0.007
  -0.25000000  0.33333333  0.25000000       0.007
   0.41666667  0.41666667  0.25000000       0.003
   0.50000000  0.41666667  0.25000000       0.007
  -0.41666667  0.41666667  0.25000000       0.007
  -0.33333333  0.41666667  0.25000000       0.007
  -0.25000000  0.41666667  0.25000000       0.007
   0.50000000  0.50000000  0.25000000       0.003
  -0.41666667  0.50000000  0.25000000       0.007
  -0.33333333  0.50000000  0.25000000       0.007
  -0.25000000  0.50000000  0.25000000       0.003
  -0.41666667 -0.41666667  0.25000000       0.003
  -0.33333333 -0.41666667  0.25000000       0.007
  -0.33333333 -0.33333333  0.25000000       0.003
   0.33333333  0.33333333  0.33333333       0.001
   0.41666667  0.33333333  0.33333333       0.003
   0.50000000  0.33333333  0.33333333       0.003
  -0.41666667  0.33333333  0.33333333       0.003
  -0.33333333  0.33333333  0.33333333       0.003
   0.41666667  0.41666667  0.33333333       0.003
   0.50000000  0.41666667  0.33333333       0.007
  -0.41666667  0.41666667  0.33333333       0.007
  -0.33333333  0.41666667  0.33333333       0.007
   0.50000000  0.50000000  0.33333333       0.003
  -0.41666667  0.50000000  0.33333333       0.007
  -0.33333333  0.50000000  0.33333333       0.003
  -0.41666667 -0.41666667  0.33333333       0.003
   0.41666667  0.41666667  0.41666667       0.001
   0.50000000  0.41666667  0.41666667       0.003
  -0.41666667  0.41666667  0.41666667       0.003
   0.50000000  0.50000000  0.41666667       0.003
  -0.41666667  0.50000000  0.41666667       0.003
   0.50000000  0.50000000  0.50000000       0.001
 
 position of ions in fractional coordinates (direct lattice) 
   0.25000000  0.75000000  0.25000000
   0.00000000  0.00000000  0.50000000
   0.25000000  0.25000000  0.75000000
   0.00000000  0.50000000  0.00000000
   0.75000000  0.75000000  0.75000000
   0.50000000  0.00000000  0.00000000
   0.75000000  0.25000000  0.25000000
   0.50000000  0.50000000  0.50000000
 
 position of ions in cartesian coordinates  (Angst):
   1.00063850  2.70508625  0.89264650
   0.05360550  0.05202100  1.78529300
   1.00063850  0.97105675  2.67793950
   0.05360550  1.78605050  0.00000000
   2.84109900  2.75710725  2.67793950
   1.78685500  0.00000000  0.00000000
   2.73388800  0.91903575  0.89264650
   1.89406600  1.83807150  1.78529300
 


--------------------------------------------------------------------------------------------------------


 k-point  1 :   0.0000 0.0000 0.0000  plane waves:     811
 k-point  2 :   0.0833 0.0000 0.0000  plane waves:     819
 k-point  3 :   0.1667 0.0000 0.0000  plane waves:     824
 k-point  4 :   0.2500-0.0000 0.0000  plane waves:     827
 k-point  5 :   0.3333 0.0000 0.0000  plane waves:     830
 k-point  6 :   0.4167-0.0000 0.0000  plane waves:     831
 k-point  7 :   0.5000-0.0000 0.0000  plane waves:     834
 k-point  8 :   0.0833 0.0833-0.0000  plane waves:     814
 k-point  9 :   0.1667 0.0833 0.0000  plane waves:     819
 k-point 10 :   0.2500 0.0833 0.0000  plane waves:     824
 k-point 11 :   0.3333 0.0833 0.0000  plane waves:     824
 k-point 12 :   0.4167 0.0833 0.0000  plane waves:     824
 k-point 13 :   0.5000 0.0833 0.0000  plane waves:     830
 k-point 14 :  -0.4167 0.0833-0.0000  plane waves:     829
 k-point 15 :  -0.3333 0.0833-0.0000  plane waves:     833
 k-point 16 :  -0.2500 0.0833-0.0000  plane waves:     831
 k-point 17 :  -0.1667 0.0833-0.0000  plane waves:     824
 k-point 18 :  -0.0833 0.0833-0.0000  plane waves:     818
 k-point 19 :   0.1667 0.1667 0.0000  plane waves:     814
 k-point 20 :   0.2500 0.1667-0.0000  plane waves:     823
 k-point 21 :   0.3333 0.1667 0.0000  plane waves:     827
 k-point 22 :   0.4167 0.1667 0.0000  plane waves:     824
 k-point 23 :   0.5000 0.1667-0.0000  plane waves:     828
 k-point 24 :  -0.4167 0.1667-0.0000  plane waves:     827
 k-point 25 :  -0.3333 0.1667-0.0000  plane waves:     832
 k-point 26 :  -0.2500 0.1667-0.0000  plane waves:     830
 k-point 27 :  -0.1667 0.1667-0.0000  plane waves:     820
 k-point 28 :   0.2500 0.2500-0.0000  plane waves:     817
 k-point 29 :   0.3333 0.2500-0.0000  plane waves:     830
 k-point 30 :   0.4167 0.2500 0.0000  plane waves:     829
 k-point 31 :   0.5000 0.2500 0.0000  plane waves:     834
 k-point 32 :  -0.4167 0.2500-0.0000  plane waves:     830
 k-point 33 :  -0.3333 0.2500-0.0000  plane waves:     832
 k-point 34 :  -0.2500 0.2500-0.0000  plane waves:     830
 k-point 35 :   0.3333 0.3333-0.0000  plane waves:     829
 k-point 36 :   0.4167 0.3333 0.0000  plane waves:     825
 k-point 37 :   0.5000 0.3333-0.0000  plane waves:     832
 k-point 38 :  -0.4167 0.3333-0.0000  plane waves:     833
 k-point 39 :  -0.3333 0.3333-0.0000  plane waves:     832
 k-point 40 :   0.4167 0.4167-0.0000  plane waves:     827
 k-point 41 :   0.5000 0.4167-0.0000  plane waves:     828
 k-point 42 :  -0.4167 0.4167-0.0000  plane waves:     826
 k-point 43 :   0.5000 0.5000-0.0000  plane waves:     826
 k-point 44 :   0.0833 0.0833 0.0833  plane waves:     811
 k-point 45 :   0.1667 0.0833 0.0833  plane waves:     816
 k-point 46 :   0.2500 0.0833 0.0833  plane waves:     821
 k-point 47 :   0.3333 0.0833 0.0833  plane waves:     828
 k-point 48 :   0.4167 0.0833 0.0833  plane waves:     822
 k-point 49 :   0.5000 0.0833 0.0833  plane waves:     830
 k-point 50 :  -0.4167 0.0833 0.0833  plane waves:     830
 k-point 51 :  -0.3333 0.0833 0.0833  plane waves:     834
 k-point 52 :  -0.2500 0.0833 0.0833  plane waves:     833
 k-point 53 :  -0.1667 0.0833 0.0833  plane waves:     831
 k-point 54 :  -0.0833 0.0833 0.0833  plane waves:     821
 k-point 55 :   0.1667 0.1667 0.0833  plane waves:     814
 k-point 56 :   0.2500 0.1667 0.0833  plane waves:     817
 k-point 57 :   0.3333 0.1667 0.0833  plane waves:     824
 k-point 58 :   0.4167 0.1667 0.0833  plane waves:     823
 k-point 59 :   0.5000 0.1667 0.0833  plane waves:     826
 k-point 60 :  -0.4167 0.1667 0.0833  plane waves:     832
 k-point 61 :  -0.3333 0.1667 0.0833  plane waves:     832
 k-point 62 :  -0.2500 0.1667 0.0833  plane waves:     831
 k-point 63 :  -0.1667 0.1667 0.0833  plane waves:     827
 k-point 64 :  -0.0833 0.1667 0.0833  plane waves:     825
 k-point 65 :   0.2500 0.2500 0.0833  plane waves:     818
 k-point 66 :   0.3333 0.2500 0.0833  plane waves:     823
 k-point 67 :   0.4167 0.2500 0.0833  plane waves:     827
 k-point 68 :   0.5000 0.2500 0.0833  plane waves:     831
 k-point 69 :  -0.4167 0.2500 0.0833  plane waves:     831
 k-point 70 :  -0.3333 0.2500 0.0833  plane waves:     833
 k-point 71 :  -0.2500 0.2500 0.0833  plane waves:     827
 k-point 72 :  -0.1667 0.2500 0.0833  plane waves:     827
 k-point 73 :  -0.0833 0.2500 0.0833  plane waves:     829
 k-point 74 :   0.3333 0.3333 0.0833  plane waves:     825
 k-point 75 :   0.4167 0.3333 0.0833  plane waves:     830
 k-point 76 :   0.5000 0.3333 0.0833  plane waves:     831
 k-point 77 :  -0.4167 0.3333 0.0833  plane waves:     827
 k-point 78 :  -0.3333 0.3333 0.0833  plane waves:     831
 k-point 79 :  -0.2500 0.3333 0.0833  plane waves:     829
 k-point 80 :  -0.1667 0.3333 0.0833  plane waves:     832
 k-point 81 :  -0.0833 0.3333 0.0833  plane waves:     832
 k-point 82 :   0.4167 0.4167 0.0833  plane waves:     831
 k-point 83 :   0.5000 0.4167 0.0833  plane waves:     830
 k-point 84 :  -0.4167 0.4167 0.0833  plane waves:     833
 k-point 85 :  -0.3333 0.4167 0.0833  plane waves:     833
 k-point 86 :  -0.2500 0.4167 0.0833  plane waves:     829
 k-point 87 :  -0.1667 0.4167 0.0833  plane waves:     830
 k-point 88 :  -0.0833 0.4167 0.0833  plane waves:     833
 k-point 89 :   0.5000 0.5000 0.0833  plane waves:     829
 k-point 90 :  -0.4167 0.5000 0.0833  plane waves:     831
 k-point 91 :  -0.3333 0.5000 0.0833  plane waves:     831
 k-point 92 :  -0.2500 0.5000 0.0833  plane waves:     825
 k-point 93 :  -0.1667 0.5000 0.0833  plane waves:     826
 k-point 94 :  -0.0833 0.5000 0.0833  plane waves:     824
 k-point 95 :  -0.4167-0.4167 0.0833  plane waves:     827
 k-point 96 :  -0.3333-0.4167 0.0833  plane waves:     824
 k-point 97 :  -0.2500-0.4167 0.0833  plane waves:     825
 k-point 98 :  -0.1667-0.4167 0.0833  plane waves:     827
 k-point 99 :  -0.3333-0.3333 0.0833  plane waves:     823
 k-point ** :  -0.2500-0.3333 0.0833  plane waves:     826
 k-point ** :  -0.1667-0.3333 0.0833  plane waves:     829
 k-point ** :  -0.2500-0.2500 0.0833  plane waves:     829
 k-point ** :  -0.1667-0.2500 0.0833  plane waves:     826
 k-point ** :  -0.1667-0.1667 0.0833  plane waves:     821
 k-point ** :   0.1667 0.1667 0.1667  plane waves:     811
 k-point ** :   0.2500 0.1667 0.1667  plane waves:     815
 k-point ** :   0.3333 0.1667 0.1667  plane waves:     817
 k-point ** :   0.4167 0.1667 0.1667  plane waves:     818
 k-point ** :   0.5000 0.1667 0.1667  plane waves:     828
 k-point ** :  -0.4167 0.1667 0.1667  plane waves:     831
 k-point ** :  -0.3333 0.1667 0.1667  plane waves:     832
 k-point ** :  -0.2500 0.1667 0.1667  plane waves:     830
 k-point ** :  -0.1667 0.1667 0.1667  plane waves:     833
 k-point ** :   0.2500 0.2500 0.1667  plane waves:     820
 k-point ** :   0.3333 0.2500 0.1667  plane waves:     825
 k-point ** :   0.4167 0.2500 0.1667  plane waves:     824
 k-point ** :   0.5000 0.2500 0.1667  plane waves:     827
 k-point ** :  -0.4167 0.2500 0.1667  plane waves:     830
 k-point ** :  -0.3333 0.2500 0.1667  plane waves:     829
 k-point ** :  -0.2500 0.2500 0.1667  plane waves:     827
 k-point ** :  -0.1667 0.2500 0.1667  plane waves:     830
 k-point ** :   0.3333 0.3333 0.1667  plane waves:     825
 k-point ** :   0.4167 0.3333 0.1667  plane waves:     826
 k-point ** :   0.5000 0.3333 0.1667  plane waves:     824
 k-point ** :  -0.4167 0.3333 0.1667  plane waves:     828
 k-point ** :  -0.3333 0.3333 0.1667  plane waves:     830
 k-point ** :  -0.2500 0.3333 0.1667  plane waves:     826
 k-point ** :  -0.1667 0.3333 0.1667  plane waves:     830
 k-point ** :   0.4167 0.4167 0.1667  plane waves:     829
 k-point ** :   0.5000 0.4167 0.1667  plane waves:     825
 k-point ** :  -0.4167 0.4167 0.1667  plane waves:     830
 k-point ** :  -0.3333 0.4167 0.1667  plane waves:     832
 k-point ** :  -0.2500 0.4167 0.1667  plane waves:     826
 k-point ** :  -0.1667 0.4167 0.1667  plane waves:     825
 k-point ** :   0.5000 0.5000 0.1667  plane waves:     829
 k-point ** :  -0.4167 0.5000 0.1667  plane waves:     831
 k-point ** :  -0.3333 0.5000 0.1667  plane waves:     830
 k-point ** :  -0.2500 0.5000 0.1667  plane waves:     824
 k-point ** :  -0.1667 0.5000 0.1667  plane waves:     816
 k-point ** :  -0.4167-0.4167 0.1667  plane waves:     827
 k-point ** :  -0.3333-0.4167 0.1667  plane waves:     827
 k-point ** :  -0.2500-0.4167 0.1667  plane waves:     825
 k-point ** :  -0.3333-0.3333 0.1667  plane waves:     831
 k-point ** :  -0.2500-0.3333 0.1667  plane waves:     827
 k-point ** :  -0.2500-0.2500 0.1667  plane waves:     828
 k-point ** :   0.2500 0.2500 0.2500  plane waves:     826
 k-point ** :   0.3333 0.2500 0.2500  plane waves:     828
 k-point ** :   0.4167 0.2500 0.2500  plane waves:     827
 k-point ** :   0.5000 0.2500 0.2500  plane waves:     828
 k-point ** :  -0.4167 0.2500 0.2500  plane waves:     830
 k-point ** :  -0.3333 0.2500 0.2500  plane waves:     830
 k-point ** :  -0.2500 0.2500 0.2500  plane waves:     827
 k-point ** :   0.3333 0.3333 0.2500  plane waves:     824
 k-point ** :   0.4167 0.3333 0.2500  plane waves:     832
 k-point ** :   0.5000 0.3333 0.2500  plane waves:     826
 k-point ** :  -0.4167 0.3333 0.2500  plane waves:     827
 k-point ** :  -0.3333 0.3333 0.2500  plane waves:     829
 k-point ** :  -0.2500 0.3333 0.2500  plane waves:     832
 k-point ** :   0.4167 0.4167 0.2500  plane waves:     831
 k-point ** :   0.5000 0.4167 0.2500  plane waves:     827
 k-point ** :  -0.4167 0.4167 0.2500  plane waves:     833
 k-point ** :  -0.3333 0.4167 0.2500  plane waves:     831
 k-point ** :  -0.2500 0.4167 0.2500  plane waves:     829
 k-point ** :   0.5000 0.5000 0.2500  plane waves:     836
 k-point ** :  -0.4167 0.5000 0.2500  plane waves:     834
 k-point ** :  -0.3333 0.5000 0.2500  plane waves:     833
 k-point ** :  -0.2500 0.5000 0.2500  plane waves:     826
 k-point ** :  -0.4167-0.4167 0.2500  plane waves:     834
 k-point ** :  -0.3333-0.4167 0.2500  plane waves:     828
 k-point ** :  -0.3333-0.3333 0.2500  plane waves:     836
 k-point ** :   0.3333 0.3333 0.3333  plane waves:     814
 k-point ** :   0.4167 0.3333 0.3333  plane waves:     827
 k-point ** :   0.5000 0.3333 0.3333  plane waves:     827
 k-point ** :  -0.4167 0.3333 0.3333  plane waves:     823
 k-point ** :  -0.3333 0.3333 0.3333  plane waves:     833
 k-point ** :   0.4167 0.4167 0.3333  plane waves:     833
 k-point ** :   0.5000 0.4167 0.3333  plane waves:     830
 k-point ** :  -0.4167 0.4167 0.3333  plane waves:     834
 k-point ** :  -0.3333 0.4167 0.3333  plane waves:     832
 k-point ** :   0.5000 0.5000 0.3333  plane waves:     832
 k-point ** :  -0.4167 0.5000 0.3333  plane waves:     835
 k-point ** :  -0.3333 0.5000 0.3333  plane waves:     840
 k-point ** :  -0.4167-0.4167 0.3333  plane waves:     841
 k-point ** :   0.4167 0.4167 0.4167  plane waves:     850
 k-point ** :   0.5000 0.4167 0.4167  plane waves:     835
 k-point ** :  -0.4167 0.4167 0.4167  plane waves:     830
 k-point ** :   0.5000 0.5000 0.4167  plane waves:     844
 k-point ** :  -0.4167 0.5000 0.4167  plane waves:     836
 k-point ** :   0.5000 0.5000 0.5000  plane waves:     858

 maximum and minimum number of plane-waves per node :       220      195

 maximum number of plane-waves:       858
 maximum index in each direction: 
   IXMAX=    6   IYMAX=    6   IZMAX=    5
   IXMIN=   -6   IYMIN=   -6   IZMIN=   -6


 parallel 3D FFT for wavefunctions:
    minimum data exchange during FFTs selected (reduces bandwidth)
 parallel 3D FFT for charge:
    minimum data exchange during FFTs selected (reduces bandwidth)


 total amount of memory used by VASP MPI-rank0    37682. kBytes
=======================================================================

   base      :      30000. kBytes
   nonl-proj :       2640. kBytes
   fftplans  :        346. kBytes
   grid      :        481. kBytes
   one-center:          6. kBytes
   wavefun   :       4209. kBytes
 
     INWAV:  cpu time    0.0003: real time    0.0005
 Broyden mixing: mesh for mixing (old mesh)
   NGX = 11   NGY = 11   NGZ = 11
  (NGX  = 48   NGY  = 48   NGZ  = 48)
  gives a total of   1331 points

 initial charge density was supplied:
 charge density of overlapping atoms calculated
 number of electron      32.0000000 magnetization 
 keeping initial charge density in first step


--------------------------------------------------------------------------------------------------------


 Maximum index for augmentation-charges          281 (set IRDMAX)


--------------------------------------------------------------------------------------------------------


 First call to EWALD:  gamma=   0.496
 Maximum number of real-space cells 3x 3x 3
 Maximum number of reciprocal cells 3x 3x 3

    FEWALD:  cpu time    0.0055: real time    0.0055


--------------------------------------- Iteration      1(   1)  ---------------------------------------


    POTLOK:  cpu time    0.0263: real time    0.1290
    SETDIJ:  cpu time    0.0068: real time    0.0068
     EDDAV:  cpu time    9.4069: real time    9.4184
 BZINTS: Fermi energy: 18.579437; 32.000000 electrons
         Band energy: 121.687998;  BLOECHL correction: -0.147334
       DOS:  cpu time    0.1584: real time    0.1584
    --------------------------------------------
      LOOP:  cpu time    9.5986: real time    9.7127

 eigenvalue-minimisations  :  9072
 total energy-change (2. order) : 0.5794469E+02  (-0.1439876E+04)
 number of electron      32.0000000 magnetization 
 augmentation part       32.0000000 magnetization 

 Free energy of the ion-electron system (eV)
  ---------------------------------------------------
  alpha Z        PSCENC =       114.40614008
  Ewald energy   TEWEN  =     -1389.06976724
  -Hartree energ DENC   =       -71.17624253
  -exchange      EXHF   =         0.00000000
  -V(xc)+E(xc)   XCENC  =       114.28260955
  PAW double counting   =       302.65154477     -311.85538214
  entropy T*S    EENTRO =         0.00000000
  eigenvalues    EBANDS =       121.68799753
  atomic energy  EATOM  =      1177.01779097
  Solvation  Ediel_sol  =         0.00000000
  ---------------------------------------------------
  free energy    TOTEN  =        57.94469099 eV

  energy without entropy =       57.94469099  energy(sigma->0) =       57.94469099


--------------------------------------------------------------------------------------------------------




--------------------------------------- Iteration      1(   2)  ---------------------------------------


     EDDAV:  cpu time   11.8925: real time   11.8940
 BZINTS: Fermi energy:  8.874346; 32.000000 electrons
         Band energy:  -7.154369;  BLOECHL correction:  0.000000
       DOS:  cpu time    0.0420: real time    0.0420
    --------------------------------------------
      LOOP:  cpu time   11.9344: real time   11.9360

 eigenvalue-minimisations  : 12560
 total energy-change (2. order) :-0.1288424E+03  (-0.1221256E+03)
 number of electron      32.0000000 magnetization 
 augmentation part       32.0000000 magnetization 

 Free energy of the ion-electron system (eV)
  ---------------------------------------------------
  alpha Z        PSCENC =       114.40614008
  Ewald energy   TEWEN  =     -1389.06976724
  -Hartree energ DENC   =       -71.17624253
  -exchange      EXHF   =         0.00000000
  -V(xc)+E(xc)   XCENC  =       114.28260955
  PAW double counting   =       302.65154477     -311.85538214
  entropy T*S    EENTRO =         0.00000000
  eigenvalues    EBANDS =        -7.15436947
  atomic energy  EATOM  =      1177.01779097
  Solvation  Ediel_sol  =         0.00000000
  ---------------------------------------------------
  free energy    TOTEN  =       -70.89767601 eV

  energy without entropy =      -70.89767601  energy(sigma->0) =      -70.89767601


--------------------------------------------------------------------------------------------------------




--------------------------------------- Iteration      1(   3)  ---------------------------------------


     EDDAV:  cpu time   11.7094: real time   11.7132
 BZINTS: Fermi energy:  8.406056; 32.000000 electrons
         Band energy: -11.291168;  BLOECHL correction:  0.000000
       DOS:  cpu time    0.0419: real time    0.0419
    --------------------------------------------
      LOOP:  cpu time   11.7512: real time   11.7551

 eigenvalue-minimisations  : 11880
 total energy-change (2. order) :-0.4136799E+01  (-0.4116903E+01)
 number of electron      32.0000000 magnetization 
 augmentation part       32.0000000 magnetization 

 Free energy of the ion-electron system (eV)
  ---------------------------------------------------
  alpha Z        PSCENC =       114.40614008
  Ewald energy   TEWEN  =     -1389.06976724
  -Hartree energ DENC   =       -71.17624253
  -exchange      EXHF   =         0.00000000
  -V(xc)+E(xc)   XCENC  =       114.28260955
  PAW double counting   =       302.65154477     -311.85538214
  entropy T*S    EENTRO =         0.00000000
  eigenvalues    EBANDS =       -11.29116811
  atomic energy  EATOM  =      1177.01779097
  Solvation  Ediel_sol  =         0.00000000
  ---------------------------------------------------
  free energy    TOTEN  =       -75.03447465 eV

  energy without entropy =      -75.03447465  energy(sigma->0) =      -75.03447465


--------------------------------------------------------------------------------------------------------




--------------------------------------- Iteration      1(   4)  ---------------------------------------


     EDDAV:  cpu time   11.0620: real time   11.0635
 BZINTS: Fermi energy:  8.367199; 32.000000 electrons
         Band energy: -11.331981;  BLOECHL correction:  0.000000
       DOS:  cpu time    0.0373: real time    0.0373
    --------------------------------------------
      LOOP:  cpu time   11.0993: real time   11.1008

 eigenvalue-minimisations  : 11256
 total energy-change (2. order) :-0.4081324E-01  (-0.4078294E-01)
 number of electron      32.0000000 magnetization 
 augmentation part       32.0000000 magnetization 

 Free energy of the ion-electron system (eV)
  ---------------------------------------------------
  alpha Z        PSCENC =       114.40614008
  Ewald energy   TEWEN  =     -1389.06976724
  -Hartree energ DENC   =       -71.17624253
  -exchange      EXHF   =         0.00000000
  -V(xc)+E(xc)   XCENC  =       114.28260955
  PAW double counting   =       302.65154477     -311.85538214
  entropy T*S    EENTRO =         0.00000000
  eigenvalues    EBANDS =       -11.33198136
  atomic energy  EATOM  =      1177.01779097
  Solvation  Ediel_sol  =         0.00000000
  ---------------------------------------------------
  free energy    TOTEN  =       -75.07528790 eV

  energy without entropy =      -75.07528790  energy(sigma->0) =      -75.07528790


--------------------------------------------------------------------------------------------------------




--------------------------------------- Iteration      1(   5)  ---------------------------------------


     EDDAV:  cpu time   11.5711: real time   11.5726
 BZINTS: Fermi energy:  8.356712; 32.000000 electrons
         Band energy: -11.332812;  BLOECHL correction:  0.000000
       DOS:  cpu time    0.0373: real time    0.0373
    CHARGE:  cpu time    0.2727: real time    0.2727
    MIXING:  cpu time    0.0014: real time    0.0014
    --------------------------------------------
      LOOP:  cpu time   11.8826: real time   11.8841

 eigenvalue-minimisations  : 11896
 total energy-change (2. order) :-0.8306006E-03  (-0.8302902E-03)
 number of electron      32.0000019 magnetization 
 augmentation part        0.7860727 magnetization 

 Broyden mixing:
  rms(total) = 0.94922E+00    rms(broyden)= 0.94903E+00
  rms(prec ) = 0.22448E+01
  weight for this iteration     100.00

 Free energy of the ion-electron system (eV)
  ---------------------------------------------------
  alpha Z        PSCENC =       114.40614008
  Ewald energy   TEWEN  =     -1389.06976724
  -Hartree energ DENC   =       -71.17624253
  -exchange      EXHF   =         0.00000000
  -V(xc)+E(xc)   XCENC  =       114.28260955
  PAW double counting   =       302.65154477     -311.85538214
  entropy T*S    EENTRO =         0.00000000
  eigenvalues    EBANDS =       -11.33281196
  atomic energy  EATOM  =      1177.01779097
  Solvation  Ediel_sol  =         0.00000000
  ---------------------------------------------------
  free energy    TOTEN  =       -75.07611850 eV

  energy without entropy =      -75.07611850  energy(sigma->0) =      -75.07611850


--------------------------------------------------------------------------------------------------------




--------------------------------------- Iteration      1(   6)  ---------------------------------------


    POTLOK:  cpu time    0.0209: real time    0.0213
    SETDIJ:  cpu time    0.0058: real time    0.0058
     EDDAV:  cpu time   10.3255: real time   10.3263
 BZINTS: Fermi energy:  8.941102; 32.000000 electrons
         Band energy:   4.896329;  BLOECHL correction:  0.000000
       DOS:  cpu time    0.0374: real time    0.0374
    CHARGE:  cpu time    0.2732: real time    0.2733
    MIXING:  cpu time    0.0018: real time    0.0018
    --------------------------------------------
      LOOP:  cpu time   10.6647: real time   10.6659

 eigenvalue-minimisations  : 10240
 total energy-change (2. order) : 0.1900193E+01  (-0.1265488E+00)
 number of electron      32.0000019 magnetization 
 augmentation part        0.7681988 magnetization 

 Broyden mixing:
  rms(total) = 0.52023E+00    rms(broyden)= 0.52021E+00
  rms(prec ) = 0.12129E+01
  weight for this iteration     100.00

 eigenvalues of (default mixing * dielectric matrix)
  average eigenvalue GAMMA=   2.1658
  2.1658

 Free energy of the ion-electron system (eV)
  ---------------------------------------------------
  alpha Z        PSCENC =       114.40614008
  Ewald energy   TEWEN  =     -1389.06976724
  -Hartree energ DENC   =       -86.38493352
  -exchange      EXHF   =         0.00000000
  -V(xc)+E(xc)   XCENC  =       115.70181857
  PAW double counting   =       393.53163335     -403.27493633
  entropy T*S    EENTRO =         0.00000000
  eigenvalues    EBANDS =         4.89632885
  atomic energy  EATOM  =      1177.01779097
  Solvation  Ediel_sol  =         0.00000000
  ---------------------------------------------------
  free energy    TOTEN  =       -73.17592527 eV

  energy without entropy =      -73.17592527  energy(sigma->0) =      -73.17592527


--------------------------------------------------------------------------------------------------------




--------------------------------------- Iteration      1(   7)  ---------------------------------------


    POTLOK:  cpu time    0.0213: real time    0.0217
    SETDIJ:  cpu time    0.0060: real time    0.0060
     EDDAV:  cpu time   10.7723: real time   10.7732
 BZINTS: Fermi energy:  9.817165; 32.000000 electrons
         Band energy:  23.608599;  BLOECHL correction:  0.000000
       DOS:  cpu time    0.0422: real time    0.0422
    CHARGE:  cpu time    0.2733: real time    0.2733
    MIXING:  cpu time    0.0019: real time    0.0019
    --------------------------------------------
      LOOP:  cpu time   11.1170: real time   11.1184

 eigenvalue-minimisations  : 10752
 total energy-change (2. order) : 0.6402011E+00  (-0.1438609E+00)
 number of electron      32.0000018 magnetization 
 augmentation part        0.7489594 magnetization 

 Broyden mixing:
  rms(total) = 0.70153E-01    rms(broyden)= 0.69818E-01
  rms(prec ) = 0.12263E+00
  weight for this iteration     100.00

 eigenvalues of (default mixing * dielectric matrix)
  average eigenvalue GAMMA=   2.2717
  2.0151  2.5283

 Free energy of the ion-electron system (eV)
  ---------------------------------------------------
  alpha Z        PSCENC =       114.40614008
  Ewald energy   TEWEN  =     -1389.06976724
  -Hartree energ DENC   =      -105.77627180
  -exchange      EXHF   =         0.00000000
  -V(xc)+E(xc)   XCENC  =       117.53276594
  PAW double counting   =       516.98148912     -527.23647041
  entropy T*S    EENTRO =         0.00000000
  eigenvalues    EBANDS =        23.60859919
  atomic energy  EATOM  =      1177.01779097
  Solvation  Ediel_sol  =         0.00000000
  ---------------------------------------------------
  free energy    TOTEN  =       -72.53572414 eV

  energy without entropy =      -72.53572414  energy(sigma->0) =      -72.53572414


--------------------------------------------------------------------------------------------------------




--------------------------------------- Iteration      1(   8)  ---------------------------------------


    POTLOK:  cpu time    0.0222: real time    0.0225
    SETDIJ:  cpu time    0.0058: real time    0.0058
     EDDAV:  cpu time   11.2052: real time   11.2063
 BZINTS: Fermi energy:  9.825416; 32.000000 electrons
         Band energy:  23.889207;  BLOECHL correction:  0.000000
       DOS:  cpu time    0.0422: real time    0.0422
    CHARGE:  cpu time    0.2707: real time    0.2707
    MIXING:  cpu time    0.0020: real time    0.0020
    --------------------------------------------
      LOOP:  cpu time   11.5481: real time   11.5497

 eigenvalue-minimisations  : 11432
 total energy-change (2. order) :-0.7681453E-02  (-0.3190832E-02)
 number of electron      32.0000018 magnetization 
 augmentation part        0.7494089 magnetization 

 Broyden mixing:
  rms(total) = 0.77686E-02    rms(broyden)= 0.76617E-02
  rms(prec ) = 0.13321E-01
  weight for this iteration     100.00

 eigenvalues of (default mixing * dielectric matrix)
  average eigenvalue GAMMA=   2.0728
  1.4241  2.6598  2.1346

 Free energy of the ion-electron system (eV)
  ---------------------------------------------------
  alpha Z        PSCENC =       114.40614008
  Ewald energy   TEWEN  =     -1389.06976724
  -Hartree energ DENC   =      -106.24224725
  -exchange      EXHF   =         0.00000000
  -V(xc)+E(xc)   XCENC  =       117.58130045
  PAW double counting   =       526.42658968     -536.55241914
[...]

 k-point   177 :       0.5000    0.4167    0.3333
  band No.  band energies     occupation 
      1      -7.4117      2.00000
      2      -6.8849      2.00000
      3      -5.7919      2.00000
      4      -5.7009      2.00000
      5      -3.1818      2.00000
      6      -3.0882      2.00000
      7      -2.2241      2.00000
      8      -2.0331      2.00000
      9       5.5148      2.00000
     10       5.5874      2.00000
     11       6.2913      2.00000
     12       6.3452      2.00000
     13       6.3660      2.00000
     14       6.7511      2.00000
     15       6.8465      2.00000
     16       7.2737      2.00000
     17      17.2934      0.00000
     18      17.4299      0.00000
     19      17.6970      0.00000
     20      18.1844      0.00000
     21      18.5464      0.00000
     22      18.7504      0.00000
     23      18.7817      0.00000
     24      18.8390      0.00000

 k-point   178 :      -0.4167    0.4167    0.3333
  band No.  band energies     occupation 
      1      -7.5482      2.00000
      2      -6.8062      2.00000
      3      -6.2620      2.00000
      4      -5.4361      2.00000
      5      -3.3021      2.00000
      6      -2.6809      2.00000
      7      -2.4929      2.00000
      8      -1.2564      2.00000
      9       5.2320      2.00000
     10       5.7240      2.00000
     11       6.1668      2.00000
     12       6.2021      2.00000
     13       6.2069      2.00000
     14       6.6384      2.00000
     15       6.7579      2.00000
     16       7.1437      2.00000
     17      17.0937      0.00000
     18      17.1494      0.00000
     19      17.3069      0.00000
     20      17.9791      0.00000
     21      18.5027      0.00000
     22      18.6437      0.00000
     23      18.9765      0.00000
     24      19.0548      0.00000

 k-point   179 :      -0.3333    0.4167    0.3333
  band No.  band energies     occupation 
      1      -8.1161      2.00000
      2      -6.7146      2.00000
      3      -6.2249      2.00000
      4      -5.5055      2.00000
      5      -2.8860      2.00000
      6      -2.8768      2.00000
      7      -1.7051      2.00000
      8      -0.3608      2.00000
      9       4.7135      2.00000
     10       5.2466      2.00000
     11       5.6744      2.00000
     12       5.9401      2.00000
     13       5.9726      2.00000
     14       6.3129      2.00000
     15       6.8337      2.00000
     16       7.1046      2.00000
     17      16.8005      0.00000
     18      16.9197      0.00000
     19      17.1888      0.00000
     20      17.7366      0.00000
     21      18.4364      0.00000
     22      18.6274      0.00000
     23      18.8309      0.00000
     24      19.2999      0.00000

 k-point   180 :       0.5000    0.5000    0.3333
  band No.  band energies     occupation 
      1      -6.9276      2.00000
      2      -6.3838      2.00000
      3      -6.2986      2.00000
      4      -6.2986      2.00000
      5      -2.7977      2.00000
      6      -2.6917      2.00000
      7      -2.6917      2.00000
      8      -2.6027      2.00000
      9       5.8969      2.00000
     10       5.9363      2.00000
     11       5.9363      2.00000
     12       6.4351      2.00000
     13       6.7170      2.00000
     14       6.7660      2.00000
     15       6.7660      2.00000
     16       7.2106      2.00000
     17      17.3436      0.00000
     18      17.3436      0.00000
     19      17.7492      0.00000
     20      18.3590      0.00000
     21      18.5144      0.00000
     22      18.5144      0.00000
     23      18.6958      0.00000
     24      18.7495      0.00000

 k-point   181 :      -0.4167    0.5000    0.3333
  band No.  band energies     occupation 
      1      -6.9616      2.00000
      2      -6.9148      2.00000
      3      -6.4626      2.00000
      4      -5.7134      2.00000
      5      -3.1330      2.00000
      6      -3.1241      2.00000
      7      -1.9655      2.00000
      8      -1.9157      2.00000
      9       5.4370      2.00000
     10       5.9943      2.00000
     11       6.2035      2.00000
     12       6.2186      2.00000
     13       6.4588      2.00000
     14       6.7556      2.00000
     15       6.8407      2.00000
     16       6.8495      2.00000
     17      17.2412      0.00000
     18      17.4245      0.00000
     19      17.5107      0.00000
     20      18.1770      0.00000
     21      18.2443      0.00000
     22      18.3734      0.00000
     23      18.6604      0.00000
     24      18.8372      0.00000

 k-point   182 :      -0.3333    0.5000    0.3333
  band No.  band energies     occupation 
      1      -7.4630      2.00000
      2      -7.4630      2.00000
      3      -6.1292      2.00000
      4      -5.3108      2.00000
      5      -3.1771      2.00000
      6      -3.0927      2.00000
      7      -1.0928      2.00000
      8      -1.0928      2.00000
      9       4.7453      2.00000
     10       5.3383      2.00000
     11       6.0638      2.00000
     12       6.3727      2.00000
     13       6.3727      2.00000
     14       6.3736      2.00000
     15       6.5663      2.00000
     16       6.5663      2.00000
     17      17.0960      0.00000
     18      17.0960      0.00000
     19      17.6404      0.00000
     20      17.8722      0.00000
     21      18.2425      0.00000
     22      18.7442      0.00000
     23      18.7442      0.00000
     24      19.1923      0.00000

 k-point   183 :      -0.4167   -0.4167    0.3333
  band No.  band energies     occupation 
      1      -7.5882      2.00000
      2      -6.2463      2.00000
      3      -6.2108      2.00000
      4      -6.2108      2.00000
      5      -3.2146      2.00000
      6      -2.5285      2.00000
      7      -2.5285      2.00000
      8      -1.1952      2.00000
      9       5.5867      2.00000
     10       5.5867      2.00000
     11       5.6923      2.00000
     12       6.3750      2.00000
     13       6.3750      2.00000
     14       6.6040      2.00000
     15       6.6852      2.00000
     16       7.0608      2.00000
     17      17.1787      0.00000
     18      17.1787      0.00000
     19      17.4573      0.00000
     20      17.8810      0.00000
     21      18.4340      0.00000
     22      18.4340      0.00000
     23      18.4602      0.00000
     24      18.5353      0.00000

 k-point   184 :       0.4167    0.4167    0.4167
  band No.  band energies     occupation 
      1      -7.5347      2.00000
      2      -5.8179      2.00000
      3      -5.8179      2.00000
      4      -5.8179      2.00000
      5      -3.3016      2.00000
      6      -3.3016      2.00000
      7      -3.3016      2.00000
      8      -2.3410      2.00000
      9       6.1920      2.00000
     10       6.1920      2.00000
     11       6.1920      2.00000
     12       6.4425      2.00000
     13       6.4425      2.00000
     14       6.4425      2.00000
     15       7.4165      2.00000
     16       7.4165      2.00000
     17      17.4571      0.00000
     18      17.4571      0.00000
     19      17.4571      0.00000
     20      18.3429      0.00000
     21      18.3429      0.00000
     22      18.6675      0.00000
     23      18.6675      0.00000
     24      18.6675      0.00000

 k-point   185 :       0.5000    0.4167    0.4167
  band No.  band energies     occupation 
      1      -7.0480      2.00000
      2      -6.4189      2.00000
      3      -5.6691      2.00000
      4      -5.6691      2.00000
      5      -3.5404      2.00000
      6      -3.5404      2.00000
      7      -2.9192      2.00000
      8      -2.8079      2.00000
      9       6.2715      2.00000
     10       6.2715      2.00000
     11       6.5310      2.00000
     12       6.5310      2.00000
     13       6.6501      2.00000
     14       6.8087      2.00000
     15       7.1983      2.00000
     16       7.2340      2.00000
     17      17.2492      0.00000
     18      17.4494      0.00000
     19      17.4494      0.00000
     20      18.2511      0.00000
     21      18.4807      0.00000
     22      18.6072      0.00000
     23      18.6385      0.00000
     24      18.6400      0.00000

 k-point   186 :      -0.4167    0.4167    0.4167
  band No.  band energies     occupation 
      1      -7.0379      2.00000
      2      -6.5806      2.00000
      3      -5.8607      2.00000
      4      -5.8607      2.00000
      5      -3.2479      2.00000
      6      -3.2211      2.00000
      7      -3.2211      2.00000
      8      -2.0760      2.00000
      9       6.1109      2.00000
     10       6.1109      2.00000
     11       6.4541      2.00000
     12       6.4541      2.00000
     13       6.6258      2.00000
     14       6.8614      2.00000
     15       6.9459      2.00000
     16       6.9531      2.00000
     17      17.1876      0.00000
     18      17.2694      0.00000
     19      17.2694      0.00000
     20      18.0945      0.00000
     21      18.4926      0.00000
     22      18.5328      0.00000
     23      18.6173      0.00000
     24      18.6173      0.00000

 k-point   187 :       0.5000    0.5000    0.4167
  band No.  band energies     occupation 
      1      -6.6996      2.00000
      2      -5.9795      2.00000
      3      -5.9493      2.00000
      4      -5.9493      2.00000
      5      -3.3705      2.00000
      6      -3.3703      2.00000
      7      -3.3703      2.00000
      8      -3.3391      2.00000
      9       6.5297      2.00000
     10       6.5297      2.00000
     11       6.5867      2.00000
     12       6.7259      2.00000
     13       6.8088      2.00000
     14       6.8088      2.00000
     15       7.0765      2.00000
     16       7.2800      2.00000
     17      17.2527      0.00000
     18      17.2527      0.00000
     19      17.3820      0.00000
     20      18.4025      0.00000
     21      18.4872      0.00000
     22      18.5217      0.00000
     23      18.5230      0.00000
     24      18.5591      0.00000

 k-point   188 :      -0.4167    0.5000    0.4167
  band No.  band energies     occupation 
      1      -6.4812      2.00000
      2      -6.4529      2.00000
      3      -6.4529      2.00000
      4      -5.6599      2.00000
      5      -3.5324      2.00000
      6      -3.4617      2.00000
      7      -2.7545      2.00000
      8      -2.7545      2.00000
      9       6.1449      2.00000
     10       6.6460      2.00000
     11       6.6508      2.00000
     12       6.6508      2.00000
     13       6.7298      2.00000
     14       6.7404      2.00000
     15       6.7404      2.00000
     16       7.0692      2.00000
     17      17.2741      0.00000
     18      17.2741      0.00000
     19      17.3287      0.00000
     20      18.2981      0.00000
     21      18.3199      0.00000
     22      18.4994      0.00000
     23      18.5007      0.00000
     24      18.7299      0.00000

 k-point   189 :       0.5000    0.5000    0.5000
  band No.  band energies     occupation 
      1      -6.5991      2.00000
      2      -5.7766      2.00000
      3      -5.7766      2.00000
      4      -5.7766      2.00000
      5      -3.6536      2.00000
      6      -3.6536      2.00000
      7      -3.6536      2.00000
      8      -3.5867      2.00000
      9       6.7292      2.00000
     10       6.7292      2.00000
     11       6.7292      2.00000
     12       6.8386      2.00000
     13       6.8386      2.00000
     14       6.8386      2.00000
     15       7.3052      2.00000
     16       7.3052      2.00000
     17      17.2073      0.00000
     18      17.2073      0.00000
     19      17.2073      0.00000
     20      18.3892      0.00000
     21      18.3894      0.00000
     22      18.5442      0.00000
     23      18.5446      0.00000
     24      18.5448      0.00000


--------------------------------------------------------------------------------------------------------


 soft charge-density along one line, spin component           1
         0         1         2         3         4         5         6         7         8         9
 total charge-density along one line
 
 pseudopotential strength for first ion, spin component:           1
  9.442  -0.005   0.000   0.000   0.000  -0.000  -0.000  -0.000
 -0.005  -0.002   0.000   0.000   0.000  -0.000  -0.000  -0.000
  0.000   0.000  -3.663  -0.000  -0.000  -0.009   0.000   0.000
  0.000   0.000  -0.000  -3.663  -0.000   0.000  -0.009   0.000
  0.000   0.000  -0.000  -0.000  -3.663   0.000   0.000  -0.009
 -0.000  -0.000  -0.009   0.000   0.000  -0.757  -0.000  -0.000
 -0.000  -0.000   0.000  -0.009   0.000  -0.000  -0.757  -0.000
 -0.000  -0.000   0.000   0.000  -0.009  -0.000  -0.000  -0.757
 total augmentation occupancy for first ion, spin component:           1
  1.424  -1.031   0.009   0.009   0.009   0.005   0.005   0.005
 -1.031   1.029  -0.025  -0.024  -0.026  -0.008  -0.008  -0.008
  0.009  -0.025   1.098  -0.019  -0.020   0.184  -0.003  -0.003
  0.009  -0.024  -0.019   1.099  -0.020  -0.003   0.185  -0.003
  0.009  -0.026  -0.020  -0.020   1.097  -0.003  -0.003   0.184
  0.005  -0.008   0.184  -0.003  -0.003   0.036  -0.001  -0.001
  0.005  -0.008  -0.003   0.185  -0.003  -0.001   0.037  -0.001
  0.005  -0.008  -0.003  -0.003   0.184  -0.001  -0.001   0.036


------------------------ aborting loop because EDIFF is reached ----------------------------------------


    CHARGE:  cpu time    0.2699: real time    0.2699
    FORLOC:  cpu time    0.0020: real time    0.0020
    FORNL :  cpu time    0.4544: real time    0.4544
    STRESS:  cpu time    1.0713: real time    1.0715
    FORHAR:  cpu time    0.0060: real time    0.0060
    MIXING:  cpu time    0.0023: real time    0.0023
    OFIELD:  cpu time    0.0001: real time    0.0001

  FORCE on cell =-STRESS in cart. coord.  units (eV):
  Direction    XX          YY          ZZ          XY          YZ          ZX
  --------------------------------------------------------------------------------------
  Alpha Z   114.40614   114.40614   114.40614
  Ewald    -463.95810  -462.99692  -462.11717   -16.01395   -15.09436   -15.55411
  Hartree    35.15294    35.41387    35.65269    -4.34723    -4.09758    -4.22240
  E(xc)    -119.61042  -119.60924  -119.60816    -0.01970    -0.01857    -0.01914
  Local     -46.16691   -47.30525   -48.34717    18.96585    17.87669    18.42126
  n-local   -28.07521   -28.41385   -28.15074     0.64600     1.08878     0.28175
  augment    -2.83253    -2.83263    -2.83272     0.00159     0.00150     0.00155
  Kinetic   504.48721   509.75815   516.92212    -3.69818    -7.26096    -0.56845
  Fock        0.00000     0.00000     0.00000     0.00000     0.00000     0.00000
  -------------------------------------------------------------------------------------
  Total      -1.02847    -0.74244    -0.48069    -4.76514    -4.49148    -4.62831
  in kB     -36.15109   -26.09689   -16.89627  -167.49567  -157.87665  -162.68619
  external pressure =      -26.38 kB  Pullay stress =        0.00 kB


 VOLUME and BASIS-vectors are now :
 -----------------------------------------------------------------------------
  energy-cutoff  :      400.00
  volume of cell :       45.58
      direct lattice vectors                 reciprocal lattice vectors
     3.573710000  0.000000000  0.000000000     0.279821250 -0.008398395 -0.008157241
     0.107211000  3.572101000  0.000000000     0.000000000  0.279947292 -0.008157282
     0.107211000  0.104042000  3.570586000     0.000000000  0.000000000  0.280066073

  length of vectors
     3.573710000  3.573709523  3.573710022     0.280066074  0.280066112  0.280066073


 FORCES acting on ions
    electron-ion (+dipol)            ewald-force                    non-local-force                 convergence-correction
 -----------------------------------------------------------------------------------------------
   0.542E+01 0.526E+01 0.511E+01   -.551E+01 -.534E+01 -.519E+01   0.664E-01 0.644E-01 0.626E-01   0.135E-04 0.131E-04 0.127E-04
   -.542E+01 -.526E+01 -.511E+01   0.551E+01 0.534E+01 0.519E+01   -.664E-01 -.644E-01 -.626E-01   -.135E-04 -.131E-04 -.127E-04
   0.542E+01 0.526E+01 0.511E+01   -.551E+01 -.534E+01 -.519E+01   0.664E-01 0.644E-01 0.626E-01   0.135E-04 0.131E-04 0.127E-04
   -.542E+01 -.526E+01 -.511E+01   0.551E+01 0.534E+01 0.519E+01   -.664E-01 -.644E-01 -.626E-01   -.135E-04 -.131E-04 -.127E-04
   0.542E+01 0.526E+01 0.511E+01   -.551E+01 -.534E+01 -.519E+01   0.664E-01 0.644E-01 0.626E-01   0.135E-04 0.131E-04 0.127E-04
   -.542E+01 -.526E+01 -.511E+01   0.551E+01 0.534E+01 0.519E+01   -.664E-01 -.644E-01 -.626E-01   -.135E-04 -.131E-04 -.127E-04
   0.542E+01 0.526E+01 0.511E+01   -.551E+01 -.534E+01 -.519E+01   0.664E-01 0.644E-01 0.626E-01   0.135E-04 0.131E-04 0.127E-04
   -.542E+01 -.526E+01 -.511E+01   0.551E+01 0.534E+01 0.519E+01   -.664E-01 -.644E-01 -.626E-01   -.135E-04 -.131E-04 -.127E-04
 -----------------------------------------------------------------------------------------------
   -.105E-11 -.104E-11 -.949E-12   -.178E-13 -.888E-15 -.888E-15   0.278E-16 0.416E-16 0.139E-16   0.691E-14 0.145E-13 0.130E-13
 
 
 POSITION                                       TOTAL-FORCE (eV/Angst)
 -----------------------------------------------------------------------------------
      1.00064      2.70509      0.89265        -0.019862     -0.019275     -0.018721
      0.05361      0.05202      1.78529         0.019862      0.019275      0.018721
      1.00064      0.97106      2.67794        -0.019862     -0.019275     -0.018721
      0.05361      1.78605      0.00000         0.019862      0.019275      0.018721
      2.84110      2.75711      2.67794        -0.019862     -0.019275     -0.018721
      1.78686      0.00000      0.00000         0.019862      0.019275      0.018721
      2.73389      0.91904      0.89265        -0.019862     -0.019275     -0.018721
      1.89407      1.83807      1.78529         0.019862      0.019275      0.018721
 -----------------------------------------------------------------------------------
    total drift:                               -0.000000     -0.000000     -0.000000


--------------------------------------------------------------------------------------------------------



  FREE ENERGIE OF THE ION-ELECTRON SYSTEM (eV)
  ---------------------------------------------------
  free  energy   TOTEN  =       -72.54369092 eV

  energy  without entropy=      -72.54369092  energy(sigma->0) =      -72.54369092
 


--------------------------------------------------------------------------------------------------------


    POTLOK:  cpu time    0.0273: real time    0.0274


--------------------------------------------------------------------------------------------------------


     LOOP+:  cpu time  133.6698: real time  133.8091
    4ORBIT:  cpu time    0.0000: real time    0.0000
 BZINTS: Fermi energy:  9.823373; 32.000000 electrons
         Band energy:  23.858851;  BLOECHL correction:  0.000000

 total amount of memory used by VASP MPI-rank0    37682. kBytes
=======================================================================

   base      :      30000. kBytes
   nonl-proj :       2640. kBytes
   fftplans  :        346. kBytes
   grid      :        481. kBytes
   one-center:          6. kBytes
   wavefun   :       4209. kBytes
 
  
  
 General timing and accounting informations for this job:
 ========================================================
  
                  Total CPU time used (sec):      137.204
                            User time (sec):      133.092
                          System time (sec):        4.112
                         Elapsed time (sec):      137.468
  
                   Maximum memory used (kb):      193692.
                   Average memory used (kb):           0.
  
                          Minor page faults:        36889
                          Major page faults:           36
                 Voluntary context switches:          784
