   8   8   0   0
  0.4938066E+01  0.3405772E-09  0.3405772E-09  0.3405772E-09  0.2000000E-16
  1.000000000000000E-004
  CAR 
 unknown system                          
     26.54863429    -13.37515333  301     11.92654707      1.00000000
    -13.375  0.0000E+00  0.0000E+00
    -13.242  0.0000E+00  0.0000E+00
    -13.109  0.0000E+00  0.0000E+00
    -12.976  0.0000E+00  0.0000E+00
    -12.843  0.0000E+00  0.0000E+00
    -12.710  0.0000E+00  0.0000E+00
    -12.577  0.0000E+00  0.0000E+00
    -12.444  0.0000E+00  0.0000E+00
    -12.311  0.0000E+00  0.0000E+00
    -12.177  0.0000E+00  0.0000E+00
    -12.044  0.0000E+00  0.0000E+00
    -11.911  0.0000E+00  0.0000E+00
    -11.778  0.0000E+00  0.0000E+00
    -11.645  0.0000E+00  0.0000E+00
    -11.512  0.3117E-01  0.5028E-03
    -11.379  0.1392E+00  0.1474E-01
    -11.246  0.2181E+00  0.3846E-01
    -11.113  0.2464E+00  0.6909E-01
    -10.980  0.2890E+00  0.1047E+00
    -10.847  0.3261E+00  0.1461E+00
    -10.714  0.3517E+00  0.1911E+00
    -10.580  0.3791E+00  0.2397E+00
    -10.447  0.4133E+00  0.2924E+00
    -10.314  0.4348E+00  0.3490E+00
    -10.181  0.4556E+00  0.4083E+00
    -10.048  0.4781E+00  0.4703E+00
     -9.915  0.5033E+00  0.5356E+00
     -9.782  0.5281E+00  0.6043E+00
     -9.649  0.5448E+00  0.6756E+00
     -9.516  0.5624E+00  0.7493E+00
     -9.383  0.5816E+00  0.8254E+00
     -9.250  0.6014E+00  0.9041E+00
     -9.117  0.6224E+00  0.9856E+00
     -8.984  0.6425E+00  0.1070E+01
     -8.850  0.6576E+00  0.1156E+01
     -8.717  0.6726E+00  0.1245E+01
     -8.584  0.6897E+00  0.1335E+01
     -8.451  0.7073E+00  0.1428E+01
     -8.318  0.7256E+00  0.1524E+01
     -8.185  0.7447E+00  0.1622E+01
     -8.052  0.7603E+00  0.1722E+01
     -7.919  0.7749E+00  0.1824E+01
     -7.786  0.7901E+00  0.1928E+01
     -7.653  0.8061E+00  0.2034E+01
     -7.520  0.8223E+00  0.2143E+01
     -7.387  0.8390E+00  0.2253E+01
     -7.254  0.8917E+00  0.2368E+01
     -7.120  0.9158E+00  0.2489E+01
     -6.987  0.9586E+00  0.2613E+01
     -6.854  0.9635E+00  0.2741E+01
     -6.721  0.9475E+00  0.2869E+01
     -6.588  0.9176E+00  0.2993E+01
     -6.455  0.9337E+00  0.3115E+01
     -6.322  0.9396E+00  0.3240E+01
     -6.189  0.9422E+00  0.3365E+01
     -6.056  0.9465E+00  0.3491E+01
     -5.923  0.9822E+00  0.3619E+01
     -5.790  0.1036E+01  0.3753E+01
     -5.657  0.1098E+01  0.3894E+01
     -5.523  0.1131E+01  0.4042E+01
     -5.390  0.1123E+01  0.4192E+01
     -5.257  0.1162E+01  0.4344E+01
     -5.124  0.1268E+01  0.4504E+01
     -4.991  0.1420E+01  0.4683E+01
     -4.858  0.1393E+01  0.4873E+01
     -4.725  0.1312E+01  0.5051E+01
     -4.592  0.1341E+01  0.5228E+01
     -4.459  0.1202E+01  0.5397E+01
     -4.326  0.1233E+01  0.5558E+01
     -4.193  0.1281E+01  0.5725E+01
     -4.060  0.1159E+01  0.5890E+01
     -3.927  0.1092E+01  0.6039E+01
     -3.793  0.1064E+01  0.6182E+01
     -3.660  0.1035E+01  0.6322E+01
     -3.527  0.1024E+01  0.6459E+01
     -3.394  0.1030E+01  0.6596E+01
     -3.261  0.9844E+00  0.6733E+01
     -3.128  0.9711E+00  0.6866E+01
     -2.995  0.9378E+00  0.6990E+01
     -2.862  0.1032E+01  0.7123E+01
     -2.729  0.1032E+01  0.7260E+01
     -2.596  0.1178E+01  0.7409E+01
     -2.463  0.1171E+01  0.7565E+01
     -2.330  0.1130E+01  0.7717E+01
     -2.196  0.1207E+01  0.7868E+01
     -2.063  0.1152E+01  0.8024E+01
     -1.930  0.1116E+01  0.8175E+01
     -1.797  0.1151E+01  0.8335E+01
     -1.664  0.1032E+01  0.8480E+01
     -1.531  0.1074E+01  0.8619E+01
     -1.398  0.1080E+01  0.8762E+01
     -1.265  0.1113E+01  0.8908E+01
     -1.132  0.1183E+01  0.9060E+01
     -0.999  0.1304E+01  0.9225E+01
     -0.866  0.1547E+01  0.9413E+01
     -0.733  0.1962E+01  0.9647E+01
     -0.600  0.2188E+01  0.9926E+01
     -0.466  0.2194E+01  0.1022E+02
     -0.333  0.2104E+01  0.1051E+02
     -0.200  0.1742E+01  0.1078E+02
     -0.067  0.1633E+01  0.1100E+02
      0.066  0.1401E+01  0.1120E+02
      0.199  0.1324E+01  0.1138E+02
      0.332  0.1264E+01  0.1155E+02
      0.465  0.1223E+01  0.1172E+02
      0.598  0.1204E+01  0.1188E+02
      0.731  0.1193E+01  0.1204E+02
      0.864  0.1194E+01  0.1220E+02
      0.997  0.1244E+01  0.1236E+02
      1.130  0.1529E+01  0.1253E+02
      1.264  0.1115E+01  0.1271E+02
      1.397  0.1120E+01  0.1285E+02
      1.530  0.1190E+01  0.1301E+02
      1.663  0.1356E+01  0.1317E+02
      1.796  0.1859E+01  0.1338E+02
      1.929  0.2078E+01  0.1366E+02
      2.062  0.1868E+01  0.1393E+02
      2.195  0.1752E+01  0.1417E+02
      2.328  0.1742E+01  0.1440E+02
      2.461  0.2057E+01  0.1465E+02
      2.594  0.2207E+01  0.1493E+02
      2.727  0.2138E+01  0.1522E+02
      2.861  0.1711E+01  0.1548E+02
      2.994  0.1377E+01  0.1569E+02
      3.127  0.1250E+01  0.1586E+02
      3.260  0.1638E+01  0.1605E+02
      3.393  0.1914E+01  0.1629E+02
      3.526  0.1999E+01  0.1655E+02
      3.659  0.2080E+01  0.1682E+02
      3.792  0.2178E+01  0.1710E+02
      3.925  0.2229E+01  0.1740E+02
      4.058  0.2391E+01  0.1770E+02
      4.191  0.2730E+01  0.1804E+02
      4.324  0.2606E+01  0.1841E+02
      4.457  0.2284E+01  0.1874E+02
      4.591  0.2299E+01  0.1904E+02
      4.724  0.2513E+01  0.1936E+02
      4.857  0.2693E+01  0.1971E+02
      4.990  0.2498E+01  0.2005E+02
      5.123  0.2904E+01  0.2040E+02
      5.256  0.3093E+01  0.2080E+02
      5.389  0.3162E+01  0.2122E+02
      5.522  0.2864E+01  0.2162E+02
      5.655  0.3235E+01  0.2200E+02
      5.788  0.2523E+01  0.2236E+02
      5.921  0.2463E+01  0.2269E+02
      6.054  0.2569E+01  0.2303E+02
      6.188  0.2397E+01  0.2336E+02
      6.321  0.2499E+01  0.2369E+02
      6.454  0.2586E+01  0.2403E+02
      6.587  0.2654E+01  0.2438E+02
      6.720  0.2617E+01  0.2473E+02
      6.853  0.2694E+01  0.2508E+02
      6.986  0.2789E+01  0.2545E+02
      7.119  0.2484E+01  0.2580E+02
      7.252  0.2225E+01  0.2611E+02
      7.385  0.2092E+01  0.2640E+02
      7.518  0.2069E+01  0.2668E+02
      7.651  0.2143E+01  0.2696E+02
      7.784  0.2642E+01  0.2727E+02
      7.918  0.2432E+01  0.2761E+02
      8.051  0.2371E+01  0.2793E+02
      8.184  0.2409E+01  0.2825E+02
      8.317  0.2117E+01  0.2854E+02
      8.450  0.2358E+01  0.2883E+02
      8.583  0.2194E+01  0.2910E+02
      8.716  0.2627E+01  0.2946E+02
      8.849  0.1674E+01  0.2972E+02
      8.982  0.1517E+01  0.2994E+02
      9.115  0.1409E+01  0.3013E+02
      9.248  0.1275E+01  0.3031E+02
      9.381  0.1198E+01  0.3047E+02
      9.514  0.1148E+01  0.3063E+02
      9.648  0.1079E+01  0.3078E+02
      9.781  0.1012E+01  0.3092E+02
      9.914  0.8985E+00  0.3104E+02
     10.047  0.8155E+00  0.3116E+02
     10.180  0.7754E+00  0.3126E+02
     10.313  0.7389E+00  0.3136E+02
     10.446  0.7057E+00  0.3146E+02
     10.579  0.6371E+00  0.3155E+02
     10.712  0.5612E+00  0.3163E+02
     10.845  0.4928E+00  0.3170E+02
     10.978  0.4857E+00  0.3176E+02
     11.111  0.4113E+00  0.3182E+02
     11.245  0.3246E+00  0.3187E+02
     11.378  0.3429E+00  0.3191E+02
     11.511  0.2428E+00  0.3196E+02
     11.644  0.1291E+00  0.3198E+02
     11.777  0.9718E-01  0.3200E+02
     11.910  0.0000E+00  0.3200E+02
     12.043  0.0000E+00  0.3200E+02
     12.176  0.0000E+00  0.3200E+02
     12.309  0.0000E+00  0.3200E+02
     12.442  0.0000E+00  0.3200E+02
     12.575  0.0000E+00  0.3200E+02
     12.708  0.0000E+00  0.3200E+02
     12.841  0.0000E+00  0.3200E+02
     12.975  0.0000E+00  0.3200E+02
     13.108  0.0000E+00  0.3200E+02
     13.241  0.0000E+00  0.3200E+02
     13.374  0.0000E+00  0.3200E+02
     13.507  0.0000E+00  0.3200E+02
     13.640  0.0000E+00  0.3200E+02
     13.773  0.0000E+00  0.3200E+02
     13.906  0.0000E+00  0.3200E+02
     14.039  0.0000E+00  0.3200E+02
     14.172  0.0000E+00  0.3200E+02
     14.305  0.0000E+00  0.3200E+02
     14.438  0.0000E+00  0.3200E+02
     14.571  0.0000E+00  0.3200E+02
     14.705  0.0000E+00  0.3200E+02
     14.838  0.0000E+00  0.3200E+02
     14.971  0.0000E+00  0.3200E+02
     15.104  0.0000E+00  0.3200E+02
     15.237  0.0000E+00  0.3200E+02
     15.370  0.0000E+00  0.3200E+02
     15.503  0.0000E+00  0.3200E+02
     15.636  0.0000E+00  0.3200E+02
     15.769  0.0000E+00  0.3200E+02
     15.902  0.0000E+00  0.3200E+02
     16.035  0.0000E+00  0.3200E+02
     16.168  0.0000E+00  0.3200E+02
     16.302  0.0000E+00  0.3200E+02
     16.435  0.6522E-01  0.3200E+02
     16.568  0.2227E+00  0.3202E+02
     16.701  0.4619E+00  0.3207E+02
     16.834  0.5674E+00  0.3214E+02
     16.967  0.5691E+00  0.3221E+02
     17.100  0.7396E+00  0.3230E+02
     17.233  0.8047E+00  0.3240E+02
     17.366  0.9391E+00  0.3252E+02
     17.499  0.1325E+01  0.3269E+02
     17.632  0.1354E+01  0.3287E+02
     17.765  0.1378E+01  0.3305E+02
     17.898  0.1419E+01  0.3324E+02
     18.032  0.1396E+01  0.3342E+02
     18.165  0.1511E+01  0.3362E+02
     18.298  0.1620E+01  0.3382E+02
     18.431  0.1763E+01  0.3405E+02
     18.564  0.2028E+01  0.3430E+02
     18.697  0.2104E+01  0.3457E+02
     18.830  0.1943E+01  0.3485E+02
     18.963  0.1901E+01  0.3510E+02
     19.096  0.1961E+01  0.3536E+02
     19.229  0.2018E+01  0.3562E+02
     19.362  0.2133E+01  0.3590E+02
     19.495  0.2294E+01  0.3619E+02
     19.629  0.2415E+01  0.3651E+02
     19.762  0.2564E+01  0.3684E+02
     19.895  0.2556E+01  0.3718E+02
     20.028  0.2688E+01  0.3752E+02
     20.161  0.2920E+01  0.3790E+02
     20.294  0.3328E+01  0.3831E+02
     20.427  0.3969E+01  0.3877E+02
     20.560  0.4024E+01  0.3933E+02
     20.693  0.3655E+01  0.3983E+02
     20.826  0.3448E+01  0.4033E+02
     20.959  0.2367E+01  0.4071E+02
     21.092  0.2562E+01  0.4103E+02
     21.225  0.2252E+01  0.4134E+02
     21.359  0.2387E+01  0.4165E+02
     21.492  0.2872E+01  0.4199E+02
     21.625  0.2924E+01  0.4238E+02
     21.758  0.2718E+01  0.4275E+02
     21.891  0.2998E+01  0.4313E+02
     22.024  0.3184E+01  0.4354E+02
     22.157  0.3210E+01  0.4397E+02
     22.290  0.2990E+01  0.4439E+02
     22.423  0.2893E+01  0.4478E+02
     22.556  0.2595E+01  0.4515E+02
     22.689  0.2417E+01  0.4548E+02
     22.822  0.2538E+01  0.4581E+02
     22.955  0.2610E+01  0.4616E+02
     23.089  0.2524E+01  0.4649E+02
     23.222  0.2637E+01  0.4684E+02
     23.355  0.2544E+01  0.4719E+02
     23.488  0.2010E+01  0.4749E+02
     23.621  0.1266E+01  0.4772E+02
     23.754  0.6115E+00  0.4784E+02
     23.887  0.2793E+00  0.4791E+02
     24.020  0.1958E+00  0.4793E+02
     24.153  0.1549E+00  0.4796E+02
     24.286  0.1146E+00  0.4798E+02
     24.419  0.7572E-01  0.4799E+02
     24.552  0.4073E-01  0.4800E+02
     24.686  0.9701E-02  0.4800E+02
     24.819  0.0000E+00  0.4800E+02
     24.952  0.0000E+00  0.4800E+02
     25.085  0.0000E+00  0.4800E+02
     25.218  0.0000E+00  0.4800E+02
     25.351  0.0000E+00  0.4800E+02
     25.484  0.0000E+00  0.4800E+02
     25.617  0.0000E+00  0.4800E+02
     25.750  0.0000E+00  0.4800E+02
     25.883  0.0000E+00  0.4800E+02
     26.016  0.0000E+00  0.4800E+02
     26.149  0.0000E+00  0.4800E+02
     26.282  0.0000E+00  0.4800E+02
     26.416  0.0000E+00  0.4800E+02
     26.549  0.0000E+00  0.4800E+02
