       N       E                     dE             d eps       ncg     rms          rms(c)
DAV:   1     0.596441218090E+02    0.59644E+02   -0.14734E+04  4032   0.107E+03
DAV:   2    -0.709873444865E+02   -0.13063E+03   -0.12429E+03  5624   0.229E+02
DAV:   3    -0.750865057409E+02   -0.40992E+01   -0.40808E+01  5200   0.371E+01
DAV:   4    -0.751216727728E+02   -0.35167E-01   -0.35143E-01  4936   0.385E+00
DAV:   5    -0.751222443065E+02   -0.57153E-03   -0.57140E-03  5184   0.425E-01    0.112E+01
DAV:   6    -0.723098976483E+02    0.28123E+01   -0.18101E+00  4432   0.801E+00    0.603E+00
DAV:   7    -0.713655584636E+02    0.94434E+00   -0.19722E+00  4560   0.859E+00    0.730E-01
DAV:   8    -0.713746292912E+02   -0.90708E-02   -0.35625E-02  4936   0.113E+00    0.914E-02
DAV:   9    -0.713748162861E+02   -0.18699E-03   -0.43146E-04  4800   0.145E-01    0.299E-02
DAV:  10    -0.713748601000E+02   -0.43814E-04   -0.32388E-05  4936   0.453E-02    0.294E-03
DAV:  11    -0.713748609263E+02   -0.82628E-06   -0.95487E-07  3584   0.724E-03
   1 F= -.71374861E+02 E0= -.71374861E+02  d E =0.000000E+00
