 vasp.5.4.4.18Apr17-6-g9f103f2a35 (build Mar 12 2022 03:36:41) complex          
  
 executed on IFC19.0.3.199_CrayMP date 2022.12.01  10:36:13
 running on   16 total cores
 distrk:  each k-point on   16 cores,    1 groups
 distr:  one band on NCORES_PER_BAND=   4 cores,    4 groups


--------------------------------------------------------------------------------------------------------


 INCAR:
 POTCAR:   PAW_PBE C 08Apr2002                    
 POTCAR:   PAW_PBE C 08Apr2002                    
   VRHFIN =C: s2p2                                                              
   LEXCH  = PE                                                                  
   EATOM  =   147.1560 eV,   10.8157 Ry                                         
                                                                                
   TITEL  = PAW_PBE C 08Apr2002                                                 
   LULTRA =        F    use ultrasoft PP ?                                      
   IUNSCR =        0    unscreen: 0-lin 1-nonlin 2-no                           
   RPACOR =     .000    partial core radius                                     
   POMASS =   12.011; ZVAL   =    4.000    mass and valenz                      
   RCORE  =    1.500    outmost cutoff radius                                   
   RWIGS  =    1.630; RWIGS  =     .863    wigner-seitz radius (au A)           
   ENMAX  =  400.000; ENMIN  =  300.000 eV                                      
   ICORE  =        2    local potential                                         
   LCOR   =        T    correct aug charges                                     
   LPAW   =        T    paw PP                                                  
   EAUG   =  644.873                                                            
   DEXC   =     .000                                                            
   RMAX   =    2.266    core radius for proj-oper                               
   RAUG   =    1.300    factor for augmentation sphere                          
   RDEP   =    1.501    radius for radial grids                                 
   RDEPT  =    1.300    core radius for aug-charge                              
   QCUT   =   -5.516; QGAM   =   11.032    optimization parameters              
                                                                                
   Description                                                                  
     l     E      TYP  RCUT    TYP  RCUT                                        
     0   .000     23  1.200                                                     
     0   .000     23  1.200                                                     
     1   .000     23  1.500                                                     
     1  2.500     23  1.500                                                     
     2   .000      7  1.500                                                     
  local pseudopotential read in
  atomic valenz-charges read in
  non local Contribution for L=           0  read in
    real space projection operators read in
  non local Contribution for L=           0  read in
    real space projection operators read in
  non local Contribution for L=           1  read in
    real space projection operators read in
  non local Contribution for L=           1  read in
    real space projection operators read in
    PAW grid and wavefunctions read in
 
   number of l-projection  operators is LMAX  =           4
   number of lm-projection operators is LMMAX =           8
 
 PAW_PBE C 08Apr2002                    :
 energy of atom  1       EATOM= -147.1560
 kinetic energy error for atom=    0.0288 (will be added to EATOM!!)
 
 
 POSCAR: C8                                      
  positions in direct lattice
  No initial velocities read in
 exchange correlation table for  LEXCH =        8
   RHO(1)=    0.500       N(1)  =     2000
   RHO(2)=  100.500       N(2)  =     4000
 


--------------------------------------------------------------------------------------------------------


 ion  position               nearest neighbor table
   1  0.250  0.750  0.250-   2 1.47   4 1.47   6 1.47   8 1.47
   2  0.000  0.000  0.500-   1 1.47   3 1.47   5 1.47   7 1.47
   3  0.250  0.250  0.750-   2 1.47   4 1.47   6 1.47   8 1.47
   4  0.000  0.500  0.000-   1 1.47   3 1.47   5 1.47   7 1.47
   5  0.750  0.750  0.750-   2 1.47   4 1.47   6 1.47   8 1.47
   6  0.500  0.000  0.000-   1 1.47   3 1.47   5 1.47   7 1.47
   7  0.750  0.250  0.250-   2 1.47   4 1.47   6 1.47   8 1.47
   8  0.500  0.500  0.500-   1 1.47   3 1.47   5 1.47   7 1.47
 
  LATTYP: Found a simple cubic cell.
 ALAT       =     3.4057724428
  
  Lattice vectors:
  
 A1 = (   3.4057724428,   0.0000000000,   0.0000000000)
 A2 = (   0.0000000000,   3.4057724428,   0.0000000000)
 A3 = (   0.0000000000,   0.0000000000,   3.4057724428)


Analysis of symmetry for initial positions (statically):
=====================================================================
 Subroutine PRICEL returns following result:
 
  LATTYP: Found a face centered cubic cell.
 ALAT       =     3.4057724428
  
  Lattice vectors:
  
 A1 = (   1.7028862214,   1.7028862214,   0.0000000000)
 A2 = (   1.7028862214,   0.0000000000,  -1.7028862214)
 A3 = (   0.0000000000,   1.7028862214,  -1.7028862214)
 
   4 primitive cells build up your supercell.
 

 Routine SETGRP: Setting up the symmetry group for a 
 simple cubic supercell.


 Subroutine GETGRP returns: Found 48 space group operations
 (whereof 24 operations were pure point group operations)
 out of a pool of 48 trial point group operations.


The static configuration has the point symmetry T_d .
 The point group associated with its full space group is O_h .


Analysis of symmetry for dynamics (positions and initial velocities):
=====================================================================
 Subroutine PRICEL returns following result:
 
  LATTYP: Found a face centered cubic cell.
 ALAT       =     3.4057724428
  
  Lattice vectors:
  
 A1 = (   1.7028862214,   1.7028862214,   0.0000000000)
 A2 = (   1.7028862214,   0.0000000000,  -1.7028862214)
 A3 = (   0.0000000000,   1.7028862214,  -1.7028862214)
 
   4 primitive cells build up your supercell.
 

 Routine SETGRP: Setting up the symmetry group for a 
 simple cubic supercell.


 Subroutine GETGRP returns: Found 48 space group operations
 (whereof 24 operations were pure point group operations)
 out of a pool of 48 trial point group operations.


The dynamic configuration has the point symmetry T_d .
 The point group associated with its full space group is O_h .


 Subroutine INISYM returns: Found 48 space group operations
 (whereof 24 operations are pure point group operations),
 and found     4 'primitive' translations

 
 
 KPOINTS: kpt_density=1000                        

Automatic generation of k-mesh.
Space group operators:
 irot       det(A)        alpha          n_x          n_y          n_z        tau_x        tau_y        tau_z
    1     1.000000     0.000000     1.000000     0.000000     0.000000     0.000000     0.000000     0.000000
    2     1.000000   120.000000    -0.577350    -0.577350    -0.577350     0.000000     0.000000     0.000000
    3     1.000000   120.000000     0.577350     0.577350     0.577350     0.000000     0.000000     0.000000
    4    -1.000000    90.000000     0.000000     0.000000    -1.000000     0.000000     0.000000     0.000000
    5    -1.000000   180.000000     0.000000     0.707107     0.707107     0.000000     0.000000     0.000000
    6    -1.000000    90.000000     0.000000     1.000000     0.000000     0.000000     0.000000     0.000000
    7     1.000000   180.000000     0.000000     0.000000     1.000000     0.000000     0.000000     0.000000
    8     1.000000   120.000000    -0.577350     0.577350     0.577350     0.000000     0.000000     0.000000
    9     1.000000   120.000000    -0.577350     0.577350    -0.577350     0.000000     0.000000     0.000000
   10    -1.000000    90.000000     0.000000     0.000000     1.000000     0.000000     0.000000     0.000000
   11    -1.000000    90.000000    -1.000000     0.000000     0.000000     0.000000     0.000000     0.000000
   12    -1.000000   180.000000     0.707107     0.000000     0.707107     0.000000     0.000000     0.000000
   13     1.000000   120.000000     0.577350    -0.577350     0.577350     0.000000     0.000000     0.000000
   14     1.000000   120.000000    -0.577350    -0.577350     0.577350     0.000000     0.000000     0.000000
   15     1.000000   180.000000     1.000000     0.000000     0.000000     0.000000     0.000000     0.000000
   16    -1.000000    90.000000     0.000000    -1.000000     0.000000     0.000000     0.000000     0.000000
   17    -1.000000   180.000000     0.707107     0.707107     0.000000     0.000000     0.000000     0.000000
   18    -1.000000    90.000000     1.000000     0.000000     0.000000     0.000000     0.000000     0.000000
   19     1.000000   120.000000     0.577350    -0.577350    -0.577350     0.000000     0.000000     0.000000
   20     1.000000   180.000000     0.000000     1.000000     0.000000     0.000000     0.000000     0.000000
   21     1.000000   120.000000     0.577350     0.577350    -0.577350     0.000000     0.000000     0.000000
   22    -1.000000   180.000000     0.000000    -0.707107     0.707107     0.000000     0.000000     0.000000
   23    -1.000000   180.000000     0.707107    -0.707107     0.000000     0.000000     0.000000     0.000000
   24    -1.000000   180.000000     0.707107     0.000000    -0.707107     0.000000     0.000000     0.000000
   25    -1.000000     0.000000     1.000000     0.000000     0.000000     0.750000     0.750000    -0.750000
   26    -1.000000   120.000000    -0.577350    -0.577350    -0.577350     0.750000     0.750000    -0.750000
   27    -1.000000   120.000000     0.577350     0.577350     0.577350     0.750000     0.750000    -0.750000
   28     1.000000    90.000000     0.000000     0.000000    -1.000000     0.750000     0.750000    -0.750000
   29     1.000000   180.000000     0.000000     0.707107     0.707107     0.750000     0.750000    -0.750000
   30     1.000000    90.000000     0.000000     1.000000     0.000000     0.750000     0.750000    -0.750000
   31    -1.000000   180.000000     0.000000     0.000000     1.000000     0.750000     0.750000    -0.750000
   32    -1.000000   120.000000    -0.577350     0.577350     0.577350     0.750000     0.750000    -0.750000
   33    -1.000000   120.000000    -0.577350     0.577350    -0.577350     0.750000     0.750000    -0.750000
   34     1.000000    90.000000     0.000000     0.000000     1.000000     0.750000     0.750000    -0.750000
   35     1.000000    90.000000    -1.000000     0.000000     0.000000     0.750000     0.750000    -0.750000
   36     1.000000   180.000000     0.707107     0.000000     0.707107     0.750000     0.750000    -0.750000
   37    -1.000000   120.000000     0.577350    -0.577350     0.577350     0.750000     0.750000    -0.750000
   38    -1.000000   120.000000    -0.577350    -0.577350     0.577350     0.750000     0.750000    -0.750000
   39    -1.000000   180.000000     1.000000     0.000000     0.000000     0.750000     0.750000    -0.750000
   40     1.000000    90.000000     0.000000    -1.000000     0.000000     0.750000     0.750000    -0.750000
   41     1.000000   180.000000     0.707107     0.707107     0.000000     0.750000     0.750000    -0.750000
   42     1.000000    90.000000     1.000000     0.000000     0.000000     0.750000     0.750000    -0.750000
   43    -1.000000   120.000000     0.577350    -0.577350    -0.577350     0.750000     0.750000    -0.750000
   44    -1.000000   180.000000     0.000000     1.000000     0.000000     0.750000     0.750000    -0.750000
   45    -1.000000   120.000000     0.577350     0.577350    -0.577350     0.750000     0.750000    -0.750000
   46     1.000000   180.000000     0.000000    -0.707107     0.707107     0.750000     0.750000    -0.750000
   47     1.000000   180.000000     0.707107    -0.707107     0.000000     0.750000     0.750000    -0.750000
   48     1.000000   180.000000     0.707107     0.000000    -0.707107     0.750000     0.750000    -0.750000
 
 Subroutine IBZKPT returns following result:
 ===========================================
 
 Found     84 irreducible k-points:
 
 Following reciprocal coordinates:
            Coordinates               Weight
  0.000000  0.000000  0.000000      1.000000
  0.083333  0.000000  0.000000      6.000000
  0.166667  0.000000  0.000000      6.000000
  0.250000  0.000000  0.000000      6.000000
  0.333333  0.000000  0.000000      6.000000
  0.416667  0.000000  0.000000      6.000000
  0.500000  0.000000  0.000000      3.000000
  0.083333  0.083333  0.000000     12.000000
  0.166667  0.083333  0.000000     24.000000
  0.250000  0.083333  0.000000     24.000000
  0.333333  0.083333  0.000000     24.000000
  0.416667  0.083333  0.000000     24.000000
  0.500000  0.083333  0.000000     12.000000
  0.166667  0.166667  0.000000     12.000000
  0.250000  0.166667  0.000000     24.000000
  0.333333  0.166667  0.000000     24.000000
  0.416667  0.166667  0.000000     24.000000
  0.500000  0.166667  0.000000     12.000000
  0.250000  0.250000  0.000000     12.000000
  0.333333  0.250000  0.000000     24.000000
  0.416667  0.250000  0.000000     24.000000
  0.500000  0.250000  0.000000     12.000000
  0.333333  0.333333  0.000000     12.000000
  0.416667  0.333333  0.000000     24.000000
  0.500000  0.333333  0.000000     12.000000
  0.416667  0.416667  0.000000     12.000000
  0.500000  0.416667  0.000000     12.000000
  0.500000  0.500000  0.000000      3.000000
  0.083333  0.083333  0.083333      8.000000
  0.166667  0.083333  0.083333     24.000000
  0.250000  0.083333  0.083333     24.000000
  0.333333  0.083333  0.083333     24.000000
  0.416667  0.083333  0.083333     24.000000
  0.500000  0.083333  0.083333     12.000000
  0.166667  0.166667  0.083333     24.000000
  0.250000  0.166667  0.083333     48.000000
  0.333333  0.166667  0.083333     48.000000
  0.416667  0.166667  0.083333     48.000000
  0.500000  0.166667  0.083333     24.000000
  0.250000  0.250000  0.083333     24.000000
  0.333333  0.250000  0.083333     48.000000
  0.416667  0.250000  0.083333     48.000000
  0.500000  0.250000  0.083333     24.000000
  0.333333  0.333333  0.083333     24.000000
  0.416667  0.333333  0.083333     48.000000
  0.500000  0.333333  0.083333     24.000000
  0.416667  0.416667  0.083333     24.000000
  0.500000  0.416667  0.083333     24.000000
  0.500000  0.500000  0.083333      6.000000
  0.166667  0.166667  0.166667      8.000000
  0.250000  0.166667  0.166667     24.000000
  0.333333  0.166667  0.166667     24.000000
  0.416667  0.166667  0.166667     24.000000
  0.500000  0.166667  0.166667     12.000000
  0.250000  0.250000  0.166667     24.000000
  0.333333  0.250000  0.166667     48.000000
  0.416667  0.250000  0.166667     48.000000
  0.500000  0.250000  0.166667     24.000000
  0.333333  0.333333  0.166667     24.000000
  0.416667  0.333333  0.166667     48.000000
  0.500000  0.333333  0.166667     24.000000
  0.416667  0.416667  0.166667     24.000000
  0.500000  0.416667  0.166667     24.000000
  0.500000  0.500000  0.166667      6.000000
  0.250000  0.250000  0.250000      8.000000
  0.333333  0.250000  0.250000     24.000000
  0.416667  0.250000  0.250000     24.000000
  0.500000  0.250000  0.250000     12.000000
  0.333333  0.333333  0.250000     24.000000
  0.416667  0.333333  0.250000     48.000000
  0.500000  0.333333  0.250000     24.000000
  0.416667  0.416667  0.250000     24.000000
  0.500000  0.416667  0.250000     24.000000
  0.500000  0.500000  0.250000      6.000000
  0.333333  0.333333  0.333333      8.000000
  0.416667  0.333333  0.333333     24.000000
  0.500000  0.333333  0.333333     12.000000
  0.416667  0.416667  0.333333     24.000000
  0.500000  0.416667  0.333333     24.000000
  0.500000  0.500000  0.333333      6.000000
  0.416667  0.416667  0.416667      8.000000
  0.500000  0.416667  0.416667     12.000000
  0.500000  0.500000  0.416667      6.000000
  0.500000  0.500000  0.500000      1.000000
 
 Following cartesian coordinates:
            Coordinates               Weight
  0.000000  0.000000  0.000000      1.000000
  0.024580  0.000000  0.000000      6.000000
  0.049160  0.000000  0.000000      6.000000
  0.073739  0.000000  0.000000      6.000000
  0.098319  0.000000  0.000000      6.000000
  0.122899  0.000000  0.000000      6.000000
  0.147479  0.000000  0.000000      3.000000
  0.024580  0.024580  0.000000     12.000000
  0.049160  0.024580  0.000000     24.000000
  0.073739  0.024580  0.000000     24.000000
  0.098319  0.024580  0.000000     24.000000
  0.122899  0.024580  0.000000     24.000000
  0.147479  0.024580  0.000000     12.000000
  0.049160  0.049160  0.000000     12.000000
  0.073739  0.049160  0.000000     24.000000
  0.098319  0.049160  0.000000     24.000000
  0.122899  0.049160  0.000000     24.000000
  0.147479  0.049160  0.000000     12.000000
  0.073739  0.073739  0.000000     12.000000
  0.098319  0.073739  0.000000     24.000000
  0.122899  0.073739  0.000000     24.000000
  0.147479  0.073739  0.000000     12.000000
  0.098319  0.098319  0.000000     12.000000
  0.122899  0.098319  0.000000     24.000000
  0.147479  0.098319  0.000000     12.000000
  0.122899  0.122899  0.000000     12.000000
  0.147479  0.122899  0.000000     12.000000
  0.147479  0.147479  0.000000      3.000000
  0.024580  0.024580  0.024580      8.000000
  0.049160  0.024580  0.024580     24.000000
  0.073739  0.024580  0.024580     24.000000
  0.098319  0.024580  0.024580     24.000000
  0.122899  0.024580  0.024580     24.000000
  0.147479  0.024580  0.024580     12.000000
  0.049160  0.049160  0.024580     24.000000
  0.073739  0.049160  0.024580     48.000000
  0.098319  0.049160  0.024580     48.000000
  0.122899  0.049160  0.024580     48.000000
  0.147479  0.049160  0.024580     24.000000
  0.073739  0.073739  0.024580     24.000000
  0.098319  0.073739  0.024580     48.000000
  0.122899  0.073739  0.024580     48.000000
  0.147479  0.073739  0.024580     24.000000
  0.098319  0.098319  0.024580     24.000000
  0.122899  0.098319  0.024580     48.000000
  0.147479  0.098319  0.024580     24.000000
  0.122899  0.122899  0.024580     24.000000
  0.147479  0.122899  0.024580     24.000000
  0.147479  0.147479  0.024580      6.000000
  0.049160  0.049160  0.049160      8.000000
  0.073739  0.049160  0.049160     24.000000
  0.098319  0.049160  0.049160     24.000000
  0.122899  0.049160  0.049160     24.000000
  0.147479  0.049160  0.049160     12.000000
  0.073739  0.073739  0.049160     24.000000
  0.098319  0.073739  0.049160     48.000000
  0.122899  0.073739  0.049160     48.000000
  0.147479  0.073739  0.049160     24.000000
  0.098319  0.098319  0.049160     24.000000
  0.122899  0.098319  0.049160     48.000000
  0.147479  0.098319  0.049160     24.000000
  0.122899  0.122899  0.049160     24.000000
  0.147479  0.122899  0.049160     24.000000
  0.147479  0.147479  0.049160      6.000000
  0.073739  0.073739  0.073739      8.000000
  0.098319  0.073739  0.073739     24.000000
  0.122899  0.073739  0.073739     24.000000
  0.147479  0.073739  0.073739     12.000000
  0.098319  0.098319  0.073739     24.000000
  0.122899  0.098319  0.073739     48.000000
  0.147479  0.098319  0.073739     24.000000
  0.122899  0.122899  0.073739     24.000000
  0.147479  0.122899  0.073739     24.000000
  0.147479  0.147479  0.073739      6.000000
  0.098319  0.098319  0.098319      8.000000
  0.122899  0.098319  0.098319     24.000000
  0.147479  0.098319  0.098319     12.000000
  0.122899  0.122899  0.098319     24.000000
  0.147479  0.122899  0.098319     24.000000
  0.147479  0.147479  0.098319      6.000000
  0.122899  0.122899  0.122899      8.000000
  0.147479  0.122899  0.122899     12.000000
  0.147479  0.147479  0.122899      6.000000
  0.147479  0.147479  0.147479      1.000000
 
 TETIRR: Found    854 inequivalent tetrahedra from    10368


--------------------------------------------------------------------------------------------------------




 Dimension of arrays:
   k-points           NKPTS =     84   k-points in BZ     NKDIM =     84   number of bands    NBANDS=     24
   number of dos      NEDOS =    301   number of ions     NIONS =      8
   non local maximal  LDIM  =      4   non local SUM 2l+1 LMDIM =      8
   total plane-waves  NPLWV =  13824
   max r-space proj   IRMAX =      1   max aug-charges    IRDMAX=   4329
   dimension x,y,z NGX =    24 NGY =   24 NGZ =   24
   dimension x,y,z NGXF=    48 NGYF=   48 NGZF=   48
   support grid    NGXF=    48 NGYF=   48 NGZF=   48
   ions per type =               8
   NGX,Y,Z   is equivalent  to a cutoff of  11.72, 11.72, 11.72 a.u.
   NGXF,Y,Z  is equivalent  to a cutoff of  23.43, 23.43, 23.43 a.u.

 SYSTEM =  unknown system                          
 POSCAR =  C8                                      

 Startparameter for this run:
   NWRITE =      2    write-flag & timer
   PREC   = accura    normal or accurate (medium, high low for compatibility)
   ISTART =      0    job   : 0-new  1-cont  2-samecut
   ICHARG =      2    charge: 1-file 2-atom 10-const
   ISPIN  =      1    spin polarized calculation?
   LNONCOLLINEAR =      F non collinear calculations
   LSORBIT =      F    spin-orbit coupling
   INIWAV =      1    electr: 0-lowe 1-rand  2-diag
   LASPH  =      F    aspherical Exc in radial PAW
   METAGGA=      F    non-selfconsistent MetaGGA calc.

 Electronic Relaxation 1
   ENCUT  =  400.0 eV  29.40 Ry    5.42 a.u.   5.55  5.55  5.55*2*pi/ulx,y,z
   ENINI  =  400.0     initial cutoff
   ENAUG  =  644.9 eV  augmentation charge cutoff
   NELM   =     60;   NELMIN=  2; NELMDL= -5     # of ELM steps 
   EDIFF  = 0.1E-05   stopping-criterion for ELM
   LREAL  =      F    real-space projection
   NLSPLINE    = F    spline interpolate recip. space projectors
   LCOMPAT=      F    compatible to vasp.4.4
   GGA_COMPAT  = T    GGA compatible to vasp.4.4-vasp.4.6
   LMAXPAW     = -100 max onsite density
   LMAXMIX     =    2 max onsite mixed and CHGCAR
   VOSKOWN=      0    Vosko Wilk Nusair interpolation
   ROPT   =    0.00000
 Ionic relaxation
   EDIFFG = 0.1E-04   stopping-criterion for IOM
   NSW    =      0    number of steps for IOM
   NBLOCK =      1;   KBLOCK =      1    inner block; outer block 
   IBRION =     -1    ionic relax: 0-MD 1-quasi-New 2-CG
   NFREE  =      0    steps in history (QN), initial steepest desc. (CG)
   ISIF   =      2    stress and relaxation
   IWAVPR =     10    prediction:  0-non 1-charg 2-wave 3-comb
   ISYM   =      2    0-nonsym 1-usesym 2-fastsym
   LCORR  =      T    Harris-Foulkes like correction to forces

   POTIM  = 0.0200    time-step for ionic-motion
   TEIN   =    0.0    initial temperature
   TEBEG  =    0.0;   TEEND  =   0.0 temperature during run
   SMASS  =  -3.00    Nose mass-parameter (am)
   estimated Nose-frequenzy (Omega)   =  0.10E-29 period in steps =****** mass=  -0.265E-27a.u.
   SCALEE = 1.0000    scale energy and forces
   NPACO  =    256;   APACO  = 16.0  distance and # of slots for P.C.
   PSTRESS=    0.0 pullay stress

  Mass of Ions in am
   POMASS =  12.01
  Ionic Valenz
   ZVAL   =   4.00
  Atomic Wigner-Seitz radii
   RWIGS  =  -1.00
  virtual crystal weights 
   VCA    =   1.00
   NELECT =      32.0000    total number of electrons
   NUPDOWN=      -1.0000    fix difference up-down

 DOS related values:
   EMIN   =  10.00;   EMAX   =-10.00  energy-range for DOS
   EFERMI =   0.00
   ISMEAR =    -5;   SIGMA  =   0.06  broadening in eV -4-tet -1-fermi 0-gaus

 Electronic relaxation 2 (details)
   IALGO  =     38    algorithm
   LDIAG  =      T    sub-space diagonalisation (order eigenvalues)
   LSUBROT=      F    optimize rotation matrix (better conditioning)
   TURBO    =      0    0=normal 1=particle mesh
   IRESTART =      0    0=no restart 2=restart with 2 vectors
   NREBOOT  =      0    no. of reboots
   NMIN     =      0    reboot dimension
   EREF     =   0.00    reference energy to select bands
   IMIX   =      4    mixing-type and parameters
     AMIX     =   0.40;   BMIX     =  1.00
     AMIX_MAG =   1.60;   BMIX_MAG =  1.00
     AMIN     =   0.10
     WC   =   100.;   INIMIX=   1;  MIXPRE=   1;  MAXMIX= -45

 Intra band minimization:
   WEIMIN = 0.0000     energy-eigenvalue tresh-hold
   EBREAK =  0.10E-07  absolut break condition
   DEPER  =   0.30     relativ break condition  

   TIME   =   0.40     timestep for ELM

  volume/ion in A,a.u.               =       4.94        33.32
  Fermi-wavevector in a.u.,A,eV,Ry     =   1.526075  2.883863 31.686673  2.328905
  Thomas-Fermi vector in A             =   2.634158
 
 Write flags
   LWAVE        =      F    write WAVECAR
   LDOWNSAMPLE  =      F    k-point downsampling of WAVECAR
   LCHARG       =      F    write CHGCAR
   LVTOT        =      F    write LOCPOT, total local potential
   LVHAR        =      F    write LOCPOT, Hartree potential only
   LELF         =      F    write electronic localiz. function (ELF)
   LORBIT       =      0    0 simple, 1 ext, 2 COOP (PROOUT), +10 PAW based schemes


 Dipole corrections
   LMONO  =      F    monopole corrections only (constant potential shift)
   LDIPOL =      F    correct potential (dipole corrections)
   IDIPOL =      0    1-x, 2-y, 3-z, 4-all directions 
   EPSILON=  1.0000000 bulk dielectric constant

 Exchange correlation treatment:
   GGA     =    --    GGA type
   LEXCH   =     8    internal setting for exchange type
   VOSKOWN=      0    Vosko Wilk Nusair interpolation
   LHFCALC =     F    Hartree Fock is set to
   LHFONE  =     F    Hartree Fock one center treatment
   AEXX    =    0.0000 exact exchange contribution

 Linear response parameters
   LEPSILON=     F    determine dielectric tensor
   LRPA    =     F    only Hartree local field effects (RPA)
   LNABLA  =     F    use nabla operator in PAW spheres
   LVEL    =     F    velocity operator in full k-point grid
   LINTERFAST=   F  fast interpolation
   KINTER  =     0    interpolate to denser k-point grid
   CSHIFT  =0.1000    complex shift for real part using Kramers Kronig
   OMEGAMAX=  -1.0    maximum frequency
   DEG_THRESHOLD= 0.2000000E-02 threshold for treating states as degnerate
   RTIME   =   -0.100 relaxation time in fs
  (WPLASMAI=    0.000 imaginary part of plasma frequency in eV, 0.658/RTIME)
   DFIELD  = 0.0000000 0.0000000 0.0000000 field for delta impulse in time
 
 Orbital magnetization related:
   ORBITALMAG=     F  switch on orbital magnetization
   LCHIMAG   =     F  perturbation theory with respect to B field
   DQ        =  0.001000  dq finite difference perturbation B field
   LLRAUG    =     F  two centre corrections for induced B field



--------------------------------------------------------------------------------------------------------


 Static calculation
 charge density and potential will be updated during run
 non-spin polarized calculation
 Variant of blocked Davidson
 Davidson routine will perform the subspace rotation
 perform sub-space diagonalisation
    after iterative eigenvector-optimisation
 modified Broyden-mixing scheme, WC =      100.0
 initial mixing is a Kerker type mixing with AMIX =  0.4000 and BMIX =      1.0000
 Hartree-type preconditioning will be used
 using additional bands            8
 reciprocal scheme for non local part
 calculate Harris-corrections to forces 
   (improved forces if not selfconsistent)
 use gradient corrections 
 use of overlap-Matrix (Vanderbilt PP)
 Fermi weights with tetrahedron method with Bloechl corrections


--------------------------------------------------------------------------------------------------------


  energy-cutoff  :      400.00
  volume of cell :       39.50
      direct lattice vectors                 reciprocal lattice vectors
     3.405772443  0.000000000  0.000000000     0.293619147  0.000000000  0.000000000
     0.000000000  3.405772443  0.000000000     0.000000000  0.293619147  0.000000000
     0.000000000  0.000000000  3.405772443     0.000000000  0.000000000  0.293619147

  length of vectors
     3.405772443  3.405772443  3.405772443     0.293619147  0.293619147  0.293619147


 
 k-points in units of 2pi/SCALE and weight: kpt_density=1000                        
   0.00000000  0.00000000  0.00000000       0.001
   0.02457979  0.00000000  0.00000000       0.003
   0.04915958  0.00000000  0.00000000       0.003
   0.07373937  0.00000000  0.00000000       0.003
   0.09831917  0.00000000  0.00000000       0.003
   0.12289896  0.00000000  0.00000000       0.003
   0.14747875  0.00000000  0.00000000       0.002
   0.02457979  0.02457979  0.00000000       0.007
   0.04915958  0.02457979  0.00000000       0.014
   0.07373937  0.02457979  0.00000000       0.014
   0.09831917  0.02457979  0.00000000       0.014
   0.12289896  0.02457979  0.00000000       0.014
   0.14747875  0.02457979  0.00000000       0.007
   0.04915958  0.04915958  0.00000000       0.007
   0.07373937  0.04915958  0.00000000       0.014
   0.09831917  0.04915958  0.00000000       0.014
   0.12289896  0.04915958  0.00000000       0.014
   0.14747875  0.04915958  0.00000000       0.007
   0.07373937  0.07373937  0.00000000       0.007
   0.09831917  0.07373937  0.00000000       0.014
   0.12289896  0.07373937  0.00000000       0.014
   0.14747875  0.07373937  0.00000000       0.007
   0.09831917  0.09831917  0.00000000       0.007
   0.12289896  0.09831917  0.00000000       0.014
   0.14747875  0.09831917  0.00000000       0.007
   0.12289896  0.12289896  0.00000000       0.007
   0.14747875  0.12289896  0.00000000       0.007
   0.14747875  0.14747875  0.00000000       0.002
   0.02457979  0.02457979  0.02457979       0.005
   0.04915958  0.02457979  0.02457979       0.014
   0.07373937  0.02457979  0.02457979       0.014
   0.09831917  0.02457979  0.02457979       0.014
   0.12289896  0.02457979  0.02457979       0.014
   0.14747875  0.02457979  0.02457979       0.007
   0.04915958  0.04915958  0.02457979       0.014
   0.07373937  0.04915958  0.02457979       0.028
   0.09831917  0.04915958  0.02457979       0.028
   0.12289896  0.04915958  0.02457979       0.028
   0.14747875  0.04915958  0.02457979       0.014
   0.07373937  0.07373937  0.02457979       0.014
   0.09831917  0.07373937  0.02457979       0.028
   0.12289896  0.07373937  0.02457979       0.028
   0.14747875  0.07373937  0.02457979       0.014
   0.09831917  0.09831917  0.02457979       0.014
   0.12289896  0.09831917  0.02457979       0.028
   0.14747875  0.09831917  0.02457979       0.014
   0.12289896  0.12289896  0.02457979       0.014
   0.14747875  0.12289896  0.02457979       0.014
   0.14747875  0.14747875  0.02457979       0.003
   0.04915958  0.04915958  0.04915958       0.005
   0.07373937  0.04915958  0.04915958       0.014
   0.09831917  0.04915958  0.04915958       0.014
   0.12289896  0.04915958  0.04915958       0.014
   0.14747875  0.04915958  0.04915958       0.007
   0.07373937  0.07373937  0.04915958       0.014
   0.09831917  0.07373937  0.04915958       0.028
   0.12289896  0.07373937  0.04915958       0.028
   0.14747875  0.07373937  0.04915958       0.014
   0.09831917  0.09831917  0.04915958       0.014
   0.12289896  0.09831917  0.04915958       0.028
   0.14747875  0.09831917  0.04915958       0.014
   0.12289896  0.12289896  0.04915958       0.014
   0.14747875  0.12289896  0.04915958       0.014
   0.14747875  0.14747875  0.04915958       0.003
   0.07373937  0.07373937  0.07373937       0.005
   0.09831917  0.07373937  0.07373937       0.014
   0.12289896  0.07373937  0.07373937       0.014
   0.14747875  0.07373937  0.07373937       0.007
   0.09831917  0.09831917  0.07373937       0.014
   0.12289896  0.09831917  0.07373937       0.028
   0.14747875  0.09831917  0.07373937       0.014
   0.12289896  0.12289896  0.07373937       0.014
   0.14747875  0.12289896  0.07373937       0.014
   0.14747875  0.14747875  0.07373937       0.003
   0.09831917  0.09831917  0.09831917       0.005
   0.12289896  0.09831917  0.09831917       0.014
   0.14747875  0.09831917  0.09831917       0.007
   0.12289896  0.12289896  0.09831917       0.014
   0.14747875  0.12289896  0.09831917       0.014
   0.14747875  0.14747875  0.09831917       0.003
   0.12289896  0.12289896  0.12289896       0.005
   0.14747875  0.12289896  0.12289896       0.007
   0.14747875  0.14747875  0.12289896       0.003
   0.14747875  0.14747875  0.14747875       0.001
 
 k-points in reciprocal lattice and weights: kpt_density=1000                        
   0.00000000  0.00000000  0.00000000       0.001
   0.08333333  0.00000000  0.00000000       0.003
   0.16666667  0.00000000  0.00000000       0.003
   0.25000000  0.00000000  0.00000000       0.003
   0.33333333  0.00000000  0.00000000       0.003
   0.41666667  0.00000000  0.00000000       0.003
   0.50000000  0.00000000  0.00000000       0.002
   0.08333333  0.08333333  0.00000000       0.007
   0.16666667  0.08333333  0.00000000       0.014
   0.25000000  0.08333333  0.00000000       0.014
   0.33333333  0.08333333  0.00000000       0.014
   0.41666667  0.08333333  0.00000000       0.014
   0.50000000  0.08333333  0.00000000       0.007
   0.16666667  0.16666667  0.00000000       0.007
   0.25000000  0.16666667  0.00000000       0.014
   0.33333333  0.16666667  0.00000000       0.014
   0.41666667  0.16666667  0.00000000       0.014
   0.50000000  0.16666667  0.00000000       0.007
   0.25000000  0.25000000  0.00000000       0.007
   0.33333333  0.25000000  0.00000000       0.014
   0.41666667  0.25000000  0.00000000       0.014
   0.50000000  0.25000000  0.00000000       0.007
   0.33333333  0.33333333  0.00000000       0.007
   0.41666667  0.33333333  0.00000000       0.014
   0.50000000  0.33333333  0.00000000       0.007
   0.41666667  0.41666667  0.00000000       0.007
   0.50000000  0.41666667  0.00000000       0.007
   0.50000000  0.50000000  0.00000000       0.002
   0.08333333  0.08333333  0.08333333       0.005
   0.16666667  0.08333333  0.08333333       0.014
   0.25000000  0.08333333  0.08333333       0.014
   0.33333333  0.08333333  0.08333333       0.014
   0.41666667  0.08333333  0.08333333       0.014
   0.50000000  0.08333333  0.08333333       0.007
   0.16666667  0.16666667  0.08333333       0.014
   0.25000000  0.16666667  0.08333333       0.028
   0.33333333  0.16666667  0.08333333       0.028
   0.41666667  0.16666667  0.08333333       0.028
   0.50000000  0.16666667  0.08333333       0.014
   0.25000000  0.25000000  0.08333333       0.014
   0.33333333  0.25000000  0.08333333       0.028
   0.41666667  0.25000000  0.08333333       0.028
   0.50000000  0.25000000  0.08333333       0.014
   0.33333333  0.33333333  0.08333333       0.014
   0.41666667  0.33333333  0.08333333       0.028
   0.50000000  0.33333333  0.08333333       0.014
   0.41666667  0.41666667  0.08333333       0.014
   0.50000000  0.41666667  0.08333333       0.014
   0.50000000  0.50000000  0.08333333       0.003
   0.16666667  0.16666667  0.16666667       0.005
   0.25000000  0.16666667  0.16666667       0.014
   0.33333333  0.16666667  0.16666667       0.014
   0.41666667  0.16666667  0.16666667       0.014
   0.50000000  0.16666667  0.16666667       0.007
   0.25000000  0.25000000  0.16666667       0.014
   0.33333333  0.25000000  0.16666667       0.028
   0.41666667  0.25000000  0.16666667       0.028
   0.50000000  0.25000000  0.16666667       0.014
   0.33333333  0.33333333  0.16666667       0.014
   0.41666667  0.33333333  0.16666667       0.028
   0.50000000  0.33333333  0.16666667       0.014
   0.41666667  0.41666667  0.16666667       0.014
   0.50000000  0.41666667  0.16666667       0.014
   0.50000000  0.50000000  0.16666667       0.003
   0.25000000  0.25000000  0.25000000       0.005
   0.33333333  0.25000000  0.25000000       0.014
   0.41666667  0.25000000  0.25000000       0.014
   0.50000000  0.25000000  0.25000000       0.007
   0.33333333  0.33333333  0.25000000       0.014
   0.41666667  0.33333333  0.25000000       0.028
   0.50000000  0.33333333  0.25000000       0.014
   0.41666667  0.41666667  0.25000000       0.014
   0.50000000  0.41666667  0.25000000       0.014
   0.50000000  0.50000000  0.25000000       0.003
   0.33333333  0.33333333  0.33333333       0.005
   0.41666667  0.33333333  0.33333333       0.014
   0.50000000  0.33333333  0.33333333       0.007
   0.41666667  0.41666667  0.33333333       0.014
   0.50000000  0.41666667  0.33333333       0.014
   0.50000000  0.50000000  0.33333333       0.003
   0.41666667  0.41666667  0.41666667       0.005
   0.50000000  0.41666667  0.41666667       0.007
   0.50000000  0.50000000  0.41666667       0.003
   0.50000000  0.50000000  0.50000000       0.001
 
 position of ions in fractional coordinates (direct lattice) 
   0.25000000  0.75000000  0.25000000
   0.00000000  0.00000000  0.50000000
   0.25000000  0.25000000  0.75000000
   0.00000000  0.50000000  0.00000000
   0.75000000  0.75000000  0.75000000
   0.50000000  0.00000000  0.00000000
   0.75000000  0.25000000  0.25000000
   0.50000000  0.50000000  0.50000000
 
 position of ions in cartesian coordinates  (Angst):
   0.85144311  2.55432933  0.85144311
   0.00000000  0.00000000  1.70288622
   0.85144311  0.85144311  2.55432933
   0.00000000  1.70288622  0.00000000
   2.55432933  2.55432933  2.55432933
   1.70288622  0.00000000  0.00000000
   2.55432933  0.85144311  0.85144311
   1.70288622  1.70288622  1.70288622
 


--------------------------------------------------------------------------------------------------------


 k-point  1 :   0.0000 0.0000 0.0000  plane waves:     739
 k-point  2 :   0.0833 0.0000 0.0000  plane waves:     739
 k-point  3 :   0.1667 0.0000 0.0000  plane waves:     735
 k-point  4 :   0.2500 0.0000 0.0000  plane waves:     719
 k-point  5 :   0.3333 0.0000 0.0000  plane waves:     723
 k-point  6 :   0.4167 0.0000 0.0000  plane waves:     715
 k-point  7 :   0.5000 0.0000 0.0000  plane waves:     708
 k-point  8 :   0.0833 0.0833 0.0000  plane waves:     732
 k-point  9 :   0.1667 0.0833 0.0000  plane waves:     725
 k-point 10 :   0.2500 0.0833 0.0000  plane waves:     716
 k-point 11 :   0.3333 0.0833 0.0000  plane waves:     717
 k-point 12 :   0.4167 0.0833 0.0000  plane waves:     714
 k-point 13 :   0.5000 0.0833 0.0000  plane waves:     722
 k-point 14 :   0.1667 0.1667 0.0000  plane waves:     720
 k-point 15 :   0.2500 0.1667 0.0000  plane waves:     718
 k-point 16 :   0.3333 0.1667 0.0000  plane waves:     728
 k-point 17 :   0.4167 0.1667 0.0000  plane waves:     718
 k-point 18 :   0.5000 0.1667 0.0000  plane waves:     718
 k-point 19 :   0.2500 0.2500 0.0000  plane waves:     722
 k-point 20 :   0.3333 0.2500 0.0000  plane waves:     729
 k-point 21 :   0.4167 0.2500 0.0000  plane waves:     720
 k-point 22 :   0.5000 0.2500 0.0000  plane waves:     724
 k-point 23 :   0.3333 0.3333 0.0000  plane waves:     714
 k-point 24 :   0.4167 0.3333 0.0000  plane waves:     721
 k-point 25 :   0.5000 0.3333 0.0000  plane waves:     712
 k-point 26 :   0.4167 0.4167 0.0000  plane waves:     712
 k-point 27 :   0.5000 0.4167 0.0000  plane waves:     714
 k-point 28 :   0.5000 0.5000 0.0000  plane waves:     720
 k-point 29 :   0.0833 0.0833 0.0833  plane waves:     730
 k-point 30 :   0.1667 0.0833 0.0833  plane waves:     717
 k-point 31 :   0.2500 0.0833 0.0833  plane waves:     717
 k-point 32 :   0.3333 0.0833 0.0833  plane waves:     721
 k-point 33 :   0.4167 0.0833 0.0833  plane waves:     720
 k-point 34 :   0.5000 0.0833 0.0833  plane waves:     718
 k-point 35 :   0.1667 0.1667 0.0833  plane waves:     716
 k-point 36 :   0.2500 0.1667 0.0833  plane waves:     719
 k-point 37 :   0.3333 0.1667 0.0833  plane waves:     723
 k-point 38 :   0.4167 0.1667 0.0833  plane waves:     719
 k-point 39 :   0.5000 0.1667 0.0833  plane waves:     722
 k-point 40 :   0.2500 0.2500 0.0833  plane waves:     718
 k-point 41 :   0.3333 0.2500 0.0833  plane waves:     718
 k-point 42 :   0.4167 0.2500 0.0833  plane waves:     715
 k-point 43 :   0.5000 0.2500 0.0833  plane waves:     718
 k-point 44 :   0.3333 0.3333 0.0833  plane waves:     720
 k-point 45 :   0.4167 0.3333 0.0833  plane waves:     719
 k-point 46 :   0.5000 0.3333 0.0833  plane waves:     716
 k-point 47 :   0.4167 0.4167 0.0833  plane waves:     715
 k-point 48 :   0.5000 0.4167 0.0833  plane waves:     720
 k-point 49 :   0.5000 0.5000 0.0833  plane waves:     720
 k-point 50 :   0.1667 0.1667 0.1667  plane waves:     724
 k-point 51 :   0.2500 0.1667 0.1667  plane waves:     719
 k-point 52 :   0.3333 0.1667 0.1667  plane waves:     725
 k-point 53 :   0.4167 0.1667 0.1667  plane waves:     720
 k-point 54 :   0.5000 0.1667 0.1667  plane waves:     716
 k-point 55 :   0.2500 0.2500 0.1667  plane waves:     717
 k-point 56 :   0.3333 0.2500 0.1667  plane waves:     718
 k-point 57 :   0.4167 0.2500 0.1667  plane waves:     723
 k-point 58 :   0.5000 0.2500 0.1667  plane waves:     720
 k-point 59 :   0.3333 0.3333 0.1667  plane waves:     718
 k-point 60 :   0.4167 0.3333 0.1667  plane waves:     717
 k-point 61 :   0.5000 0.3333 0.1667  plane waves:     718
 k-point 62 :   0.4167 0.4167 0.1667  plane waves:     709
 k-point 63 :   0.5000 0.4167 0.1667  plane waves:     716
 k-point 64 :   0.5000 0.5000 0.1667  plane waves:     716
 k-point 65 :   0.2500 0.2500 0.2500  plane waves:     729
 k-point 66 :   0.3333 0.2500 0.2500  plane waves:     718
 k-point 67 :   0.4167 0.2500 0.2500  plane waves:     719
 k-point 68 :   0.5000 0.2500 0.2500  plane waves:     706
 k-point 69 :   0.3333 0.3333 0.2500  plane waves:     719
 k-point 70 :   0.4167 0.3333 0.2500  plane waves:     712
 k-point 71 :   0.5000 0.3333 0.2500  plane waves:     714
 k-point 72 :   0.4167 0.4167 0.2500  plane waves:     709
 k-point 73 :   0.5000 0.4167 0.2500  plane waves:     712
 k-point 74 :   0.5000 0.5000 0.2500  plane waves:     708
 k-point 75 :   0.3333 0.3333 0.3333  plane waves:     717
 k-point 76 :   0.4167 0.3333 0.3333  plane waves:     705
 k-point 77 :   0.5000 0.3333 0.3333  plane waves:     712
 k-point 78 :   0.4167 0.4167 0.3333  plane waves:     707
 k-point 79 :   0.5000 0.4167 0.3333  plane waves:     700
 k-point 80 :   0.5000 0.5000 0.3333  plane waves:     696
 k-point 81 :   0.4167 0.4167 0.4167  plane waves:     696
 k-point 82 :   0.5000 0.4167 0.4167  plane waves:     700
 k-point 83 :   0.5000 0.5000 0.4167  plane waves:     704
 k-point 84 :   0.5000 0.5000 0.5000  plane waves:     720

 maximum and minimum number of plane-waves per node :       192      170

 maximum number of plane-waves:       739
 maximum index in each direction: 
   IXMAX=    5   IYMAX=    5   IZMAX=    5
   IXMIN=   -6   IYMIN=   -6   IZMIN=   -6


 parallel 3D FFT for wavefunctions:
    minimum data exchange during FFTs selected (reduces bandwidth)
 parallel 3D FFT for charge:
    minimum data exchange during FFTs selected (reduces bandwidth)


 total amount of memory used by VASP MPI-rank0    33456. kBytes
=======================================================================

   base      :      30000. kBytes
   nonl-proj :       1012. kBytes
   fftplans  :        345. kBytes
   grid      :        481. kBytes
   one-center:          6. kBytes
   wavefun   :       1612. kBytes
 
     INWAV:  cpu time    0.0004: real time    0.0005
 Broyden mixing: mesh for mixing (old mesh)
   NGX = 11   NGY = 11   NGZ = 11
  (NGX  = 48   NGY  = 48   NGZ  = 48)
  gives a total of   1331 points

 initial charge density was supplied:
 charge density of overlapping atoms calculated
 number of electron      32.0000000 magnetization 
 keeping initial charge density in first step


--------------------------------------------------------------------------------------------------------


 Maximum index for augmentation-charges          301 (set IRDMAX)


--------------------------------------------------------------------------------------------------------


 First call to EWALD:  gamma=   0.520
 Maximum number of real-space cells 3x 3x 3
 Maximum number of reciprocal cells 3x 3x 3

    FEWALD:  cpu time    0.0053: real time    0.0053


--------------------------------------- Iteration      1(   1)  ---------------------------------------


    POTLOK:  cpu time    0.0247: real time    0.0292
    SETDIJ:  cpu time    0.0065: real time    0.0065
     EDDAV:  cpu time    3.5921: real time    3.6031
 BZINTS: Fermi energy: 21.134476; 32.000000 electrons
         Band energy: 158.255072;  BLOECHL correction: -0.291935
       DOS:  cpu time    0.1675: real time    0.1675
    --------------------------------------------
      LOOP:  cpu time    3.7909: real time    3.8064

 eigenvalue-minimisations  :  4032
 total energy-change (2. order) : 0.5964412E+02  (-0.1473433E+04)
 number of electron      32.0000000 magnetization 
 augmentation part       32.0000000 magnetization 

 Free energy of the ion-electron system (eV)
  ---------------------------------------------------
  alpha Z        PSCENC =       132.00336035
  Ewald energy   TEWEN  =     -1457.64287634
  -Hartree energ DENC   =       -58.86165236
  -exchange      EXHF   =         0.00000000
  -V(xc)+E(xc)   XCENC  =       118.07626470
  PAW double counting   =       302.65154477     -311.85538214
  entropy T*S    EENTRO =         0.00000000
  eigenvalues    EBANDS =       158.25507185
  atomic energy  EATOM  =      1177.01779097
  Solvation  Ediel_sol  =         0.00000000
  ---------------------------------------------------
  free energy    TOTEN  =        59.64412181 eV

  energy without entropy =       59.64412181  energy(sigma->0) =       59.64412181


--------------------------------------------------------------------------------------------------------




--------------------------------------- Iteration      1(   2)  ---------------------------------------


     EDDAV:  cpu time    4.5535: real time    4.5543
 BZINTS: Fermi energy: 11.013161; 32.000000 electrons
         Band energy:  27.623606;  BLOECHL correction:  0.000000
       DOS:  cpu time    0.0403: real time    0.0403
    --------------------------------------------
      LOOP:  cpu time    4.5937: real time    4.5946

 eigenvalue-minimisations  :  5624
 total energy-change (2. order) :-0.1306315E+03  (-0.1242859E+03)
 number of electron      32.0000000 magnetization 
 augmentation part       32.0000000 magnetization 

 Free energy of the ion-electron system (eV)
  ---------------------------------------------------
  alpha Z        PSCENC =       132.00336035
  Ewald energy   TEWEN  =     -1457.64287634
  -Hartree energ DENC   =       -58.86165236
  -exchange      EXHF   =         0.00000000
  -V(xc)+E(xc)   XCENC  =       118.07626470
  PAW double counting   =       302.65154477     -311.85538214
  entropy T*S    EENTRO =         0.00000000
  eigenvalues    EBANDS =        27.62360555
  atomic energy  EATOM  =      1177.01779097
  Solvation  Ediel_sol  =         0.00000000
  ---------------------------------------------------
  free energy    TOTEN  =       -70.98734449 eV

  energy without entropy =      -70.98734449  energy(sigma->0) =      -70.98734449


--------------------------------------------------------------------------------------------------------




--------------------------------------- Iteration      1(   3)  ---------------------------------------


     EDDAV:  cpu time    4.3489: real time    4.3522
 BZINTS: Fermi energy: 10.195860; 32.000000 electrons
         Band energy:  23.524444;  BLOECHL correction:  0.000000
       DOS:  cpu time    0.0359: real time    0.0359
    --------------------------------------------
      LOOP:  cpu time    4.3848: real time    4.3881

 eigenvalue-minimisations  :  5200
 total energy-change (2. order) :-0.4099161E+01  (-0.4080752E+01)
 number of electron      32.0000000 magnetization 
 augmentation part       32.0000000 magnetization 

 Free energy of the ion-electron system (eV)
  ---------------------------------------------------
  alpha Z        PSCENC =       132.00336035
  Ewald energy   TEWEN  =     -1457.64287634
  -Hartree energ DENC   =       -58.86165236
  -exchange      EXHF   =         0.00000000
  -V(xc)+E(xc)   XCENC  =       118.07626470
  PAW double counting   =       302.65154477     -311.85538214
  entropy T*S    EENTRO =         0.00000000
  eigenvalues    EBANDS =        23.52444430
  atomic energy  EATOM  =      1177.01779097
  Solvation  Ediel_sol  =         0.00000000
  ---------------------------------------------------
  free energy    TOTEN  =       -75.08650574 eV

  energy without entropy =      -75.08650574  energy(sigma->0) =      -75.08650574


--------------------------------------------------------------------------------------------------------




--------------------------------------- Iteration      1(   4)  ---------------------------------------


     EDDAV:  cpu time    4.2227: real time    4.2235
 BZINTS: Fermi energy: 10.180593; 32.000000 electrons
         Band energy:  23.489277;  BLOECHL correction:  0.000000
       DOS:  cpu time    0.0359: real time    0.0359
    --------------------------------------------
      LOOP:  cpu time    4.2586: real time    4.2594

 eigenvalue-minimisations  :  4936
 total energy-change (2. order) :-0.3516703E-01  (-0.3514309E-01)
 number of electron      32.0000000 magnetization 
 augmentation part       32.0000000 magnetization 

 Free energy of the ion-electron system (eV)
  ---------------------------------------------------
  alpha Z        PSCENC =       132.00336035
  Ewald energy   TEWEN  =     -1457.64287634
  -Hartree energ DENC   =       -58.86165236
  -exchange      EXHF   =         0.00000000
  -V(xc)+E(xc)   XCENC  =       118.07626470
  PAW double counting   =       302.65154477     -311.85538214
  entropy T*S    EENTRO =         0.00000000
  eigenvalues    EBANDS =        23.48927727
  atomic energy  EATOM  =      1177.01779097
  Solvation  Ediel_sol  =         0.00000000
  ---------------------------------------------------
  free energy    TOTEN  =       -75.12167277 eV

  energy without entropy =      -75.12167277  energy(sigma->0) =      -75.12167277


--------------------------------------------------------------------------------------------------------




--------------------------------------- Iteration      1(   5)  ---------------------------------------


     EDDAV:  cpu time    4.3352: real time    4.3359
 BZINTS: Fermi energy: 10.264047; 32.000000 electrons
         Band energy:  23.488706;  BLOECHL correction:  0.000000
       DOS:  cpu time    0.0405: real time    0.0405
    CHARGE:  cpu time    0.1138: real time    0.1138
    MIXING:  cpu time    0.0015: real time    0.0015
    --------------------------------------------
      LOOP:  cpu time    4.4909: real time    4.4916

 eigenvalue-minimisations  :  5184
 total energy-change (2. order) :-0.5715337E-03  (-0.5714044E-03)
 number of electron      31.9999979 magnetization 
 augmentation part        0.9058716 magnetization 

 Broyden mixing:
  rms(total) = 0.11218E+01    rms(broyden)= 0.11216E+01
  rms(prec ) = 0.27276E+01
  weight for this iteration     100.00

 Free energy of the ion-electron system (eV)
  ---------------------------------------------------
  alpha Z        PSCENC =       132.00336035
  Ewald energy   TEWEN  =     -1457.64287634
  -Hartree energ DENC   =       -58.86165236
  -exchange      EXHF   =         0.00000000
  -V(xc)+E(xc)   XCENC  =       118.07626470
  PAW double counting   =       302.65154477     -311.85538214
  entropy T*S    EENTRO =         0.00000000
  eigenvalues    EBANDS =        23.48870573
  atomic energy  EATOM  =      1177.01779097
  Solvation  Ediel_sol  =         0.00000000
  ---------------------------------------------------
  free energy    TOTEN  =       -75.12224431 eV

  energy without entropy =      -75.12224431  energy(sigma->0) =      -75.12224431


--------------------------------------------------------------------------------------------------------




--------------------------------------- Iteration      1(   6)  ---------------------------------------


    POTLOK:  cpu time    0.0189: real time    0.0193
    SETDIJ:  cpu time    0.0059: real time    0.0059
     EDDAV:  cpu time    3.8745: real time    3.8748
 BZINTS: Fermi energy: 11.068270; 32.000000 electrons
         Band energy:  42.344566;  BLOECHL correction:  0.000000
       DOS:  cpu time    0.0358: real time    0.0358
    CHARGE:  cpu time    0.1156: real time    0.1156
    MIXING:  cpu time    0.0017: real time    0.0017
    --------------------------------------------
      LOOP:  cpu time    4.0524: real time    4.0531

 eigenvalue-minimisations  :  4432
 total energy-change (2. order) : 0.2812347E+01  (-0.1810119E+00)
 number of electron      31.9999979 magnetization 
 augmentation part        0.8829281 magnetization 

 Broyden mixing:
  rms(total) = 0.60269E+00    rms(broyden)= 0.60268E+00
  rms(prec ) = 0.14525E+01
  weight for this iteration     100.00

 eigenvalues of (default mixing * dielectric matrix)
  average eigenvalue GAMMA=   2.1245
  2.1245

 Free energy of the ion-electron system (eV)
  ---------------------------------------------------
  alpha Z        PSCENC =       132.00336035
  Ewald energy   TEWEN  =     -1457.64287634
  -Hartree energ DENC   =       -75.76088787
  -exchange      EXHF   =         0.00000000
  -V(xc)+E(xc)   XCENC  =       119.68019871
  PAW double counting   =       422.80334303     -432.75539294
  entropy T*S    EENTRO =         0.00000000
  eigenvalues    EBANDS =        42.34456643
  atomic energy  EATOM  =      1177.01779097
  Solvation  Ediel_sol  =         0.00000000
  ---------------------------------------------------
  free energy    TOTEN  =       -72.30989765 eV

  energy without entropy =      -72.30989765  energy(sigma->0) =      -72.30989765


--------------------------------------------------------------------------------------------------------




--------------------------------------- Iteration      1(   7)  ---------------------------------------


    POTLOK:  cpu time    0.0197: real time    0.0200
    SETDIJ:  cpu time    0.0057: real time    0.0057
     EDDAV:  cpu time    3.9749: real time    3.9752
 BZINTS: Fermi energy: 11.925447; 32.000000 electrons
         Band energy:  63.574707;  BLOECHL correction:  0.000000
       DOS:  cpu time    0.0363: real time    0.0363
    CHARGE:  cpu time    0.1196: real time    0.1196
    MIXING:  cpu time    0.0018: real time    0.0018
    --------------------------------------------
      LOOP:  cpu time    4.1579: real time    4.1586

 eigenvalue-minimisations  :  4560
 total energy-change (2. order) : 0.9443392E+00  (-0.1972213E+00)
 number of electron      31.9999980 magnetization 
 augmentation part        0.8580903 magnetization 

 Broyden mixing:
  rms(total) = 0.72963E-01    rms(broyden)= 0.72639E-01
  rms(prec ) = 0.12763E+00
  weight for this iteration     100.00

 eigenvalues of (default mixing * dielectric matrix)
  average eigenvalue GAMMA=   2.2678
  2.0003  2.5353

 Free energy of the ion-electron system (eV)
  ---------------------------------------------------
  alpha Z        PSCENC =       132.00336035
  Ewald energy   TEWEN  =     -1457.64287634
  -Hartree energ DENC   =       -97.39272253
  -exchange      EXHF   =         0.00000000
  -V(xc)+E(xc)   XCENC  =       121.74420571
  PAW double counting   =       590.85406468     -601.52408843
  entropy T*S    EENTRO =         0.00000000
  eigenvalues    EBANDS =        63.57470711
  atomic energy  EATOM  =      1177.01779097
  Solvation  Ediel_sol  =         0.00000000
  ---------------------------------------------------
  free energy    TOTEN  =       -71.36555846 eV

  energy without entropy =      -71.36555846  energy(sigma->0) =      -71.36555846


--------------------------------------------------------------------------------------------------------




--------------------------------------- Iteration      1(   8)  ---------------------------------------


    POTLOK:  cpu time    0.0199: real time    0.1173
    SETDIJ:  cpu time    0.0058: real time    0.0058
     EDDAV:  cpu time    4.2393: real time    4.2397
 BZINTS: Fermi energy: 11.936085; 32.000000 electrons
         Band energy:  64.009970;  BLOECHL correction:  0.000000
       DOS:  cpu time    0.0359: real time    0.0359
    CHARGE:  cpu time    0.1128: real time    0.1128
    MIXING:  cpu time    0.0020: real time    0.0020
    --------------------------------------------
      LOOP:  cpu time    4.4156: real time    4.5134

 eigenvalue-minimisations  :  4936
 total energy-change (2. order) :-0.9070828E-02  (-0.3562514E-02)
 number of electron      31.9999980 magnetization 
 augmentation part        0.8578882 magnetization 

 Broyden mixing:
  rms(total) = 0.91400E-02    rms(broyden)= 0.90300E-02
  rms(prec ) = 0.16127E-01
  weight for this iteration     100.00

 eigenvalues of (default mixing * dielectric matrix)
  average eigenvalue GAMMA=   2.0954
  1.4286  2.7032  2.1545

 Free energy of the ion-electron system (eV)
  ---------------------------------------------------
  alpha Z        PSCENC =       132.00336035
  Ewald energy   TEWEN  =     -1457.64287634
  -Hartree energ DENC   =       -98.03849796
  -exchange      EXHF   =         0.00000000
  -V(xc)+E(xc)   XCENC  =       121.81175114
  PAW double counting   =       608.73710643     -619.27323373
  entropy T*S    EENTRO =         0.00000000
  eigenvalues    EBANDS =        64.00996984
  atomic energy  EATOM  =      1177.01779097
  Solvation  Ediel_sol  =         0.00000000
  ---------------------------------------------------
  free energy    TOTEN  =       -71.37462929 eV

  energy without entropy =      -71.37462929  energy(sigma->0) =      -71.37462929


--------------------------------------------------------------------------------------------------------




--------------------------------------- Iteration      1(   9)  ---------------------------------------


    POTLOK:  cpu time    0.0193: real time    0.0199
    SETDIJ:  cpu time    0.0057: real time    0.0057
     EDDAV:  cpu time    4.1152: real time    4.1156
 BZINTS: Fermi energy: 11.929460; 32.000000 electrons
         Band energy:  63.889280;  BLOECHL correction:  0.000000
       DOS:  cpu time    0.0362: real time    0.0362
    CHARGE:  cpu time    0.1126: real time    0.1126
    MIXING:  cpu time    0.0020: real time    0.0020
    --------------------------------------------
      LOOP:  cpu time    4.2912: real time    4.2921

 eigenvalue-minimisations  :  4800
 total energy-change (2. order) :-0.1869949E-03  (-0.4314619E-04)
 number of electron      31.9999980 magnetization 
 augmentation part        0.8579102 magnetization 

 Broyden mixing:
  rms(total) = 0.29855E-02    rms(broyden)= 0.29766E-02
  rms(prec ) = 0.51405E-02
  weight for this iteration     100.00

 eigenvalues of (default mixing * dielectric matrix)
  average eigenvalue GAMMA=   2.0252
  0.9701  2.7272  2.4098  1.9936

 Free energy of the ion-electron system (eV)
  ---------------------------------------------------
  alpha Z        PSCENC =       132.00336035
  Ewald energy   TEWEN  =     -1457.64287634
  -Hartree energ DENC   =       -97.92646186
  -exchange      EXHF   =         0.00000000
  -V(xc)+E(xc)   XCENC  =       121.80121045
  PAW double counting   =       608.27932467     -618.79644425
  entropy T*S    EENTRO =         0.00000000
  eigenvalues    EBANDS =        63.88927971
  atomic energy  EATOM  =      1177.01779097
  Solvation  Ediel_sol  =         0.00000000
  ---------------------------------------------------
  free energy    TOTEN  =       -71.37481629 eV

  energy without entropy =      -71.37481629  energy(sigma->0) =      -71.37481629


--------------------------------------------------------------------------------------------------------




--------------------------------------- Iteration      1(  10)  ---------------------------------------


    POTLOK:  cpu time    0.0193: real time    0.0196
    SETDIJ:  cpu time    0.0057: real time    0.0057
     EDDAV:  cpu time    4.1901: real time    4.1905
 BZINTS: Fermi energy: 11.928005; 32.000000 electrons
         Band energy:  63.917216;  BLOECHL correction:  0.000000
       DOS:  cpu time    0.0359: real time    0.0359
    CHARGE:  cpu time    0.1159: real time    0.1159
    MIXING:  cpu time    0.0020: real time    0.0020
    --------------------------------------------
      LOOP:  cpu time    4.3690: real time    4.3696

 eigenvalue-minimisations  :  4936
 total energy-change (2. order) :-0.4381388E-04  (-0.3238761E-05)
 number of electron      31.9999980 magnetization 
 augmentation part        0.8578922 magnetization 

 Broyden mixing:
  rms(total) = 0.29447E-03    rms(broyden)= 0.28992E-03
  rms(prec ) = 0.70603E-03
  weight for this iteration     100.00

 eigenvalues of (default mixing * dielectric matrix)
  average eigenvalue GAMMA=   1.9405
  2.8943  2.5545  2.0576  0.9950  1.2009

 Free energy of the ion-electron system (eV)
  ---------------------------------------------------
  alpha Z        PSCENC =       132.00336035
  Ewald energy   TEWEN  =     -1457.64287634
  -Hartree energ DENC   =       -97.95574041
  -exchange      EXHF   =         0.00000000
  -V(xc)+E(xc)   XCENC  =       121.80353797
  PAW double counting   =       607.41748430     -617.93563264
  entropy T*S    EENTRO =         0.00000000
  eigenvalues    EBANDS =        63.91721568
  atomic energy  EATOM  =      1177.01779097
  Solvation  Ediel_sol  =         0.00000000
  ---------------------------------------------------
  free energy    TOTEN  =       -71.37486010 eV

  energy without entropy =      -71.37486010  energy(sigma->0) =      -71.37486010


--------------------------------------------------------------------------------------------------------




--------------------------------------- Iteration      1(  11)  ---------------------------------------


    POTLOK:  cpu time    0.0195: real time    0.0199
    SETDIJ:  cpu time    0.0059: real time    0.0059
     EDDAV:  cpu time    3.4714: real time    3.4718
 BZINTS: Fermi energy: 11.926547; 32.000000 electrons
         Band energy:  63.929629;  BLOECHL correction:  0.000000
       DOS:  cpu time    0.0362: real time    0.0362
    --------------------------------------------
      LOOP:  cpu time    3.5331: real time    3.5338

 eigenvalue-minimisations  :  3584
 total energy-change (2. order) :-0.8262818E-06  (-0.9548670E-07)
 number of electron      31.9999980 magnetization 
 augmentation part        0.8578922 magnetization 

 Free energy of the ion-electron system (eV)
  ---------------------------------------------------
  alpha Z        PSCENC =       132.00336035
  Ewald energy   TEWEN  =     -1457.64287634
  -Hartree energ DENC   =       -97.96878472
  -exchange      EXHF   =         0.00000000
  -V(xc)+E(xc)   XCENC  =       121.80473337
  PAW double counting   =       607.41637522     -617.93508877
  entropy T*S    EENTRO =         0.00000000
  eigenvalues    EBANDS =        63.92962899
  atomic energy  EATOM  =      1177.01779097
  Solvation  Ediel_sol  =         0.00000000
  ---------------------------------------------------
  free energy    TOTEN  =       -71.37486093 eV

  energy without entropy =      -71.37486093  energy(sigma->0) =      -71.37486093


--------------------------------------------------------------------------------------------------------




 average (electrostatic) potential at core
  the test charge radii are     0.6991
  (the norm of the test charge is              1.0000)
       1 -43.3136       2 -43.3136       3 -43.3136       4 -43.3136       5 -43.3136
       6 -43.3136       7 -43.3136       8 -43.3136
 
 
 
 E-fermi :  11.9265     XC(G=0): -13.9277     alpha+bet :-20.3298


 k-point     1 :       0.0000    0.0000    0.0000
  band No.  band energies     occupation 
      1     -11.5604      2.00000
      2      -1.9379      2.00000
      3      -1.9379      2.00000
      4      -1.9379      2.00000
      5      -1.9379      2.00000
      6      -1.9379      2.00000
      7      -1.9379      2.00000
      8       4.6862      2.00000
      9       4.6862      2.00000
     10       4.6862      2.00000
     11       4.6862      2.00000
     12       4.6862      2.00000
     13       4.6862      2.00000
     14      11.8776      2.00000
     15      11.8776      2.00000
     16      11.8776      2.00000
     17      16.9149      0.00000
     18      16.9149      0.00000
     19      16.9149      0.00000
     20      16.9149      0.00000
     21      16.9149      0.00000
     22      16.9149      0.00000
     23      17.8672      0.00000
     24      17.8672      0.00000

 k-point     2 :       0.0833    0.0000    0.0000
  band No.  band energies     occupation 
      1     -11.4901      2.00000
      2      -3.3827      2.00000
      3      -1.8876      2.00000
      4      -1.8876      2.00000
      5      -1.8876      2.00000
      6      -1.8876      2.00000
      7      -0.4242      2.00000
      8       4.5244      2.00000
      9       4.5244      2.00000
     10       4.5244      2.00000
     11       4.5244      2.00000
     12       4.7565      2.00000
     13       4.7565      2.00000
     14      11.5658      2.00000
     15      11.5658      2.00000
     16      11.7211      2.00000
     17      16.5831      0.00000
     18      17.2075      0.00000
     19      17.2075      0.00000
     20      17.2075      0.00000
     21      17.2075      0.00000
     22      17.4069      0.00000
     23      17.8154      0.00000
     24      18.2445      0.00000

 k-point     3 :       0.1667    0.0000    0.0000
  band No.  band energies     occupation 
      1     -11.2793      2.00000
      2      -4.7397      2.00000
      3      -1.7411      2.00000
      4      -1.7411      2.00000
      5      -1.7411      2.00000
      6      -1.7411      2.00000
      7       1.1345      2.00000
      8       4.0926      2.00000
      9       4.0926      2.00000
     10       4.0926      2.00000
     11       4.0926      2.00000
     12       4.9667      2.00000
     13       4.9667      2.00000
     14      10.8058      2.00000
     15      10.8058      2.00000
     16      11.2653      2.00000
     17      16.3923      0.00000
     18      17.6600      0.00000
     19      18.0308      0.00000
     20      18.0308      0.00000
     21      18.0308      0.00000
     22      18.0308      0.00000
     23      18.0799      0.00000
     24      19.1937      0.00000

 k-point     4 :       0.2500    0.0000    0.0000
  band No.  band energies     occupation 
      1     -10.9285      2.00000
      2      -5.9948      2.00000
      3      -1.5143      2.00000
      4      -1.5143      2.00000
      5      -1.5143      2.00000
      6      -1.5143      2.00000
      7       2.7087      2.00000
      8       3.5128      2.00000
      9       3.5128      2.00000
     10       3.5128      2.00000
     11       3.5128      2.00000
     12       5.3164      2.00000
     13       5.3164      2.00000
     14       9.8656      2.00000
     15       9.8656      2.00000
     16      10.5448      2.00000
     17      16.3198      0.00000
     18      17.4423      0.00000
     19      18.9565      0.00000
     20      19.2578      0.00000
     21      19.2578      0.00000
     22      19.2578      0.00000
     23      19.2578      0.00000
     24      20.4536      0.00000

 k-point     5 :       0.3333    0.0000    0.0000
  band No.  band energies     occupation 
      1     -10.4390      2.00000
      2      -7.1366      2.00000
      3      -1.2432      2.00000
      4      -1.2432      2.00000
      5      -1.2432      2.00000
      6      -1.2432      2.00000
      7       2.9194      2.00000
      8       2.9194      2.00000
      9       2.9194      2.00000
     10       2.9194      2.00000
     11       4.2660      2.00000
     12       5.8008      2.00000
     13       5.8008      2.00000
     14       8.8980      2.00000
     15       8.8980      2.00000
     16       9.6002      2.00000
     17      16.3573      0.00000
     18      17.1849      0.00000
     19      20.0570      0.00000
     20      20.7344      0.00000
     21      20.7344      0.00000
     22      20.7344      0.00000
     23      20.7344      0.00000
     24      21.8607      0.00000

 k-point     6 :       0.4167    0.0000    0.0000
  band No.  band energies     occupation 
      1      -9.8122      2.00000
      2      -8.1572      2.00000
      3      -0.9991      2.00000
      4      -0.9991      2.00000
      5      -0.9991      2.00000
      6      -0.9991      2.00000
      7       2.4584      2.00000
      8       2.4584      2.00000
      9       2.4584      2.00000
     10       2.4584      2.00000
     11       5.7667      2.00000
     12       6.4100      2.00000
     13       6.4100      2.00000
     14       7.9770      2.00000
     15       7.9770      2.00000
     16       8.4724      2.00000
     17      16.4817      0.00000
     18      16.9252      0.00000
     19      21.3892      0.00000
     20      22.2576      0.00000
     21      22.2576      0.00000
     22      22.2576      0.00000
     23      22.2576      0.00000
     24      23.3351      0.00000

 k-point     7 :       0.5000    0.0000    0.0000
  band No.  band energies     occupation 
      1      -9.0505      2.00000
      2      -9.0505      2.00000
      3      -0.8947      2.00000
      4      -0.8947      2.00000
      5      -0.8947      2.00000
      6      -0.8947      2.00000
      7       2.2789      2.00000
      8       2.2789      2.00000
      9       2.2789      2.00000
     10       2.2789      2.00000
     11       7.1400      2.00000
     12       7.1400      2.00000
     13       7.1400      2.00000
     14       7.1400      2.00000
     15       7.1775      2.00000
     16       7.1775      2.00000
     17      16.6771      0.00000
     18      16.6771      0.00000
     19      22.9452      0.00000
     20      22.9452      0.00000
     21      23.1466      0.00000
     22      23.1466      0.00000
     23      23.1466      0.00000
     24      23.1466      0.00000

 k-point     8 :       0.0833    0.0833    0.0000
  band No.  band energies     occupation 
      1     -11.4198      2.00000
      2      -3.3251      2.00000
      3      -3.3251      2.00000
      4      -1.8637      2.00000
      5      -1.8142      2.00000
      6      -0.3865      2.00000
      7      -0.3865      2.00000
      8       3.9678      2.00000
      9       4.5836      2.00000
     10       4.5836      2.00000
     11       4.6118      2.00000
     12       4.6118      2.00000
     13       4.8092      2.00000
     14      11.0903      2.00000
     15      11.2676      2.00000
     16      11.7903      2.00000
     17      16.8822      0.00000
     18      16.8822      0.00000
     19      17.0259      0.00000
     20      17.6911      0.00000
     21      17.6911      0.00000
     22      17.9273      0.00000
     23      18.0148      0.00000
     24      18.3551      0.00000

 k-point     9 :       0.1667    0.0833    0.0000
  band No.  band energies     occupation 
      1     -11.2091      2.00000
      2      -4.6777      2.00000
      3      -3.1549      2.00000
      4      -1.7568      2.00000
      5      -1.6408      2.00000
      6      -0.2822      2.00000
      7       1.1486      2.00000
      8       3.2593      2.00000
      9       4.1193      2.00000
     10       4.2311      2.00000
     11       4.7689      2.00000
     12       4.7854      2.00000
     13       4.8502      2.00000
     14      10.2740      2.00000
     15      10.5345      2.00000
     16      11.5041      2.00000
     17      16.6965      0.00000
     18      17.4255      0.00000
     19      17.7221      0.00000
     20      17.9509      0.00000
     21      18.3536      0.00000
     22      18.4917      0.00000
     23      19.0704      0.00000
     24      19.2050      0.00000

 k-point    10 :       0.2500    0.0833    0.0000
  band No.  band energies     occupation 
      1     -10.8585      2.00000
      2      -5.9300      2.00000
      3      -2.8803      2.00000
      4      -1.6011      2.00000
      5      -1.3739      2.00000
      6      -0.1438      2.00000
      7       2.5359      2.00000
      8       2.6753      2.00000
      9       3.4859      2.00000
     10       3.7420      2.00000
     11       4.4611      2.00000
     12       5.1273      2.00000
     13       5.2520      2.00000
     14       9.3289      2.00000
     15       9.6158      2.00000
     16      10.8780      2.00000
     17      16.6300      0.00000
     18      17.7427      0.00000
     19      18.3386      0.00000
     20      18.9734      0.00000
     21      19.2166      0.00000
     22      19.6814      0.00000
     23      20.4432      0.00000
     24      20.4974      0.00000

 k-point    11 :       0.3333    0.0833    0.0000
  band No.  band energies     occupation 
      1     -10.3693      2.00000
      2      -7.0701      2.00000
      3      -2.5196      2.00000
      4      -1.4703      2.00000
      5      -1.0310      2.00000
      6      -0.0393      2.00000
      7       1.9480      2.00000
      8       2.8078      2.00000
      9       3.3073      2.00000
     10       4.0081      2.00000
     11       4.1244      2.00000
     12       5.6022      2.00000
     13       5.8438      2.00000
     14       8.3534      2.00000
     15       8.6642      2.00000
     16       9.9972      2.00000
     17      16.6667      0.00000
     18      17.4907      0.00000
     19      19.6228      0.00000
     20      20.2987      0.00000
     21      20.4938      0.00000
     22      21.0809      0.00000
     23      21.8008      0.00000
     24      21.8465      0.00000

 k-point    12 :       0.4167    0.0833    0.0000
  band No.  band energies     occupation 
      1      -9.7429      2.00000
      2      -8.0894      2.00000
      3      -2.1097      2.00000
      4      -1.4861      2.00000
      5      -0.6482      2.00000
      6      -0.0706      2.00000
      7       1.6593      2.00000
      8       2.1960      2.00000
      9       3.0953      2.00000
     10       3.5405      2.00000
     11       5.3922      2.00000
     12       6.2067      2.00000
     13       6.6890      2.00000
     14       7.3931      2.00000
     15       7.7551      2.00000
     16       8.9385      2.00000
     17      16.7921      0.00000
     18      17.2330      0.00000
     19      21.0907      0.00000
     20      21.6136      0.00000
     21      22.1366      0.00000
     22      22.3381      0.00000
     23      23.1803      0.00000
     24      23.3236      0.00000

 k-point    13 :       0.5000    0.0833    0.0000
  band No.  band energies     occupation 
      1      -8.9818      2.00000
      2      -8.9818      2.00000
      3      -1.7249      2.00000
      4      -1.7249      2.00000
      5      -0.2945      2.00000
      6      -0.2945      2.00000
      7       1.7673      2.00000
      8       1.7673      2.00000
      9       3.1937      2.00000
     10       3.1937      2.00000
     11       6.4366      2.00000
     12       6.4366      2.00000
     13       6.9280      2.00000
     14       6.9280      2.00000
     15       7.7794      2.00000
     16       7.7794      2.00000
     17      16.9871      0.00000
     18      16.9871      0.00000
     19      22.3680      0.00000
     20      22.3680      0.00000
     21      23.1367      0.00000
     22      23.1367      0.00000
     23      23.6083      0.00000
     24      23.6083      0.00000

 k-point    14 :       0.1667    0.1667    0.0000
  band No.  band energies     occupation 
      1     -10.9987      2.00000
      2      -4.4936      2.00000
      3      -4.4936      2.00000
      4      -1.7205      2.00000
      5      -1.4436      2.00000
      6       1.1727      2.00000
      7       1.1727      2.00000
      8       2.4074      2.00000
      9       4.2978      2.00000
     10       4.2978      2.00000
     11       4.5570      2.00000
     12       4.5570      2.00000
     13       5.1683      2.00000
     14       9.4057      2.00000
     15       9.8504      2.00000
     16      11.5156      2.00000
     17      17.3573      0.00000
     18      17.5439      0.00000
     19      17.5439      0.00000
     20      18.4499      0.00000
     21      19.1240      0.00000
     22      19.1240      0.00000
     23      19.4691      0.00000
     24      19.8627      0.00000

 k-point    15 :       0.2500    0.1667    0.0000
  band No.  band energies     occupation 
      1     -10.6487      2.00000
      2      -5.7368      2.00000
      3      -4.1916      2.00000
      4      -1.7063      2.00000
      5      -1.1488      2.00000
      6       1.1465      2.00000
      7       1.6871      2.00000
      8       2.5442      2.00000
      9       3.6297      2.00000
     10       4.2321      2.00000
     11       4.6199      2.00000
     12       5.1179      2.00000
     13       5.2449      2.00000
     14       8.4536      2.00000
     15       8.9759      2.00000
     16      11.1321      2.00000
     17      17.4862      0.00000
     18      17.8560      0.00000
     19      18.4846      0.00000
     20      18.8062      0.00000
     21      19.9462      0.00000
     22      20.2580      0.00000
     23      20.4662      0.00000
     24      20.6554      0.00000

 k-point    16 :       0.3333    0.1667    0.0000
  band No.  band energies     occupation 
      1     -10.1604      2.00000
      2      -6.8711      2.00000
      3      -3.7820      2.00000
      4      -1.8417      2.00000
      5      -0.7644      2.00000
      6       0.9823      2.00000
      7       1.2757      2.00000
      8       2.9022      2.00000
      9       3.7348      2.00000
     10       4.0494      2.00000
     11       5.0571      2.00000
     12       5.0776      2.00000
     13       5.9690      2.00000
     14       7.4892      2.00000
     15       8.0573      2.00000
     16      10.4064      2.00000
     17      17.5238      0.00000
     18      18.2928      0.00000
     19      18.8418      0.00000
     20      20.3421      0.00000
     21      20.9761      0.00000
     22      21.5214      0.00000
     23      21.6545      0.00000
     24      21.8191      0.00000

 k-point    17 :       0.4167    0.1667    0.0000
  band No.  band energies     occupation 
      1      -9.5354      2.00000
      2      -7.8865      2.00000
      3      -3.2833      2.00000
      4      -2.2111      2.00000
      5      -0.3095      2.00000
      6       0.6400      2.00000
      7       1.2833      2.00000
      8       2.2121      2.00000
      9       4.1076      2.00000
     10       4.7225      2.00000
     11       4.7327      2.00000
     12       5.6649      2.00000
     13       6.5518      2.00000
     14       7.0758      2.00000
     15       7.1749      2.00000
     16       9.4277      2.00000
     17      17.6474      0.00000
     18      18.0640      0.00000
     19      20.1508      0.00000
     20      22.0380      0.00000
     21      22.2124      0.00000
     22      22.2629      0.00000
     23      22.7673      0.00000
     24      23.3017      0.00000

 k-point    18 :       0.5000    0.1667    0.0000
  band No.  band energies     occupation 
      1      -8.7762      2.00000
      2      -8.7762      2.00000
      3      -2.7341      2.00000
      4      -2.7341      2.00000
      5       0.1796      2.00000
      6       0.1796      2.00000
      7       1.6397      2.00000
      8       1.6397      2.00000
      9       4.3670      2.00000
     10       4.3670      2.00000
     11       5.6425      2.00000
[...]

 k-point    72 :       0.4167    0.4167    0.2500
  band No.  band energies     occupation 
      1      -7.4913      2.00000
      2      -5.9213      2.00000
      3      -5.9213      2.00000
      4      -4.5704      2.00000
      5      -2.1052      2.00000
      6      -0.8030      2.00000
      7      -0.8030      2.00000
      8       0.6956      2.00000
      9       5.7904      2.00000
     10       6.6346      2.00000
     11       6.6346      2.00000
     12       7.7825      2.00000
     13       7.8155      2.00000
     14       7.9995      2.00000
     15       7.9995      2.00000
     16       9.2317      2.00000
     17      19.9597      0.00000
     18      20.4743      0.00000
     19      20.4743      0.00000
     20      20.9588      0.00000
     21      21.2280      0.00000
     22      22.0377      0.00000
     23      22.0377      0.00000
     24      22.8226      0.00000

 k-point    73 :       0.5000    0.4167    0.2500
  band No.  band energies     occupation 
      1      -6.7618      2.00000
      2      -6.7618      2.00000
      3      -5.2565      2.00000
      4      -5.2565      2.00000
      5      -1.5618      2.00000
      6      -1.5618      2.00000
      7      -0.1192      2.00000
      8      -0.1192      2.00000
      9       6.2305      2.00000
     10       6.2305      2.00000
     11       7.2492      2.00000
     12       7.2492      2.00000
     13       8.0340      2.00000
     14       8.0340      2.00000
     15       8.7649      2.00000
     16       8.7649      2.00000
     17      20.4931      0.00000
     18      20.4931      0.00000
     19      20.7842      0.00000
     20      20.7842      0.00000
     21      21.5696      0.00000
     22      21.5696      0.00000
     23      22.1839      0.00000
     24      22.1839      0.00000

 k-point    74 :       0.5000    0.5000    0.2500
  band No.  band energies     occupation 
      1      -6.0535      2.00000
      2      -6.0535      2.00000
      3      -6.0535      2.00000
      4      -6.0535      2.00000
      5      -0.9161      2.00000
      6      -0.9161      2.00000
      7      -0.9161      2.00000
      8      -0.9161      2.00000
      9       6.7561      2.00000
     10       6.7561      2.00000
     11       6.7561      2.00000
     12       6.7561      2.00000
     13       8.5674      2.00000
     14       8.5674      2.00000
     15       8.5674      2.00000
     16       8.5674      2.00000
     17      20.7443      0.00000
     18      20.7443      0.00000
     19      20.7443      0.00000
     20      20.7443      0.00000
     21      21.8211      0.00000
     22      21.8211      0.00000
     23      21.8211      0.00000
     24      21.8211      0.00000

 k-point    75 :       0.3333    0.3333    0.3333
  band No.  band energies     occupation 
      1      -8.2335      2.00000
      2      -5.1225      2.00000
      3      -5.1225      2.00000
      4      -5.1225      2.00000
      5      -1.4572      2.00000
      6      -1.4572      2.00000
      7      -1.4572      2.00000
      8       1.5173      2.00000
      9       6.3523      2.00000
     10       6.3523      2.00000
     11       6.3523      2.00000
     12       7.3450      2.00000
     13       7.3450      2.00000
     14       7.3450      2.00000
     15       9.2355      2.00000
     16       9.2355      2.00000
     17      19.4742      0.00000
     18      19.4742      0.00000
     19      19.4742      0.00000
     20      20.8240      0.00000
     21      20.8240      0.00000
     22      22.1044      0.00000
     23      23.6097      0.00000
     24      23.6097      0.00000

 k-point    76 :       0.4167    0.3333    0.3333
  band No.  band energies     occupation 
      1      -7.6259      2.00000
      2      -6.0506      2.00000
      3      -4.6885      2.00000
      4      -4.6885      2.00000
      5      -2.2449      2.00000
      6      -2.2449      2.00000
      7      -0.9283      2.00000
      8       0.5822      2.00000
      9       6.5816      2.00000
     10       6.5816      2.00000
     11       7.5745      2.00000
     12       7.5966      2.00000
     13       7.5966      2.00000
     14       7.7688      2.00000
     15       8.7464      2.00000
     16       9.1152      2.00000
     17      19.8658      0.00000
     18      20.0365      0.00000
     19      20.0365      0.00000
     20      20.5730      0.00000
     21      21.3216      0.00000
     22      22.4373      0.00000
     23      22.6541      0.00000
     24      22.6830      0.00000

 k-point    77 :       0.5000    0.3333    0.3333
  band No.  band energies     occupation 
      1      -6.8942      2.00000
      2      -6.8942      2.00000
      3      -4.4548      2.00000
      4      -4.4548      2.00000
      5      -2.5979      2.00000
      6      -2.5979      2.00000
      7      -0.2393      2.00000
      8      -0.2393      2.00000
      9       6.6598      2.00000
     10       6.6598      2.00000
     11       7.6746      2.00000
     12       7.6746      2.00000
     13       8.2458      2.00000
     14       8.2458      2.00000
     15       8.5330      2.00000
     16       8.5330      2.00000
     17      20.2508      0.00000
     18      20.2508      0.00000
     19      20.5354      0.00000
     20      20.5354      0.00000
     21      21.9633      0.00000
     22      21.9633      0.00000
     23      21.9635      0.00000
     24      21.9635      0.00000

 k-point    78 :       0.4167    0.4167    0.3333
  band No.  band energies     occupation 
      1      -7.0281      2.00000
      2      -5.5098      2.00000
      3      -5.5098      2.00000
      4      -4.5762      2.00000
      5      -2.7309      2.00000
      6      -1.8189      2.00000
      7      -1.8189      2.00000
      8      -0.3539      2.00000
      9       7.0203      2.00000
     10       7.5281      2.00000
     11       7.5281      2.00000
     12       8.0207      2.00000
     13       8.1130      2.00000
     14       8.1130      2.00000
     15       8.5312      2.00000
     16       9.0599      2.00000
     17      20.2375      0.00000
     18      20.3687      0.00000
     19      20.3687      0.00000
     20      20.8610      0.00000
     21      21.0984      0.00000
     22      21.9932      0.00000
     23      21.9932      0.00000
     24      22.3183      0.00000

 k-point    79 :       0.5000    0.4167    0.3333
  band No.  band energies     occupation 
      1      -6.3143      2.00000
      2      -6.3143      2.00000
      3      -4.9398      2.00000
      4      -4.9398      2.00000
      5      -2.4996      2.00000
      6      -2.4996      2.00000
      7      -1.1637      2.00000
      8      -1.1637      2.00000
      9       7.3246      2.00000
     10       7.3246      2.00000
     11       8.1046      2.00000
     12       8.1046      2.00000
     13       8.2167      2.00000
     14       8.2167      2.00000
     15       8.7192      2.00000
     16       8.7192      2.00000
     17      20.6406      0.00000
     18      20.6406      0.00000
     19      20.6810      0.00000
     20      20.6810      0.00000
     21      21.4545      0.00000
     22      21.4545      0.00000
     23      21.7083      0.00000
     24      21.7083      0.00000

 k-point    80 :       0.5000    0.5000    0.3333
  band No.  band energies     occupation 
      1      -5.6395      2.00000
      2      -5.6395      2.00000
      3      -5.6395      2.00000
      4      -5.6395      2.00000
      5      -1.9419      2.00000
      6      -1.9419      2.00000
      7      -1.9419      2.00000
      8      -1.9419      2.00000
      9       7.7685      2.00000
     10       7.7685      2.00000
     11       7.7685      2.00000
     12       7.7685      2.00000
     13       8.6333      2.00000
     14       8.6333      2.00000
     15       8.6333      2.00000
     16       8.6333      2.00000
     17      20.8658      0.00000
     18      20.8658      0.00000
     19      20.8658      0.00000
     20      20.8658      0.00000
     21      21.3612      0.00000
     22      21.3612      0.00000
     23      21.3612      0.00000
     24      21.3612      0.00000

 k-point    81 :       0.4167    0.4167    0.4167
  band No.  band energies     occupation 
      1      -6.4459      2.00000
      2      -5.0636      2.00000
      3      -5.0636      2.00000
      4      -5.0636      2.00000
      5      -2.6328      2.00000
      6      -2.6328      2.00000
      7      -2.6328      2.00000
      8      -1.2858      2.00000
      9       8.0174      2.00000
     10       8.0174      2.00000
     11       8.0174      2.00000
     12       8.2929      2.00000
     13       8.2929      2.00000
     14       8.2929      2.00000
     15       8.8360      2.00000
     16       8.8360      2.00000
     17      20.5288      0.00000
     18      20.5288      0.00000
     19      20.5288      0.00000
     20      20.9390      0.00000
     21      20.9390      0.00000
     22      21.6882      0.00000
     23      21.6882      0.00000
     24      21.6882      0.00000

 k-point    82 :       0.5000    0.4167    0.4167
  band No.  band energies     occupation 
      1      -5.7678      2.00000
      2      -5.7678      2.00000
      3      -4.8197      2.00000
      4      -4.8197      2.00000
      5      -3.0000      2.00000
      6      -3.0000      2.00000
      7      -2.0703      2.00000
      8      -2.0703      2.00000
      9       8.1044      2.00000
     10       8.1044      2.00000
     11       8.4377      2.00000
     12       8.4377      2.00000
     13       8.5731      2.00000
     14       8.5731      2.00000
     15       8.6565      2.00000
     16       8.6565      2.00000
     17      20.7615      0.00000
     18      20.7615      0.00000
     19      20.7731      0.00000
     20      20.7731      0.00000
     21      21.2167      0.00000
     22      21.2167      0.00000
     23      21.3439      0.00000
     24      21.3439      0.00000

 k-point    83 :       0.5000    0.5000    0.4167
  band No.  band energies     occupation 
      1      -5.1892      2.00000
      2      -5.1892      2.00000
      3      -5.1892      2.00000
      4      -5.1892      2.00000
      5      -2.7639      2.00000
      6      -2.7639      2.00000
      7      -2.7639      2.00000
      8      -2.7639      2.00000
      9       8.4543      2.00000
     10       8.4543      2.00000
     11       8.4543      2.00000
     12       8.4543      2.00000
     13       8.6800      2.00000
     14       8.6800      2.00000
     15       8.6800      2.00000
     16       8.6800      2.00000
     17      20.9254      0.00000
     18      20.9254      0.00000
     19      20.9254      0.00000
     20      20.9254      0.00000
     21      21.0440      0.00000
     22      21.0440      0.00000
     23      21.0440      0.00000
     24      21.0440      0.00000

 k-point    84 :       0.5000    0.5000    0.5000
  band No.  band energies     occupation 
      1      -4.9417      2.00000
      2      -4.9417      2.00000
      3      -4.9417      2.00000
      4      -4.9417      2.00000
      5      -3.1360      2.00000
      6      -3.1360      2.00000
      7      -3.1360      2.00000
      8      -3.1360      2.00000
      9       8.6964      2.00000
     10       8.6964      2.00000
     11       8.6964      2.00000
     12       8.6964      2.00000
     13       8.6964      2.00000
     14       8.6964      2.00000
     15       8.6964      2.00000
     16       8.6964      2.00000
     17      20.9335      0.00000
     18      20.9335      0.00000
     19      20.9335      0.00000
     20      20.9335      0.00000
     21      20.9335      0.00000
     22      20.9335      0.00000
     23      20.9335      0.00000
     24      20.9335      0.00000


--------------------------------------------------------------------------------------------------------


 soft charge-density along one line, spin component           1
         0         1         2         3         4         5         6         7         8         9
 total charge-density along one line
 
 pseudopotential strength for first ion, spin component:           1
  9.328  -0.009   0.000   0.000   0.000  -0.000  -0.000  -0.000
 -0.009  -0.002  -0.000  -0.000  -0.000  -0.000  -0.000   0.000
  0.000  -0.000  -3.542   0.000  -0.000  -0.014   0.000  -0.000
  0.000  -0.000   0.000  -3.542   0.000   0.000  -0.014   0.000
  0.000  -0.000  -0.000   0.000  -3.542  -0.000   0.000  -0.014
 -0.000  -0.000  -0.014   0.000  -0.000  -0.755   0.000  -0.000
 -0.000  -0.000   0.000  -0.014   0.000   0.000  -0.755   0.000
 -0.000   0.000  -0.000   0.000  -0.014  -0.000   0.000  -0.755
 total augmentation occupancy for first ion, spin component:           1
  1.448  -1.230   0.000  -0.000  -0.000  -0.000  -0.000   0.000
 -1.230   1.370  -0.000  -0.000  -0.000  -0.000  -0.000  -0.000
  0.000  -0.000   1.186   0.000  -0.000   0.211  -0.000  -0.000
 -0.000  -0.000  -0.000   1.186   0.000   0.000   0.211   0.000
 -0.000  -0.000  -0.000   0.000   1.186  -0.000   0.000   0.211
 -0.000   0.000   0.211   0.000  -0.000   0.045   0.000   0.000
 -0.000  -0.000  -0.000   0.211  -0.000   0.000   0.045   0.000
  0.000  -0.000  -0.000   0.000   0.211  -0.000   0.000   0.045


------------------------ aborting loop because EDIFF is reached ----------------------------------------


    CHARGE:  cpu time    0.1143: real time    0.1143
    FORLOC:  cpu time    0.0020: real time    0.0020
    FORNL :  cpu time    0.1700: real time    0.1700
    STRESS:  cpu time    0.4079: real time    0.4082
    FORHAR:  cpu time    0.0052: real time    0.0052
    MIXING:  cpu time    0.0019: real time    0.0019
    OFIELD:  cpu time    0.0001: real time    0.0001

  FORCE on cell =-STRESS in cart. coord.  units (eV):
  Direction    XX          YY          ZZ          XY          YZ          ZX
  --------------------------------------------------------------------------------------
  Alpha Z   132.00336   132.00336   132.00336
  Ewald    -485.88179  -485.88179  -485.88179     0.00000     0.00000     0.00000
  Hartree    32.65574    32.65574    32.65574    -0.00000    -0.00000    -0.00000
  E(xc)    -123.66977  -123.66977  -123.66977    -0.00000     0.00000     0.00000
  Local     -37.08711   -37.08711   -37.08711    -0.00000    -0.00000     0.00000
  n-local   -33.72963   -34.44603   -34.54147     0.57789     0.67395     0.30911
  augment    -3.44954    -3.44954    -3.44954    -0.00000     0.00000    -0.00000
  Kinetic   525.91097   543.28270   547.11489    -4.80524    -6.56388    -3.29717
  Fock        0.00000     0.00000     0.00000     0.00000     0.00000     0.00000
  -------------------------------------------------------------------------------------
  Total      19.10137    19.10137    19.10137    -0.00000     0.00000    -0.00000
  in kB     774.69058   774.69058   774.69058    -0.00000     0.00000    -0.00000
  external pressure =      774.69 kB  Pullay stress =        0.00 kB


 VOLUME and BASIS-vectors are now :
 -----------------------------------------------------------------------------
  energy-cutoff  :      400.00
  volume of cell :       39.50
      direct lattice vectors                 reciprocal lattice vectors
     3.405772443  0.000000000  0.000000000     0.293619147  0.000000000  0.000000000
     0.000000000  3.405772443  0.000000000     0.000000000  0.293619147  0.000000000
     0.000000000  0.000000000  3.405772443     0.000000000  0.000000000  0.293619147

  length of vectors
     3.405772443  3.405772443  3.405772443     0.293619147  0.293619147  0.293619147


 FORCES acting on ions
    electron-ion (+dipol)            ewald-force                    non-local-force                 convergence-correction
 -----------------------------------------------------------------------------------------------
   0.835E-14 -.157E-12 0.403E-13   0.000E+00 0.000E+00 0.000E+00   0.371E-17 0.114E-16 0.118E-16   -.307E-14 -.142E-14 -.317E-14
   0.000E+00 0.203E-14 0.502E-13   0.214E-15 -.840E-15 0.713E-14   -.443E-16 -.300E-16 -.174E-16   -.145E-14 0.801E-15 -.955E-14
   0.000E+00 -.175E-12 0.586E-13   0.000E+00 0.000E+00 0.711E-14   0.466E-16 0.140E-16 0.709E-17   -.316E-14 -.268E-14 -.309E-14
   0.000E+00 0.194E-13 0.322E-13   -.145E-14 -.335E-16 0.131E-13   -.208E-16 -.152E-16 -.216E-16   -.135E-14 0.346E-15 -.809E-14
   0.250E-13 0.199E-12 0.413E-12   0.000E+00 0.000E+00 -.142E-13   0.399E-16 0.346E-16 0.200E-16   0.340E-14 -.111E-14 -.407E-14
   0.000E+00 -.884E-15 -.362E-12   -.333E-16 -.241E-14 -.817E-14   -.173E-16 -.150E-16 -.154E-16   0.325E-14 0.186E-14 -.804E-14
   0.167E-13 -.181E-12 0.319E-13   0.000E+00 0.000E+00 -.711E-14   0.125E-16 0.321E-16 0.196E-16   0.303E-14 -.281E-14 -.415E-14
   0.835E-14 0.374E-12 0.516E-13   0.133E-15 -.300E-15 0.687E-16   -.428E-16 -.917E-17 -.501E-17   0.303E-14 0.115E-14 -.983E-14
 -----------------------------------------------------------------------------------------------
   0.584E-13 0.808E-13 0.316E-12   -.114E-14 -.358E-14 -.204E-14   -.225E-16 0.228E-16 -.855E-18   0.369E-14 -.386E-14 -.500E-13
 
 
 POSITION                                       TOTAL-FORCE (eV/Angst)
 -----------------------------------------------------------------------------------
      0.85144      2.55433      0.85144        -0.000000      0.000000      0.000000
      0.00000      0.00000      1.70289        -0.000000      0.000000     -0.000000
      0.85144      0.85144      2.55433        -0.000000     -0.000000      0.000000
      0.00000      1.70289      0.00000         0.000000     -0.000000      0.000000
      2.55433      2.55433      2.55433         0.000000      0.000000      0.000000
      1.70289      0.00000      0.00000         0.000000      0.000000     -0.000000
      2.55433      0.85144      0.85144        -0.000000      0.000000     -0.000000
      1.70289      1.70289      1.70289        -0.000000     -0.000000     -0.000000
 -----------------------------------------------------------------------------------
    total drift:                                0.000000      0.000000      0.000000


--------------------------------------------------------------------------------------------------------



  FREE ENERGIE OF THE ION-ELECTRON SYSTEM (eV)
  ---------------------------------------------------
  free  energy   TOTEN  =       -71.37486093 eV

  energy  without entropy=      -71.37486093  energy(sigma->0) =      -71.37486093
 


--------------------------------------------------------------------------------------------------------


    POTLOK:  cpu time    0.0259: real time    0.0259


--------------------------------------------------------------------------------------------------------


     LOOP+:  cpu time   47.1188: real time   47.2470
    4ORBIT:  cpu time    0.0000: real time    0.0000
 BZINTS: Fermi energy: 11.926547; 32.000000 electrons
         Band energy:  63.929629;  BLOECHL correction:  0.000000

 total amount of memory used by VASP MPI-rank0    33456. kBytes
=======================================================================

   base      :      30000. kBytes
   nonl-proj :       1012. kBytes
   fftplans  :        345. kBytes
   grid      :        481. kBytes
   one-center:          6. kBytes
   wavefun   :       1612. kBytes
 
  
  
 General timing and accounting informations for this job:
 ========================================================
  
                  Total CPU time used (sec):       50.727
                            User time (sec):       48.775
                          System time (sec):        1.952
                         Elapsed time (sec):       51.387
  
                   Maximum memory used (kb):      189604.
                   Average memory used (kb):           0.
  
                          Minor page faults:        36863
                          Major page faults:           36
                 Voluntary context switches:          788
