 vasp.5.4.4.18Apr17-6-g9f103f2a35 (build Mar 12 2022 03:36:41) complex          
  
 executed on IFC19.0.3.199_CrayMP date 2022.11.30  12:32:27
 running on   16 total cores
 distrk:  each k-point on   16 cores,    1 groups
 distr:  one band on NCORES_PER_BAND=   4 cores,    4 groups


--------------------------------------------------------------------------------------------------------


 INCAR:
 POTCAR:   PAW_PBE C 08Apr2002                    
 POTCAR:   PAW_PBE C 08Apr2002                    
   VRHFIN =C: s2p2                                                              
   LEXCH  = PE                                                                  
   EATOM  =   147.1560 eV,   10.8157 Ry                                         
                                                                                
   TITEL  = PAW_PBE C 08Apr2002                                                 
   LULTRA =        F    use ultrasoft PP ?                                      
   IUNSCR =        0    unscreen: 0-lin 1-nonlin 2-no                           
   RPACOR =     .000    partial core radius                                     
   POMASS =   12.011; ZVAL   =    4.000    mass and valenz                      
   RCORE  =    1.500    outmost cutoff radius                                   
   RWIGS  =    1.630; RWIGS  =     .863    wigner-seitz radius (au A)           
   ENMAX  =  400.000; ENMIN  =  300.000 eV                                      
   ICORE  =        2    local potential                                         
   LCOR   =        T    correct aug charges                                     
   LPAW   =        T    paw PP                                                  
   EAUG   =  644.873                                                            
   DEXC   =     .000                                                            
   RMAX   =    2.266    core radius for proj-oper                               
   RAUG   =    1.300    factor for augmentation sphere                          
   RDEP   =    1.501    radius for radial grids                                 
   RDEPT  =    1.300    core radius for aug-charge                              
   QCUT   =   -5.516; QGAM   =   11.032    optimization parameters              
                                                                                
   Description                                                                  
     l     E      TYP  RCUT    TYP  RCUT                                        
     0   .000     23  1.200                                                     
     0   .000     23  1.200                                                     
     1   .000     23  1.500                                                     
     1  2.500     23  1.500                                                     
     2   .000      7  1.500                                                     
  local pseudopotential read in
  atomic valenz-charges read in
  non local Contribution for L=           0  read in
    real space projection operators read in
  non local Contribution for L=           0  read in
    real space projection operators read in
  non local Contribution for L=           1  read in
    real space projection operators read in
  non local Contribution for L=           1  read in
    real space projection operators read in
    PAW grid and wavefunctions read in
 
   number of l-projection  operators is LMAX  =           4
   number of lm-projection operators is LMMAX =           8
 
 PAW_PBE C 08Apr2002                    :
 energy of atom  1       EATOM= -147.1560
 kinetic energy error for atom=    0.0288 (will be added to EATOM!!)
 
 
 POSCAR: C8                                      
  positions in direct lattice
  No initial velocities read in
 exchange correlation table for  LEXCH =        8
   RHO(1)=    0.500       N(1)  =     2000
   RHO(2)=  100.500       N(2)  =     4000
 


--------------------------------------------------------------------------------------------------------


 ion  position               nearest neighbor table
   1  0.250  0.750  0.250-   2 1.62   4 1.62   6 1.62   8 1.62
   2  0.000  0.000  0.500-   1 1.62   3 1.62   5 1.62   7 1.62
   3  0.250  0.250  0.750-   2 1.62   4 1.62   6 1.62   8 1.62
   4  0.000  0.500  0.000-   1 1.62   3 1.62   5 1.62   7 1.62
   5  0.750  0.750  0.750-   2 1.62   4 1.62   6 1.62   8 1.62
   6  0.500  0.000  0.000-   1 1.62   3 1.62   5 1.62   7 1.62
   7  0.750  0.250  0.250-   2 1.62   4 1.62   6 1.62   8 1.62
   8  0.500  0.500  0.500-   1 1.62   3 1.62   5 1.62   7 1.62
 
  LATTYP: Found a simple cubic cell.
 ALAT       =     3.7481390000
  
  Lattice vectors:
  
 A1 = (   3.7481390000,   0.0000000000,   0.0000000000)
 A2 = (   0.0000000000,   3.7481390000,   0.0000000000)
 A3 = (   0.0000000000,   0.0000000000,   3.7481390000)


Analysis of symmetry for initial positions (statically):
=====================================================================
 Subroutine PRICEL returns following result:
 
  LATTYP: Found a face centered cubic cell.
 ALAT       =     3.7481390000
  
  Lattice vectors:
  
 A1 = (   1.8740695000,   1.8740695000,   0.0000000000)
 A2 = (   1.8740695000,   0.0000000000,  -1.8740695000)
 A3 = (   0.0000000000,   1.8740695000,  -1.8740695000)
 
   4 primitive cells build up your supercell.
 

 Routine SETGRP: Setting up the symmetry group for a 
 simple cubic supercell.


 Subroutine GETGRP returns: Found 48 space group operations
 (whereof 24 operations were pure point group operations)
 out of a pool of 48 trial point group operations.


The static configuration has the point symmetry T_d .
 The point group associated with its full space group is O_h .


Analysis of symmetry for dynamics (positions and initial velocities):
=====================================================================
 Subroutine PRICEL returns following result:
 
  LATTYP: Found a face centered cubic cell.
 ALAT       =     3.7481390000
  
  Lattice vectors:
  
 A1 = (   1.8740695000,   1.8740695000,   0.0000000000)
 A2 = (   1.8740695000,   0.0000000000,  -1.8740695000)
 A3 = (   0.0000000000,   1.8740695000,  -1.8740695000)
 
   4 primitive cells build up your supercell.
 

 Routine SETGRP: Setting up the symmetry group for a 
 simple cubic supercell.


 Subroutine GETGRP returns: Found 48 space group operations
 (whereof 24 operations were pure point group operations)
 out of a pool of 48 trial point group operations.


The dynamic configuration has the point symmetry T_d .
 The point group associated with its full space group is O_h .


 Subroutine INISYM returns: Found 48 space group operations
 (whereof 24 operations are pure point group operations),
 and found     4 'primitive' translations

 
 
 KPOINTS: kpt_density=1000                        

Automatic generation of k-mesh.
Space group operators:
 irot       det(A)        alpha          n_x          n_y          n_z        tau_x        tau_y        tau_z
    1     1.000000     0.000001     1.000000     0.000000     0.000000     0.000000     0.000000     0.000000
    2     1.000000   120.000000    -0.577350    -0.577350    -0.577350     0.000000     0.000000     0.000000
    3     1.000000   120.000000     0.577350     0.577350     0.577350     0.000000     0.000000     0.000000
    4    -1.000000    90.000000     0.000000     0.000000    -1.000000     0.000000     0.000000     0.000000
    5    -1.000000   180.000000     0.000000     0.707107     0.707107     0.000000     0.000000     0.000000
    6    -1.000000    90.000000     0.000000     1.000000     0.000000     0.000000     0.000000     0.000000
    7     1.000000   180.000000     0.000000     0.000000     1.000000     0.000000     0.000000     0.000000
    8     1.000000   120.000000    -0.577350     0.577350     0.577350     0.000000     0.000000     0.000000
    9     1.000000   120.000000    -0.577350     0.577350    -0.577350     0.000000     0.000000     0.000000
   10    -1.000000    90.000000     0.000000     0.000000     1.000000     0.000000     0.000000     0.000000
   11    -1.000000    90.000000    -1.000000     0.000000     0.000000     0.000000     0.000000     0.000000
   12    -1.000000   180.000000     0.707107     0.000000     0.707107     0.000000     0.000000     0.000000
   13     1.000000   120.000000     0.577350    -0.577350     0.577350     0.000000     0.000000     0.000000
   14     1.000000   120.000000    -0.577350    -0.577350     0.577350     0.000000     0.000000     0.000000
   15     1.000000   180.000000     1.000000     0.000000     0.000000     0.000000     0.000000     0.000000
   16    -1.000000    90.000000     0.000000    -1.000000     0.000000     0.000000     0.000000     0.000000
   17    -1.000000   180.000000     0.707107     0.707107     0.000000     0.000000     0.000000     0.000000
   18    -1.000000    90.000000     1.000000     0.000000     0.000000     0.000000     0.000000     0.000000
   19     1.000000   120.000000     0.577350    -0.577350    -0.577350     0.000000     0.000000     0.000000
   20     1.000000   180.000000     0.000000     1.000000     0.000000     0.000000     0.000000     0.000000
   21     1.000000   120.000000     0.577350     0.577350    -0.577350     0.000000     0.000000     0.000000
   22    -1.000000   180.000000     0.000000    -0.707107     0.707107     0.000000     0.000000     0.000000
   23    -1.000000   180.000000     0.707107    -0.707107     0.000000     0.000000     0.000000     0.000000
   24    -1.000000   180.000000     0.707107     0.000000    -0.707107     0.000000     0.000000     0.000000
   25    -1.000000     0.000001     1.000000     0.000000     0.000000     0.750000     0.750000    -0.750000
   26    -1.000000   120.000000    -0.577350    -0.577350    -0.577350     0.750000     0.750000    -0.750000
   27    -1.000000   120.000000     0.577350     0.577350     0.577350     0.750000     0.750000    -0.750000
   28     1.000000    90.000000     0.000000     0.000000    -1.000000     0.750000     0.750000    -0.750000
   29     1.000000   180.000000     0.000000     0.707107     0.707107     0.750000     0.750000    -0.750000
   30     1.000000    90.000000     0.000000     1.000000     0.000000     0.750000     0.750000    -0.750000
   31    -1.000000   180.000000     0.000000     0.000000     1.000000     0.750000     0.750000    -0.750000
   32    -1.000000   120.000000    -0.577350     0.577350     0.577350     0.750000     0.750000    -0.750000
   33    -1.000000   120.000000    -0.577350     0.577350    -0.577350     0.750000     0.750000    -0.750000
   34     1.000000    90.000000     0.000000     0.000000     1.000000     0.750000     0.750000    -0.750000
   35     1.000000    90.000000    -1.000000     0.000000     0.000000     0.750000     0.750000    -0.750000
   36     1.000000   180.000000     0.707107     0.000000     0.707107     0.750000     0.750000    -0.750000
   37    -1.000000   120.000000     0.577350    -0.577350     0.577350     0.750000     0.750000    -0.750000
   38    -1.000000   120.000000    -0.577350    -0.577350     0.577350     0.750000     0.750000    -0.750000
   39    -1.000000   180.000000     1.000000     0.000000     0.000000     0.750000     0.750000    -0.750000
   40     1.000000    90.000000     0.000000    -1.000000     0.000000     0.750000     0.750000    -0.750000
   41     1.000000   180.000000     0.707107     0.707107     0.000000     0.750000     0.750000    -0.750000
   42     1.000000    90.000000     1.000000     0.000000     0.000000     0.750000     0.750000    -0.750000
   43    -1.000000   120.000000     0.577350    -0.577350    -0.577350     0.750000     0.750000    -0.750000
   44    -1.000000   180.000000     0.000000     1.000000     0.000000     0.750000     0.750000    -0.750000
   45    -1.000000   120.000000     0.577350     0.577350    -0.577350     0.750000     0.750000    -0.750000
   46     1.000000   180.000000     0.000000    -0.707107     0.707107     0.750000     0.750000    -0.750000
   47     1.000000   180.000000     0.707107    -0.707107     0.000000     0.750000     0.750000    -0.750000
   48     1.000000   180.000000     0.707107     0.000000    -0.707107     0.750000     0.750000    -0.750000
 
 Subroutine IBZKPT returns following result:
 ===========================================
 
 Found     84 irreducible k-points:
 
 Following reciprocal coordinates:
            Coordinates               Weight
  0.000000  0.000000  0.000000      1.000000
  0.083333  0.000000  0.000000      6.000000
  0.166667  0.000000  0.000000      6.000000
  0.250000  0.000000  0.000000      6.000000
  0.333333  0.000000  0.000000      6.000000
  0.416667  0.000000  0.000000      6.000000
  0.500000  0.000000  0.000000      3.000000
  0.083333  0.083333  0.000000     12.000000
  0.166667  0.083333  0.000000     24.000000
  0.250000  0.083333  0.000000     24.000000
  0.333333  0.083333  0.000000     24.000000
  0.416667  0.083333  0.000000     24.000000
  0.500000  0.083333  0.000000     12.000000
  0.166667  0.166667  0.000000     12.000000
  0.250000  0.166667  0.000000     24.000000
  0.333333  0.166667  0.000000     24.000000
  0.416667  0.166667  0.000000     24.000000
  0.500000  0.166667  0.000000     12.000000
  0.250000  0.250000  0.000000     12.000000
  0.333333  0.250000  0.000000     24.000000
  0.416667  0.250000  0.000000     24.000000
  0.500000  0.250000  0.000000     12.000000
  0.333333  0.333333  0.000000     12.000000
  0.416667  0.333333  0.000000     24.000000
  0.500000  0.333333  0.000000     12.000000
  0.416667  0.416667  0.000000     12.000000
  0.500000  0.416667  0.000000     12.000000
  0.500000  0.500000  0.000000      3.000000
  0.083333  0.083333  0.083333      8.000000
  0.166667  0.083333  0.083333     24.000000
  0.250000  0.083333  0.083333     24.000000
  0.333333  0.083333  0.083333     24.000000
  0.416667  0.083333  0.083333     24.000000
  0.500000  0.083333  0.083333     12.000000
  0.166667  0.166667  0.083333     24.000000
  0.250000  0.166667  0.083333     48.000000
  0.333333  0.166667  0.083333     48.000000
  0.416667  0.166667  0.083333     48.000000
  0.500000  0.166667  0.083333     24.000000
  0.250000  0.250000  0.083333     24.000000
  0.333333  0.250000  0.083333     48.000000
  0.416667  0.250000  0.083333     48.000000
  0.500000  0.250000  0.083333     24.000000
  0.333333  0.333333  0.083333     24.000000
  0.416667  0.333333  0.083333     48.000000
  0.500000  0.333333  0.083333     24.000000
  0.416667  0.416667  0.083333     24.000000
  0.500000  0.416667  0.083333     24.000000
  0.500000  0.500000  0.083333      6.000000
  0.166667  0.166667  0.166667      8.000000
  0.250000  0.166667  0.166667     24.000000
  0.333333  0.166667  0.166667     24.000000
  0.416667  0.166667  0.166667     24.000000
  0.500000  0.166667  0.166667     12.000000
  0.250000  0.250000  0.166667     24.000000
  0.333333  0.250000  0.166667     48.000000
  0.416667  0.250000  0.166667     48.000000
  0.500000  0.250000  0.166667     24.000000
  0.333333  0.333333  0.166667     24.000000
  0.416667  0.333333  0.166667     48.000000
  0.500000  0.333333  0.166667     24.000000
  0.416667  0.416667  0.166667     24.000000
  0.500000  0.416667  0.166667     24.000000
  0.500000  0.500000  0.166667      6.000000
  0.250000  0.250000  0.250000      8.000000
  0.333333  0.250000  0.250000     24.000000
  0.416667  0.250000  0.250000     24.000000
  0.500000  0.250000  0.250000     12.000000
  0.333333  0.333333  0.250000     24.000000
  0.416667  0.333333  0.250000     48.000000
  0.500000  0.333333  0.250000     24.000000
  0.416667  0.416667  0.250000     24.000000
  0.500000  0.416667  0.250000     24.000000
  0.500000  0.500000  0.250000      6.000000
  0.333333  0.333333  0.333333      8.000000
  0.416667  0.333333  0.333333     24.000000
  0.500000  0.333333  0.333333     12.000000
  0.416667  0.416667  0.333333     24.000000
  0.500000  0.416667  0.333333     24.000000
  0.500000  0.500000  0.333333      6.000000
  0.416667  0.416667  0.416667      8.000000
  0.500000  0.416667  0.416667     12.000000
  0.500000  0.500000  0.416667      6.000000
  0.500000  0.500000  0.500000      1.000000
 
 Following cartesian coordinates:
            Coordinates               Weight
  0.000000  0.000000  0.000000      1.000000
  0.022233  0.000000  0.000000      6.000000
  0.044467  0.000000  0.000000      6.000000
  0.066700  0.000000  0.000000      6.000000
  0.088933  0.000000  0.000000      6.000000
  0.111166  0.000000  0.000000      6.000000
  0.133400  0.000000  0.000000      3.000000
  0.022233  0.022233  0.000000     12.000000
  0.044467  0.022233  0.000000     24.000000
  0.066700  0.022233  0.000000     24.000000
  0.088933  0.022233  0.000000     24.000000
  0.111166  0.022233  0.000000     24.000000
  0.133400  0.022233  0.000000     12.000000
  0.044467  0.044467  0.000000     12.000000
  0.066700  0.044467  0.000000     24.000000
  0.088933  0.044467  0.000000     24.000000
  0.111166  0.044467  0.000000     24.000000
  0.133400  0.044467  0.000000     12.000000
  0.066700  0.066700  0.000000     12.000000
  0.088933  0.066700  0.000000     24.000000
  0.111166  0.066700  0.000000     24.000000
  0.133400  0.066700  0.000000     12.000000
  0.088933  0.088933  0.000000     12.000000
  0.111166  0.088933  0.000000     24.000000
  0.133400  0.088933  0.000000     12.000000
  0.111166  0.111166  0.000000     12.000000
  0.133400  0.111166  0.000000     12.000000
  0.133400  0.133400  0.000000      3.000000
  0.022233  0.022233  0.022233      8.000000
  0.044467  0.022233  0.022233     24.000000
  0.066700  0.022233  0.022233     24.000000
  0.088933  0.022233  0.022233     24.000000
  0.111166  0.022233  0.022233     24.000000
  0.133400  0.022233  0.022233     12.000000
  0.044467  0.044467  0.022233     24.000000
  0.066700  0.044467  0.022233     48.000000
  0.088933  0.044467  0.022233     48.000000
  0.111166  0.044467  0.022233     48.000000
  0.133400  0.044467  0.022233     24.000000
  0.066700  0.066700  0.022233     24.000000
  0.088933  0.066700  0.022233     48.000000
  0.111166  0.066700  0.022233     48.000000
  0.133400  0.066700  0.022233     24.000000
  0.088933  0.088933  0.022233     24.000000
  0.111166  0.088933  0.022233     48.000000
  0.133400  0.088933  0.022233     24.000000
  0.111166  0.111166  0.022233     24.000000
  0.133400  0.111166  0.022233     24.000000
  0.133400  0.133400  0.022233      6.000000
  0.044467  0.044467  0.044467      8.000000
  0.066700  0.044467  0.044467     24.000000
  0.088933  0.044467  0.044467     24.000000
  0.111166  0.044467  0.044467     24.000000
  0.133400  0.044467  0.044467     12.000000
  0.066700  0.066700  0.044467     24.000000
  0.088933  0.066700  0.044467     48.000000
  0.111166  0.066700  0.044467     48.000000
  0.133400  0.066700  0.044467     24.000000
  0.088933  0.088933  0.044467     24.000000
  0.111166  0.088933  0.044467     48.000000
  0.133400  0.088933  0.044467     24.000000
  0.111166  0.111166  0.044467     24.000000
  0.133400  0.111166  0.044467     24.000000
  0.133400  0.133400  0.044467      6.000000
  0.066700  0.066700  0.066700      8.000000
  0.088933  0.066700  0.066700     24.000000
  0.111166  0.066700  0.066700     24.000000
  0.133400  0.066700  0.066700     12.000000
  0.088933  0.088933  0.066700     24.000000
  0.111166  0.088933  0.066700     48.000000
  0.133400  0.088933  0.066700     24.000000
  0.111166  0.111166  0.066700     24.000000
  0.133400  0.111166  0.066700     24.000000
  0.133400  0.133400  0.066700      6.000000
  0.088933  0.088933  0.088933      8.000000
  0.111166  0.088933  0.088933     24.000000
  0.133400  0.088933  0.088933     12.000000
  0.111166  0.111166  0.088933     24.000000
  0.133400  0.111166  0.088933     24.000000
  0.133400  0.133400  0.088933      6.000000
  0.111166  0.111166  0.111166      8.000000
  0.133400  0.111166  0.111166     12.000000
  0.133400  0.133400  0.111166      6.000000
  0.133400  0.133400  0.133400      1.000000
 
 TETIRR: Found    854 inequivalent tetrahedra from    10368


--------------------------------------------------------------------------------------------------------




 Dimension of arrays:
   k-points           NKPTS =     84   k-points in BZ     NKDIM =     84   number of bands    NBANDS=     24
   number of dos      NEDOS =    301   number of ions     NIONS =      8
   non local maximal  LDIM  =      4   non local SUM 2l+1 LMDIM =      8
   total plane-waves  NPLWV =  13824
   max r-space proj   IRMAX =      1   max aug-charges    IRDMAX=   3297
   dimension x,y,z NGX =    24 NGY =   24 NGZ =   24
   dimension x,y,z NGXF=    48 NGYF=   48 NGZF=   48
   support grid    NGXF=    48 NGYF=   48 NGZF=   48
   ions per type =               8
   NGX,Y,Z   is equivalent  to a cutoff of  10.65, 10.65, 10.65 a.u.
   NGXF,Y,Z  is equivalent  to a cutoff of  21.29, 21.29, 21.29 a.u.

 SYSTEM =  unknown system                          
 POSCAR =  C8                                      

 Startparameter for this run:
   NWRITE =      2    write-flag & timer
   PREC   = accura    normal or accurate (medium, high low for compatibility)
   ISTART =      0    job   : 0-new  1-cont  2-samecut
   ICHARG =      2    charge: 1-file 2-atom 10-const
   ISPIN  =      1    spin polarized calculation?
   LNONCOLLINEAR =      F non collinear calculations
   LSORBIT =      F    spin-orbit coupling
   INIWAV =      1    electr: 0-lowe 1-rand  2-diag
   LASPH  =      F    aspherical Exc in radial PAW
   METAGGA=      F    non-selfconsistent MetaGGA calc.

 Electronic Relaxation 1
   ENCUT  =  400.0 eV  29.40 Ry    5.42 a.u.   6.11  6.11  6.11*2*pi/ulx,y,z
   ENINI  =  400.0     initial cutoff
   ENAUG  =  644.9 eV  augmentation charge cutoff
   NELM   =     60;   NELMIN=  2; NELMDL= -5     # of ELM steps 
   EDIFF  = 0.1E-05   stopping-criterion for ELM
   LREAL  =      F    real-space projection
   NLSPLINE    = F    spline interpolate recip. space projectors
   LCOMPAT=      F    compatible to vasp.4.4
   GGA_COMPAT  = T    GGA compatible to vasp.4.4-vasp.4.6
   LMAXPAW     = -100 max onsite density
   LMAXMIX     =    2 max onsite mixed and CHGCAR
   VOSKOWN=      0    Vosko Wilk Nusair interpolation
   ROPT   =    0.00000
 Ionic relaxation
   EDIFFG = 0.1E-04   stopping-criterion for IOM
   NSW    =      0    number of steps for IOM
   NBLOCK =      1;   KBLOCK =      1    inner block; outer block 
   IBRION =     -1    ionic relax: 0-MD 1-quasi-New 2-CG
   NFREE  =      0    steps in history (QN), initial steepest desc. (CG)
   ISIF   =      2    stress and relaxation
   IWAVPR =     10    prediction:  0-non 1-charg 2-wave 3-comb
   ISYM   =      2    0-nonsym 1-usesym 2-fastsym
   LCORR  =      T    Harris-Foulkes like correction to forces

   POTIM  = 0.0200    time-step for ionic-motion
   TEIN   =    0.0    initial temperature
   TEBEG  =    0.0;   TEEND  =   0.0 temperature during run
   SMASS  =  -3.00    Nose mass-parameter (am)
   estimated Nose-frequenzy (Omega)   =  0.10E-29 period in steps =****** mass=  -0.321E-27a.u.
   SCALEE = 1.0000    scale energy and forces
   NPACO  =    256;   APACO  = 16.0  distance and # of slots for P.C.
   PSTRESS=    0.0 pullay stress

  Mass of Ions in am
   POMASS =  12.01
  Ionic Valenz
   ZVAL   =   4.00
  Atomic Wigner-Seitz radii
   RWIGS  =  -1.00
  virtual crystal weights 
   VCA    =   1.00
   NELECT =      32.0000    total number of electrons
   NUPDOWN=      -1.0000    fix difference up-down

 DOS related values:
   EMIN   =  10.00;   EMAX   =-10.00  energy-range for DOS
   EFERMI =   0.00
   ISMEAR =    -5;   SIGMA  =   0.06  broadening in eV -4-tet -1-fermi 0-gaus

 Electronic relaxation 2 (details)
   IALGO  =     38    algorithm
   LDIAG  =      T    sub-space diagonalisation (order eigenvalues)
   LSUBROT=      F    optimize rotation matrix (better conditioning)
   TURBO    =      0    0=normal 1=particle mesh
   IRESTART =      0    0=no restart 2=restart with 2 vectors
   NREBOOT  =      0    no. of reboots
   NMIN     =      0    reboot dimension
   EREF     =   0.00    reference energy to select bands
   IMIX   =      4    mixing-type and parameters
     AMIX     =   0.40;   BMIX     =  1.00
     AMIX_MAG =   1.60;   BMIX_MAG =  1.00
     AMIN     =   0.10
     WC   =   100.;   INIMIX=   1;  MIXPRE=   1;  MAXMIX= -45

 Intra band minimization:
   WEIMIN = 0.0000     energy-eigenvalue tresh-hold
   EBREAK =  0.10E-07  absolut break condition
   DEPER  =   0.30     relativ break condition  

   TIME   =   0.40     timestep for ELM

  volume/ion in A,a.u.               =       6.58        44.42
  Fermi-wavevector in a.u.,A,eV,Ry     =   1.386679  2.620443 26.162336  1.922877
  Thomas-Fermi vector in A             =   2.510972
 
 Write flags
   LWAVE        =      F    write WAVECAR
   LDOWNSAMPLE  =      F    k-point downsampling of WAVECAR
   LCHARG       =      F    write CHGCAR
   LVTOT        =      F    write LOCPOT, total local potential
   LVHAR        =      F    write LOCPOT, Hartree potential only
   LELF         =      F    write electronic localiz. function (ELF)
   LORBIT       =      0    0 simple, 1 ext, 2 COOP (PROOUT), +10 PAW based schemes


 Dipole corrections
   LMONO  =      F    monopole corrections only (constant potential shift)
   LDIPOL =      F    correct potential (dipole corrections)
   IDIPOL =      0    1-x, 2-y, 3-z, 4-all directions 
   EPSILON=  1.0000000 bulk dielectric constant

 Exchange correlation treatment:
   GGA     =    --    GGA type
   LEXCH   =     8    internal setting for exchange type
   VOSKOWN=      0    Vosko Wilk Nusair interpolation
   LHFCALC =     F    Hartree Fock is set to
   LHFONE  =     F    Hartree Fock one center treatment
   AEXX    =    0.0000 exact exchange contribution

 Linear response parameters
   LEPSILON=     F    determine dielectric tensor
   LRPA    =     F    only Hartree local field effects (RPA)
   LNABLA  =     F    use nabla operator in PAW spheres
   LVEL    =     F    velocity operator in full k-point grid
   LINTERFAST=   F  fast interpolation
   KINTER  =     0    interpolate to denser k-point grid
   CSHIFT  =0.1000    complex shift for real part using Kramers Kronig
   OMEGAMAX=  -1.0    maximum frequency
   DEG_THRESHOLD= 0.2000000E-02 threshold for treating states as degnerate
   RTIME   =   -0.100 relaxation time in fs
  (WPLASMAI=    0.000 imaginary part of plasma frequency in eV, 0.658/RTIME)
   DFIELD  = 0.0000000 0.0000000 0.0000000 field for delta impulse in time
 
 Orbital magnetization related:
   ORBITALMAG=     F  switch on orbital magnetization
   LCHIMAG   =     F  perturbation theory with respect to B field
   DQ        =  0.001000  dq finite difference perturbation B field
   LLRAUG    =     F  two centre corrections for induced B field



--------------------------------------------------------------------------------------------------------


 Static calculation
 charge density and potential will be updated during run
 non-spin polarized calculation
 Variant of blocked Davidson
 Davidson routine will perform the subspace rotation
 perform sub-space diagonalisation
    after iterative eigenvector-optimisation
 modified Broyden-mixing scheme, WC =      100.0
 initial mixing is a Kerker type mixing with AMIX =  0.4000 and BMIX =      1.0000
 Hartree-type preconditioning will be used
 using additional bands            8
 reciprocal scheme for non local part
 calculate Harris-corrections to forces 
   (improved forces if not selfconsistent)
 use gradient corrections 
 use of overlap-Matrix (Vanderbilt PP)
 Fermi weights with tetrahedron method with Bloechl corrections


--------------------------------------------------------------------------------------------------------


  energy-cutoff  :      400.00
  volume of cell :       52.66
      direct lattice vectors                 reciprocal lattice vectors
     3.748139000  0.000000000  0.000000000     0.266799070  0.000000000  0.000000000
     0.000000000  3.748139000  0.000000000     0.000000000  0.266799070  0.000000000
     0.000000000  0.000000000  3.748139000     0.000000000  0.000000000  0.266799070

  length of vectors
     3.748139000  3.748139000  3.748139000     0.266799070  0.266799070  0.266799070


 
 k-points in units of 2pi/SCALE and weight: kpt_density=1000                        
   0.00000000  0.00000000  0.00000000       0.001
   0.02223326  0.00000000  0.00000000       0.003
   0.04446651  0.00000000  0.00000000       0.003
   0.06669977  0.00000000  0.00000000       0.003
   0.08893302  0.00000000  0.00000000       0.003
   0.11116628  0.00000000  0.00000000       0.003
   0.13339954  0.00000000  0.00000000       0.002
   0.02223326  0.02223326  0.00000000       0.007
   0.04446651  0.02223326  0.00000000       0.014
   0.06669977  0.02223326  0.00000000       0.014
   0.08893302  0.02223326  0.00000000       0.014
   0.11116628  0.02223326  0.00000000       0.014
   0.13339954  0.02223326  0.00000000       0.007
   0.04446651  0.04446651  0.00000000       0.007
   0.06669977  0.04446651  0.00000000       0.014
   0.08893302  0.04446651  0.00000000       0.014
   0.11116628  0.04446651  0.00000000       0.014
   0.13339954  0.04446651  0.00000000       0.007
   0.06669977  0.06669977  0.00000000       0.007
   0.08893302  0.06669977  0.00000000       0.014
   0.11116628  0.06669977  0.00000000       0.014
   0.13339954  0.06669977  0.00000000       0.007
   0.08893302  0.08893302  0.00000000       0.007
   0.11116628  0.08893302  0.00000000       0.014
   0.13339954  0.08893302  0.00000000       0.007
   0.11116628  0.11116628  0.00000000       0.007
   0.13339954  0.11116628  0.00000000       0.007
   0.13339954  0.13339954  0.00000000       0.002
   0.02223326  0.02223326  0.02223326       0.005
   0.04446651  0.02223326  0.02223326       0.014
   0.06669977  0.02223326  0.02223326       0.014
   0.08893302  0.02223326  0.02223326       0.014
   0.11116628  0.02223326  0.02223326       0.014
   0.13339954  0.02223326  0.02223326       0.007
   0.04446651  0.04446651  0.02223326       0.014
   0.06669977  0.04446651  0.02223326       0.028
   0.08893302  0.04446651  0.02223326       0.028
   0.11116628  0.04446651  0.02223326       0.028
   0.13339954  0.04446651  0.02223326       0.014
   0.06669977  0.06669977  0.02223326       0.014
   0.08893302  0.06669977  0.02223326       0.028
   0.11116628  0.06669977  0.02223326       0.028
   0.13339954  0.06669977  0.02223326       0.014
   0.08893302  0.08893302  0.02223326       0.014
   0.11116628  0.08893302  0.02223326       0.028
   0.13339954  0.08893302  0.02223326       0.014
   0.11116628  0.11116628  0.02223326       0.014
   0.13339954  0.11116628  0.02223326       0.014
   0.13339954  0.13339954  0.02223326       0.003
   0.04446651  0.04446651  0.04446651       0.005
   0.06669977  0.04446651  0.04446651       0.014
   0.08893302  0.04446651  0.04446651       0.014
   0.11116628  0.04446651  0.04446651       0.014
   0.13339954  0.04446651  0.04446651       0.007
   0.06669977  0.06669977  0.04446651       0.014
   0.08893302  0.06669977  0.04446651       0.028
   0.11116628  0.06669977  0.04446651       0.028
   0.13339954  0.06669977  0.04446651       0.014
   0.08893302  0.08893302  0.04446651       0.014
   0.11116628  0.08893302  0.04446651       0.028
   0.13339954  0.08893302  0.04446651       0.014
   0.11116628  0.11116628  0.04446651       0.014
   0.13339954  0.11116628  0.04446651       0.014
   0.13339954  0.13339954  0.04446651       0.003
   0.06669977  0.06669977  0.06669977       0.005
   0.08893302  0.06669977  0.06669977       0.014
   0.11116628  0.06669977  0.06669977       0.014
   0.13339954  0.06669977  0.06669977       0.007
   0.08893302  0.08893302  0.06669977       0.014
   0.11116628  0.08893302  0.06669977       0.028
   0.13339954  0.08893302  0.06669977       0.014
   0.11116628  0.11116628  0.06669977       0.014
   0.13339954  0.11116628  0.06669977       0.014
   0.13339954  0.13339954  0.06669977       0.003
   0.08893302  0.08893302  0.08893302       0.005
   0.11116628  0.08893302  0.08893302       0.014
   0.13339954  0.08893302  0.08893302       0.007
   0.11116628  0.11116628  0.08893302       0.014
   0.13339954  0.11116628  0.08893302       0.014
   0.13339954  0.13339954  0.08893302       0.003
   0.11116628  0.11116628  0.11116628       0.005
   0.13339954  0.11116628  0.11116628       0.007
   0.13339954  0.13339954  0.11116628       0.003
   0.13339954  0.13339954  0.13339954       0.001
 
 k-points in reciprocal lattice and weights: kpt_density=1000                        
   0.00000000  0.00000000  0.00000000       0.001
   0.08333333  0.00000000  0.00000000       0.003
   0.16666667  0.00000000  0.00000000       0.003
   0.25000000  0.00000000  0.00000000       0.003
   0.33333333  0.00000000  0.00000000       0.003
   0.41666667  0.00000000  0.00000000       0.003
   0.50000000  0.00000000  0.00000000       0.002
   0.08333333  0.08333333  0.00000000       0.007
   0.16666667  0.08333333  0.00000000       0.014
   0.25000000  0.08333333  0.00000000       0.014
   0.33333333  0.08333333  0.00000000       0.014
   0.41666667  0.08333333  0.00000000       0.014
   0.50000000  0.08333333  0.00000000       0.007
   0.16666667  0.16666667  0.00000000       0.007
   0.25000000  0.16666667  0.00000000       0.014
   0.33333333  0.16666667  0.00000000       0.014
   0.41666667  0.16666667  0.00000000       0.014
   0.50000000  0.16666667  0.00000000       0.007
   0.25000000  0.25000000  0.00000000       0.007
   0.33333333  0.25000000  0.00000000       0.014
   0.41666667  0.25000000  0.00000000       0.014
   0.50000000  0.25000000  0.00000000       0.007
   0.33333333  0.33333333  0.00000000       0.007
   0.41666667  0.33333333  0.00000000       0.014
   0.50000000  0.33333333  0.00000000       0.007
   0.41666667  0.41666667  0.00000000       0.007
   0.50000000  0.41666667  0.00000000       0.007
   0.50000000  0.50000000  0.00000000       0.002
   0.08333333  0.08333333  0.08333333       0.005
   0.16666667  0.08333333  0.08333333       0.014
   0.25000000  0.08333333  0.08333333       0.014
   0.33333333  0.08333333  0.08333333       0.014
   0.41666667  0.08333333  0.08333333       0.014
   0.50000000  0.08333333  0.08333333       0.007
   0.16666667  0.16666667  0.08333333       0.014
   0.25000000  0.16666667  0.08333333       0.028
   0.33333333  0.16666667  0.08333333       0.028
   0.41666667  0.16666667  0.08333333       0.028
   0.50000000  0.16666667  0.08333333       0.014
   0.25000000  0.25000000  0.08333333       0.014
   0.33333333  0.25000000  0.08333333       0.028
   0.41666667  0.25000000  0.08333333       0.028
   0.50000000  0.25000000  0.08333333       0.014
   0.33333333  0.33333333  0.08333333       0.014
   0.41666667  0.33333333  0.08333333       0.028
   0.50000000  0.33333333  0.08333333       0.014
   0.41666667  0.41666667  0.08333333       0.014
   0.50000000  0.41666667  0.08333333       0.014
   0.50000000  0.50000000  0.08333333       0.003
   0.16666667  0.16666667  0.16666667       0.005
   0.25000000  0.16666667  0.16666667       0.014
   0.33333333  0.16666667  0.16666667       0.014
   0.41666667  0.16666667  0.16666667       0.014
   0.50000000  0.16666667  0.16666667       0.007
   0.25000000  0.25000000  0.16666667       0.014
   0.33333333  0.25000000  0.16666667       0.028
   0.41666667  0.25000000  0.16666667       0.028
   0.50000000  0.25000000  0.16666667       0.014
   0.33333333  0.33333333  0.16666667       0.014
   0.41666667  0.33333333  0.16666667       0.028
   0.50000000  0.33333333  0.16666667       0.014
   0.41666667  0.41666667  0.16666667       0.014
   0.50000000  0.41666667  0.16666667       0.014
   0.50000000  0.50000000  0.16666667       0.003
   0.25000000  0.25000000  0.25000000       0.005
   0.33333333  0.25000000  0.25000000       0.014
   0.41666667  0.25000000  0.25000000       0.014
   0.50000000  0.25000000  0.25000000       0.007
   0.33333333  0.33333333  0.25000000       0.014
   0.41666667  0.33333333  0.25000000       0.028
   0.50000000  0.33333333  0.25000000       0.014
   0.41666667  0.41666667  0.25000000       0.014
   0.50000000  0.41666667  0.25000000       0.014
   0.50000000  0.50000000  0.25000000       0.003
   0.33333333  0.33333333  0.33333333       0.005
   0.41666667  0.33333333  0.33333333       0.014
   0.50000000  0.33333333  0.33333333       0.007
   0.41666667  0.41666667  0.33333333       0.014
   0.50000000  0.41666667  0.33333333       0.014
   0.50000000  0.50000000  0.33333333       0.003
   0.41666667  0.41666667  0.41666667       0.005
   0.50000000  0.41666667  0.41666667       0.007
   0.50000000  0.50000000  0.41666667       0.003
   0.50000000  0.50000000  0.50000000       0.001
 
 position of ions in fractional coordinates (direct lattice) 
   0.25000000  0.75000000  0.25000000
   0.00000000  0.00000000  0.50000000
   0.25000000  0.25000000  0.75000000
   0.00000000  0.50000000  0.00000000
   0.75000000  0.75000000  0.75000000
   0.50000000  0.00000000  0.00000000
   0.75000000  0.25000000  0.25000000
   0.50000000  0.50000000  0.50000000
 
 position of ions in cartesian coordinates  (Angst):
   0.93703475  2.81110425  0.93703475
   0.00000000  0.00000000  1.87406950
   0.93703475  0.93703475  2.81110425
   0.00000000  1.87406950  0.00000000
   2.81110425  2.81110425  2.81110425
   1.87406950  0.00000000  0.00000000
   2.81110425  0.93703475  0.93703475
   1.87406950  1.87406950  1.87406950
 


--------------------------------------------------------------------------------------------------------


 k-point  1 :   0.0000 0.0000 0.0000  plane waves:     949
 k-point  2 :   0.0833 0.0000 0.0000  plane waves:     957
 k-point  3 :   0.1667 0.0000 0.0000  plane waves:     952
 k-point  4 :   0.2500 0.0000 0.0000  plane waves:     956
 k-point  5 :   0.3333 0.0000 0.0000  plane waves:     956
 k-point  6 :   0.4167 0.0000 0.0000  plane waves:     956
 k-point  7 :   0.5000 0.0000 0.0000  plane waves:     972
 k-point  8 :   0.0833 0.0833 0.0000  plane waves:     961
 k-point  9 :   0.1667 0.0833 0.0000  plane waves:     954
 k-point 10 :   0.2500 0.0833 0.0000  plane waves:     947
 k-point 11 :   0.3333 0.0833 0.0000  plane waves:     956
 k-point 12 :   0.4167 0.0833 0.0000  plane waves:     960
 k-point 13 :   0.5000 0.0833 0.0000  plane waves:     948
 k-point 14 :   0.1667 0.1667 0.0000  plane waves:     949
 k-point 15 :   0.2500 0.1667 0.0000  plane waves:     953
 k-point 16 :   0.3333 0.1667 0.0000  plane waves:     944
 k-point 17 :   0.4167 0.1667 0.0000  plane waves:     947
 k-point 18 :   0.5000 0.1667 0.0000  plane waves:     956
 k-point 19 :   0.2500 0.2500 0.0000  plane waves:     959
 k-point 20 :   0.3333 0.2500 0.0000  plane waves:     956
 k-point 21 :   0.4167 0.2500 0.0000  plane waves:     951
 k-point 22 :   0.5000 0.2500 0.0000  plane waves:     956
 k-point 23 :   0.3333 0.3333 0.0000  plane waves:     946
 k-point 24 :   0.4167 0.3333 0.0000  plane waves:     953
 k-point 25 :   0.5000 0.3333 0.0000  plane waves:     952
 k-point 26 :   0.4167 0.4167 0.0000  plane waves:     960
 k-point 27 :   0.5000 0.4167 0.0000  plane waves:     962
 k-point 28 :   0.5000 0.5000 0.0000  plane waves:     952
 k-point 29 :   0.0833 0.0833 0.0833  plane waves:     964
 k-point 30 :   0.1667 0.0833 0.0833  plane waves:     955
 k-point 31 :   0.2500 0.0833 0.0833  plane waves:     951
 k-point 32 :   0.3333 0.0833 0.0833  plane waves:     954
 k-point 33 :   0.4167 0.0833 0.0833  plane waves:     954
 k-point 34 :   0.5000 0.0833 0.0833  plane waves:     952
 k-point 35 :   0.1667 0.1667 0.0833  plane waves:     950
 k-point 36 :   0.2500 0.1667 0.0833  plane waves:     952
 k-point 37 :   0.3333 0.1667 0.0833  plane waves:     952
 k-point 38 :   0.4167 0.1667 0.0833  plane waves:     950
 k-point 39 :   0.5000 0.1667 0.0833  plane waves:     952
 k-point 40 :   0.2500 0.2500 0.0833  plane waves:     956
 k-point 41 :   0.3333 0.2500 0.0833  plane waves:     958
 k-point 42 :   0.4167 0.2500 0.0833  plane waves:     951
 k-point 43 :   0.5000 0.2500 0.0833  plane waves:     958
 k-point 44 :   0.3333 0.3333 0.0833  plane waves:     955
 k-point 45 :   0.4167 0.3333 0.0833  plane waves:     955
 k-point 46 :   0.5000 0.3333 0.0833  plane waves:     946
 k-point 47 :   0.4167 0.4167 0.0833  plane waves:     962
 k-point 48 :   0.5000 0.4167 0.0833  plane waves:     962
 k-point 49 :   0.5000 0.5000 0.0833  plane waves:     968
 k-point 50 :   0.1667 0.1667 0.1667  plane waves:     943
 k-point 51 :   0.2500 0.1667 0.1667  plane waves:     954
 k-point 52 :   0.3333 0.1667 0.1667  plane waves:     953
 k-point 53 :   0.4167 0.1667 0.1667  plane waves:     953
 k-point 54 :   0.5000 0.1667 0.1667  plane waves:     950
 k-point 55 :   0.2500 0.2500 0.1667  plane waves:     957
 k-point 56 :   0.3333 0.2500 0.1667  plane waves:     953
 k-point 57 :   0.4167 0.2500 0.1667  plane waves:     952
 k-point 58 :   0.5000 0.2500 0.1667  plane waves:     952
 k-point 59 :   0.3333 0.3333 0.1667  plane waves:     966
 k-point 60 :   0.4167 0.3333 0.1667  plane waves:     962
 k-point 61 :   0.5000 0.3333 0.1667  plane waves:     958
 k-point 62 :   0.4167 0.4167 0.1667  plane waves:     964
 k-point 63 :   0.5000 0.4167 0.1667  plane waves:     964
 k-point 64 :   0.5000 0.5000 0.1667  plane waves:     976
 k-point 65 :   0.2500 0.2500 0.2500  plane waves:     958
 k-point 66 :   0.3333 0.2500 0.2500  plane waves:     957
 k-point 67 :   0.4167 0.2500 0.2500  plane waves:     962
 k-point 68 :   0.5000 0.2500 0.2500  plane waves:     956
 k-point 69 :   0.3333 0.3333 0.2500  plane waves:     961
 k-point 70 :   0.4167 0.3333 0.2500  plane waves:     968
 k-point 71 :   0.5000 0.3333 0.2500  plane waves:     960
 k-point 72 :   0.4167 0.4167 0.2500  plane waves:     963
 k-point 73 :   0.5000 0.4167 0.2500  plane waves:     970
 k-point 74 :   0.5000 0.5000 0.2500  plane waves:     968
 k-point 75 :   0.3333 0.3333 0.3333  plane waves:     961
 k-point 76 :   0.4167 0.3333 0.3333  plane waves:     960
 k-point 77 :   0.5000 0.3333 0.3333  plane waves:     958
 k-point 78 :   0.4167 0.4167 0.3333  plane waves:     969
 k-point 79 :   0.5000 0.4167 0.3333  plane waves:     962
 k-point 80 :   0.5000 0.5000 0.3333  plane waves:     964
 k-point 81 :   0.4167 0.4167 0.4167  plane waves:     967
 k-point 82 :   0.5000 0.4167 0.4167  plane waves:     954
 k-point 83 :   0.5000 0.5000 0.4167  plane waves:     960
 k-point 84 :   0.5000 0.5000 0.5000  plane waves:     968

 maximum and minimum number of plane-waves per node :       258      226

 maximum number of plane-waves:       976
 maximum index in each direction: 
   IXMAX=    6   IYMAX=    6   IZMAX=    6
   IXMIN=   -6   IYMIN=   -6   IZMIN=   -6


 parallel 3D FFT for wavefunctions:
    minimum data exchange during FFTs selected (reduces bandwidth)
 parallel 3D FFT for charge:
    minimum data exchange during FFTs selected (reduces bandwidth)


 total amount of memory used by VASP MPI-rank0    34489. kBytes
=======================================================================

   base      :      30000. kBytes
   nonl-proj :       1431. kBytes
   fftplans  :        346. kBytes
   grid      :        481. kBytes
   one-center:          6. kBytes
   wavefun   :       2225. kBytes
 
     INWAV:  cpu time    0.0004: real time    0.0005
 Broyden mixing: mesh for mixing (old mesh)
   NGX = 13   NGY = 13   NGZ = 13
  (NGX  = 48   NGY  = 48   NGZ  = 48)
  gives a total of   2197 points

 initial charge density was supplied:
 charge density of overlapping atoms calculated
 number of electron      32.0000000 magnetization 
 keeping initial charge density in first step


--------------------------------------------------------------------------------------------------------


 Maximum index for augmentation-charges          249 (set IRDMAX)


--------------------------------------------------------------------------------------------------------


 First call to EWALD:  gamma=   0.473
 Maximum number of real-space cells 3x 3x 3
 Maximum number of reciprocal cells 3x 3x 3

    FEWALD:  cpu time    0.0052: real time    0.0052


--------------------------------------- Iteration      1(   1)  ---------------------------------------


    POTLOK:  cpu time    0.0273: real time    0.0312
    SETDIJ:  cpu time    0.0065: real time    0.0065
     EDDAV:  cpu time    4.2620: real time    4.2711
 BZINTS: Fermi energy: 16.281371; 32.000000 electrons
         Band energy:  87.621503;  BLOECHL correction: -0.145704
       DOS:  cpu time    0.1649: real time    0.1649
    --------------------------------------------
      LOOP:  cpu time    4.4609: real time    4.4737

 eigenvalue-minimisations  :  4032
 total energy-change (2. order) : 0.5660729E+02  (-0.1407372E+04)
 number of electron      32.0000000 magnetization 
 augmentation part       32.0000000 magnetization 

 Free energy of the ion-electron system (eV)
  ---------------------------------------------------
  alpha Z        PSCENC =        99.03411008
  Ewald energy   TEWEN  =     -1324.49728778
  -Hartree energ DENC   =       -84.15006645
  -exchange      EXHF   =         0.00000000
  -V(xc)+E(xc)   XCENC  =       110.78507600
  PAW double counting   =       302.65154477     -311.85538214
  entropy T*S    EENTRO =         0.00000000
  eigenvalues    EBANDS =        87.62150284
  atomic energy  EATOM  =      1177.01779097
  Solvation  Ediel_sol  =         0.00000000
  ---------------------------------------------------
  free energy    TOTEN  =        56.60728830 eV

  energy without entropy =       56.60728830  energy(sigma->0) =       56.60728830


--------------------------------------------------------------------------------------------------------




--------------------------------------- Iteration      1(   2)  ---------------------------------------


     EDDAV:  cpu time    5.2607: real time    5.2612
 BZINTS: Fermi energy:  7.500848; 32.000000 electrons
         Band energy: -37.599995;  BLOECHL correction:  0.000000
       DOS:  cpu time    0.0503: real time    0.0503
    --------------------------------------------
      LOOP:  cpu time    5.3110: real time    5.3115

 eigenvalue-minimisations  :  5600
 total energy-change (2. order) :-0.1252215E+03  (-0.1185711E+03)
 number of electron      32.0000000 magnetization 
 augmentation part       32.0000000 magnetization 

 Free energy of the ion-electron system (eV)
  ---------------------------------------------------
  alpha Z        PSCENC =        99.03411008
  Ewald energy   TEWEN  =     -1324.49728778
  -Hartree energ DENC   =       -84.15006645
  -exchange      EXHF   =         0.00000000
  -V(xc)+E(xc)   XCENC  =       110.78507600
  PAW double counting   =       302.65154477     -311.85538214
  entropy T*S    EENTRO =         0.00000000
  eigenvalues    EBANDS =       -37.59999523
  atomic energy  EATOM  =      1177.01779097
  Solvation  Ediel_sol  =         0.00000000
  ---------------------------------------------------
  free energy    TOTEN  =       -68.61420978 eV

  energy without entropy =      -68.61420978  energy(sigma->0) =      -68.61420978


--------------------------------------------------------------------------------------------------------




--------------------------------------- Iteration      1(   3)  ---------------------------------------


     EDDAV:  cpu time    5.0611: real time    5.1318
 BZINTS: Fermi energy:  6.652354; 32.000000 electrons
         Band energy: -42.042778;  BLOECHL correction:  0.000000
       DOS:  cpu time    0.0409: real time    0.0409
    --------------------------------------------
      LOOP:  cpu time    5.1021: real time    5.1727

 eigenvalue-minimisations  :  5248
 total energy-change (2. order) :-0.4442783E+01  (-0.4416493E+01)
 number of electron      32.0000000 magnetization 
 augmentation part       32.0000000 magnetization 

 Free energy of the ion-electron system (eV)
  ---------------------------------------------------
  alpha Z        PSCENC =        99.03411008
  Ewald energy   TEWEN  =     -1324.49728778
  -Hartree energ DENC   =       -84.15006645
  -exchange      EXHF   =         0.00000000
  -V(xc)+E(xc)   XCENC  =       110.78507600
  PAW double counting   =       302.65154477     -311.85538214
  entropy T*S    EENTRO =         0.00000000
  eigenvalues    EBANDS =       -42.04277788
  atomic energy  EATOM  =      1177.01779097
  Solvation  Ediel_sol  =         0.00000000
  ---------------------------------------------------
  free energy    TOTEN  =       -73.05699243 eV

  energy without entropy =      -73.05699243  energy(sigma->0) =      -73.05699243


--------------------------------------------------------------------------------------------------------




--------------------------------------- Iteration      1(   4)  ---------------------------------------


     EDDAV:  cpu time    5.0549: real time    5.0558
 BZINTS: Fermi energy:  6.575917; 32.000000 electrons
         Band energy: -42.097246;  BLOECHL correction:  0.000000
       DOS:  cpu time    0.0367: real time    0.0367
    --------------------------------------------
      LOOP:  cpu time    5.0916: real time    5.0925

 eigenvalue-minimisations  :  5216
 total energy-change (2. order) :-0.5446782E-01  (-0.5441105E-01)
 number of electron      32.0000000 magnetization 
 augmentation part       32.0000000 magnetization 

 Free energy of the ion-electron system (eV)
  ---------------------------------------------------
  alpha Z        PSCENC =        99.03411008
  Ewald energy   TEWEN  =     -1324.49728778
  -Hartree energ DENC   =       -84.15006645
  -exchange      EXHF   =         0.00000000
  -V(xc)+E(xc)   XCENC  =       110.78507600
  PAW double counting   =       302.65154477     -311.85538214
  entropy T*S    EENTRO =         0.00000000
  eigenvalues    EBANDS =       -42.09724570
  atomic energy  EATOM  =      1177.01779097
  Solvation  Ediel_sol  =         0.00000000
  ---------------------------------------------------
  free energy    TOTEN  =       -73.11146025 eV

  energy without entropy =      -73.11146025  energy(sigma->0) =      -73.11146025


--------------------------------------------------------------------------------------------------------




--------------------------------------- Iteration      1(   5)  ---------------------------------------


     EDDAV:  cpu time    5.1030: real time    5.1039
 BZINTS: Fermi energy:  6.594445; 32.000000 electrons
         Band energy: -42.098597;  BLOECHL correction:  0.000000
       DOS:  cpu time    0.0367: real time    0.0367
    CHARGE:  cpu time    0.1320: real time    0.1319
    MIXING:  cpu time    0.0018: real time    0.0018
    --------------------------------------------
      LOOP:  cpu time    5.2736: real time    5.2745

 eigenvalue-minimisations  :  5248
 total energy-change (2. order) :-0.1350806E-02  (-0.1350266E-02)
 number of electron      31.9999982 magnetization 
 augmentation part        0.6718783 magnetization 

 Broyden mixing:
  rms(total) = 0.79248E+00    rms(broyden)= 0.79239E+00
  rms(prec ) = 0.18000E+01
  weight for this iteration     100.00

 Free energy of the ion-electron system (eV)
  ---------------------------------------------------
  alpha Z        PSCENC =        99.03411008
  Ewald energy   TEWEN  =     -1324.49728778
  -Hartree energ DENC   =       -84.15006645
  -exchange      EXHF   =         0.00000000
  -V(xc)+E(xc)   XCENC  =       110.78507600
  PAW double counting   =       302.65154477     -311.85538214
  entropy T*S    EENTRO =         0.00000000
  eigenvalues    EBANDS =       -42.09859651
  atomic energy  EATOM  =      1177.01779097
  Solvation  Ediel_sol  =         0.00000000
  ---------------------------------------------------
  free energy    TOTEN  =       -73.11281106 eV

  energy without entropy =      -73.11281106  energy(sigma->0) =      -73.11281106


--------------------------------------------------------------------------------------------------------




--------------------------------------- Iteration      1(   6)  ---------------------------------------


    POTLOK:  cpu time    0.0207: real time    0.0211
    SETDIJ:  cpu time    0.0057: real time    0.0057
     EDDAV:  cpu time    4.7376: real time    4.7378
 BZINTS: Fermi energy:  7.099168; 32.000000 electrons
         Band energy: -28.791870;  BLOECHL correction:  0.000000
       DOS:  cpu time    0.0364: real time    0.0364
    CHARGE:  cpu time    0.1340: real time    0.1341
    MIXING:  cpu time    0.0021: real time    0.0054
    --------------------------------------------
      LOOP:  cpu time    4.9364: real time    4.9404

 eigenvalue-minimisations  :  4728
 total energy-change (2. order) : 0.1145860E+01  (-0.7878631E-01)
 number of electron      31.9999983 magnetization 
 augmentation part        0.6587834 magnetization 

 Broyden mixing:
  rms(total) = 0.44674E+00    rms(broyden)= 0.44674E+00
  rms(prec ) = 0.99508E+00
  weight for this iteration     100.00

 eigenvalues of (default mixing * dielectric matrix)
  average eigenvalue GAMMA=   2.2329
  2.2329

 Free energy of the ion-electron system (eV)
  ---------------------------------------------------
  alpha Z        PSCENC =        99.03411008
  Ewald energy   TEWEN  =     -1324.49728778
  -Hartree energ DENC   =       -97.14419437
  -exchange      EXHF   =         0.00000000
  -V(xc)+E(xc)   XCENC  =       111.98101046
  PAW double counting   =       368.50013856     -378.06664936
  entropy T*S    EENTRO =         0.00000000
  eigenvalues    EBANDS =       -28.79187007
  atomic energy  EATOM  =      1177.01779097
  Solvation  Ediel_sol  =         0.00000000
  ---------------------------------------------------
  free energy    TOTEN  =       -71.96695151 eV

  energy without entropy =      -71.96695151  energy(sigma->0) =      -71.96695151


--------------------------------------------------------------------------------------------------------




--------------------------------------- Iteration      1(   7)  ---------------------------------------


    POTLOK:  cpu time    0.0206: real time    0.0211
    SETDIJ:  cpu time    0.0058: real time    0.0058
     EDDAV:  cpu time    4.8553: real time    4.8556
 BZINTS: Fermi energy:  7.814304; 32.000000 electrons
         Band energy: -12.842526;  BLOECHL correction:  0.000000
       DOS:  cpu time    0.0409: real time    0.0409
    CHARGE:  cpu time    0.1338: real time    0.1338
    MIXING:  cpu time    0.0024: real time    0.0028
    --------------------------------------------
      LOOP:  cpu time    5.0589: real time    5.0601

 eigenvalue-minimisations  :  4896
 total energy-change (2. order) : 0.3884148E+00  (-0.9332066E-01)
 number of electron      31.9999983 magnetization 
 augmentation part        0.6448273 magnetization 

 Broyden mixing:
  rms(total) = 0.64189E-01    rms(broyden)= 0.64135E-01
  rms(prec ) = 0.11180E+00
  weight for this iteration     100.00

 eigenvalues of (default mixing * dielectric matrix)
  average eigenvalue GAMMA=   2.2606
  1.9937  2.5275

 Free energy of the ion-electron system (eV)
  ---------------------------------------------------
  alpha Z        PSCENC =        99.03411008
  Ewald energy   TEWEN  =     -1324.49728778
  -Hartree energ DENC   =      -113.94165489
  -exchange      EXHF   =         0.00000000
  -V(xc)+E(xc)   XCENC  =       113.55633918
  PAW double counting   =       456.26815609     -466.17346403
  entropy T*S    EENTRO =         0.00000000
  eigenvalues    EBANDS =       -12.84252634
  atomic energy  EATOM  =      1177.01779097
  Solvation  Ediel_sol  =         0.00000000
  ---------------------------------------------------
  free energy    TOTEN  =       -71.57853672 eV

  energy without entropy =      -71.57853672  energy(sigma->0) =      -71.57853672


--------------------------------------------------------------------------------------------------------




--------------------------------------- Iteration      1(   8)  ---------------------------------------


    POTLOK:  cpu time    0.0237: real time    0.0471
    SETDIJ:  cpu time    0.0059: real time    0.0059
     EDDAV:  cpu time    5.0432: real time    5.0439
 BZINTS: Fermi energy:  7.808328; 32.000000 electrons
         Band energy: -12.675428;  BLOECHL correction:  0.000000
       DOS:  cpu time    0.0417: real time    0.0718
    CHARGE:  cpu time    0.1266: real time    0.1267
    MIXING:  cpu time    0.0020: real time    0.0020
    --------------------------------------------
      LOOP:  cpu time    5.2431: real time    5.2972

 eigenvalue-minimisations  :  5208
 total energy-change (2. order) :-0.5709213E-02  (-0.1978874E-02)
 number of electron      31.9999983 magnetization 
 augmentation part        0.6458299 magnetization 

 Broyden mixing:
  rms(total) = 0.72149E-02    rms(broyden)= 0.72028E-02
  rms(prec ) = 0.12569E-01
  weight for this iteration     100.00

 eigenvalues of (default mixing * dielectric matrix)
  average eigenvalue GAMMA=   2.1055
  1.4491  2.6756  2.1918

 Free energy of the ion-electron system (eV)
  ---------------------------------------------------
  alpha Z        PSCENC =        99.03411008
  Ewald energy   TEWEN  =     -1324.49728778
  -Hartree energ DENC   =      -114.25932526
  -exchange      EXHF   =         0.00000000
  -V(xc)+E(xc)   XCENC  =       113.58707706
  PAW double counting   =       459.60639442     -469.39757755
  entropy T*S    EENTRO =         0.00000000
  eigenvalues    EBANDS =       -12.67542788
  atomic energy  EATOM  =      1177.01779097
  Solvation  Ediel_sol  =         0.00000000
  ---------------------------------------------------
  free energy    TOTEN  =       -71.58424593 eV

  energy without entropy =      -71.58424593  energy(sigma->0) =      -71.58424593


--------------------------------------------------------------------------------------------------------




--------------------------------------- Iteration      1(   9)  ---------------------------------------


    POTLOK:  cpu time    0.0209: real time    0.0212
    SETDIJ:  cpu time    0.0057: real time    0.0057
     EDDAV:  cpu time    4.9187: real time    4.9190
 BZINTS: Fermi energy:  7.800313; 32.000000 electrons
         Band energy: -12.771752;  BLOECHL correction:  0.000000
       DOS:  cpu time    0.0416: real time    0.0502
    CHARGE:  cpu time    0.1324: real time    0.1324
    MIXING:  cpu time    0.0021: real time    0.0021
    --------------------------------------------
      LOOP:  cpu time    5.1215: real time    5.1307

 eigenvalue-minimisations  :  5008
 total energy-change (2. order) :-0.2400603E-03  (-0.4364680E-04)
 number of electron      31.9999983 magnetization 
 augmentation part        0.6457732 magnetization 

 Broyden mixing:
  rms(total) = 0.26214E-02    rms(broyden)= 0.26207E-02
  rms(prec ) = 0.47871E-02
  weight for this iteration     100.00

 eigenvalues of (default mixing * dielectric matrix)
  average eigenvalue GAMMA=   2.0694
  0.9783  2.8138  2.5012  1.9841

 Free energy of the ion-electron system (eV)
  ---------------------------------------------------
  alpha Z        PSCENC =        99.03411008
  Ewald energy   TEWEN  =     -1324.49728778
  -Hartree energ DENC   =      -114.16627232
  -exchange      EXHF   =         0.00000000
  -V(xc)+E(xc)   XCENC  =       113.57802221
  PAW double counting   =       458.75917343     -468.53827058
  entropy T*S    EENTRO =         0.00000000
  eigenvalues    EBANDS =       -12.77175202
  atomic energy  EATOM  =      1177.01779097
  Solvation  Ediel_sol  =         0.00000000
  ---------------------------------------------------
  free energy    TOTEN  =       -71.58448599 eV

  energy without entropy =      -71.58448599  energy(sigma->0) =      -71.58448599


--------------------------------------------------------------------------------------------------------




--------------------------------------- Iteration      1(  10)  ---------------------------------------


    POTLOK:  cpu time    0.0223: real time    0.0226
    SETDIJ:  cpu time    0.0058: real time    0.0058
     EDDAV:  cpu time    5.0205: real time    5.0212
 BZINTS: Fermi energy:  7.799258; 32.000000 electrons
         Band energy: -12.728423;  BLOECHL correction:  0.000000
       DOS:  cpu time    0.0413: real time    0.0414
    CHARGE:  cpu time    0.1311: real time    0.1311
    MIXING:  cpu time    0.0023: real time    0.0023
    --------------------------------------------
      LOOP:  cpu time    5.2233: real time    5.2243

 eigenvalue-minimisations  :  5104
 total energy-change (2. order) :-0.5832564E-04  (-0.5960959E-05)
 number of electron      31.9999983 magnetization 
 augmentation part        0.6457461 magnetization 

 Broyden mixing:
  rms(total) = 0.25610E-03    rms(broyden)= 0.25555E-03
  rms(prec ) = 0.59376E-03
  weight for this iteration     100.00

 eigenvalues of (default mixing * dielectric matrix)
  average eigenvalue GAMMA=   1.9835
  2.9747  2.5623  2.0751  0.9816  1.3239

 Free energy of the ion-electron system (eV)
  ---------------------------------------------------
  alpha Z        PSCENC =        99.03411008
  Ewald energy   TEWEN  =     -1324.49728778
  -Hartree energ DENC   =      -114.21176689
  -exchange      EXHF   =         0.00000000
  -V(xc)+E(xc)   XCENC  =       113.58203651
  PAW double counting   =       458.37868468     -468.15968915
  entropy T*S    EENTRO =         0.00000000
  eigenvalues    EBANDS =       -12.72842274
  atomic energy  EATOM  =      1177.01779097
  Solvation  Ediel_sol  =         0.00000000
  ---------------------------------------------------
  free energy    TOTEN  =       -71.58454432 eV

  energy without entropy =      -71.58454432  energy(sigma->0) =      -71.58454432


--------------------------------------------------------------------------------------------------------




--------------------------------------- Iteration      1(  11)  ---------------------------------------


    POTLOK:  cpu time    0.0207: real time    0.0211
    SETDIJ:  cpu time    0.0061: real time    0.0061
     EDDAV:  cpu time    4.2244: real time    4.2247
 BZINTS: Fermi energy:  7.798330; 32.000000 electrons
         Band energy: -12.715791;  BLOECHL correction:  0.000000
       DOS:  cpu time    0.0410: real time    0.0410
    --------------------------------------------
      LOOP:  cpu time    4.2922: real time    4.2928

 eigenvalue-minimisations  :  3848
 total energy-change (2. order) :-0.2651880E-06  (-0.1181633E-06)
 number of electron      31.9999983 magnetization 
 augmentation part        0.6457461 magnetization 

 Free energy of the ion-electron system (eV)
  ---------------------------------------------------
  alpha Z        PSCENC =        99.03411008
  Ewald energy   TEWEN  =     -1324.49728778
  -Hartree energ DENC   =      -114.22501629
  -exchange      EXHF   =         0.00000000
  -V(xc)+E(xc)   XCENC  =       113.58328328
  PAW double counting   =       458.42441872     -468.20605232
  entropy T*S    EENTRO =         0.00000000
  eigenvalues    EBANDS =       -12.71579125
  atomic energy  EATOM  =      1177.01779097
  Solvation  Ediel_sol  =         0.00000000
  ---------------------------------------------------
  free energy    TOTEN  =       -71.58454458 eV

  energy without entropy =      -71.58454458  energy(sigma->0) =      -71.58454458


--------------------------------------------------------------------------------------------------------




 average (electrostatic) potential at core
  the test charge radii are     0.6991
  (the norm of the test charge is              1.0000)
       1 -47.4776       2 -47.4776       3 -47.4776       4 -47.4776       5 -47.4776
       6 -47.4776       7 -47.4776       8 -47.4776
 
 
 
 E-fermi :   7.7983     XC(G=0): -12.4911     alpha+bet :-15.2522


 k-point     1 :       0.0000    0.0000    0.0000
  band No.  band energies     occupation 
      1     -11.8657      2.00000
      2      -4.0701      2.00000
      3      -4.0701      2.00000
      4      -4.0701      2.00000
      5      -4.0701      2.00000
      6      -4.0701      2.00000
      7      -4.0701      2.00000
      8       2.2734      2.00000
      9       2.2734      2.00000
     10       2.2734      2.00000
     11       2.2734      2.00000
     12       2.2734      2.00000
     13       2.2734      2.00000
     14       7.7142      2.00000
     15       7.7142      2.00000
     16       7.7142      2.00000
     17      12.1584      0.00000
     18      12.1584      0.00000
     19      12.1584      0.00000
     20      12.1584      0.00000
     21      12.1584      0.00000
     22      12.1584      0.00000
     23      12.9094      0.00000
     24      12.9094      0.00000

 k-point     2 :       0.0833    0.0000    0.0000
  band No.  band energies     occupation 
      1     -11.8079      2.00000
      2      -5.2289      2.00000
      3      -4.0383      2.00000
      4      -4.0383      2.00000
      5      -4.0383      2.00000
      6      -4.0383      2.00000
      7      -2.8589      2.00000
      8       2.1512      2.00000
      9       2.1512      2.00000
     10       2.1512      2.00000
     11       2.1512      2.00000
     12       2.3286      2.00000
     13       2.3286      2.00000
     14       7.4970      2.00000
     15       7.4970      2.00000
     16       7.5504      2.00000
     17      11.8289      0.00000
     18      12.3913      0.00000
     19      12.3913      0.00000
     20      12.3913      0.00000
     21      12.3913      0.00000
     22      12.6190      0.00000
     23      12.8595      0.00000
     24      13.1732      0.00000

 k-point     3 :       0.1667    0.0000    0.0000
  band No.  band energies     occupation 
      1     -11.6349      2.00000
      2      -6.3199      2.00000
      3      -3.9477      2.00000
      4      -3.9477      2.00000
      5      -3.9477      2.00000
      6      -3.9477      2.00000
      7      -1.6109      2.00000
      8       1.8302      2.00000
      9       1.8302      2.00000
     10       1.8302      2.00000
     11       1.8302      2.00000
     12       2.4947      2.00000
     13       2.4947      2.00000
     14       6.9562      2.00000
     15       6.9562      2.00000
     16       7.0954      2.00000
     17      11.6264      0.00000
     18      12.7192      0.00000
     19      13.0472      0.00000
     20      13.0472      0.00000
     21      13.0472      0.00000
     22      13.0472      0.00000
     23      13.2218      0.00000
     24      13.8600      0.00000

 k-point     4 :       0.2500    0.0000    0.0000
  band No.  band energies     occupation 
      1     -11.3472      2.00000
      2      -7.3321      2.00000
      3      -3.8132      2.00000
      4      -3.8132      2.00000
      5      -3.8132      2.00000
      6      -3.8132      2.00000
      7      -0.3458      2.00000
      8       1.4130      2.00000
      9       1.4130      2.00000
     10       1.4130      2.00000
     11       1.4130      2.00000
     12       2.7623      2.00000
     13       2.7623      2.00000
     14       6.2604      2.00000
     15       6.2604      2.00000
     16       6.3882      2.00000
     17      11.5369      0.00000
     18      12.5129      0.00000
     19      13.9671      0.00000
     20      14.0292      0.00000
     21      14.0292      0.00000
     22      14.0292      0.00000
     23      14.0293      0.00000
     24      14.7851      0.00000

 k-point     5 :       0.3333    0.0000    0.0000
  band No.  band energies     occupation 
      1     -10.9462      2.00000
      2      -8.2561      2.00000
      3      -3.6635      2.00000
      4      -3.6635      2.00000
      5      -3.6635      2.00000
      6      -3.6635      2.00000
      7       0.9162      2.00000
      8       1.0062      2.00000
      9       1.0062      2.00000
     10       1.0062      2.00000
     11       1.0062      2.00000
     12       3.1389      2.00000
     13       3.1389      2.00000
     14       5.4942      2.00000
     15       5.5314      2.00000
     16       5.5314      2.00000
     17      11.5483      0.00000
     18      12.2698      0.00000
     19      14.8451      0.00000
     20      15.2292      0.00000
     21      15.2292      0.00000
     22      15.2292      0.00000
     23      15.2292      0.00000
     24      15.8322      0.00000

 k-point     6 :       0.4167    0.0000    0.0000
  band No.  band energies     occupation 
      1     -10.4336      2.00000
      2      -9.0847      2.00000
      3      -3.5416      2.00000
      4      -3.5416      2.00000
      5      -3.5416      2.00000
      6      -3.5416      2.00000
      7       0.7095      2.00000
      8       0.7095      2.00000
      9       0.7095      2.00000
     10       0.7095      2.00000
     11       2.1541      2.00000
     12       3.6159      2.00000
     13       3.6159      2.00000
     14       4.4695      2.00000
     15       4.8286      2.00000
     16       4.8286      2.00000
     17      11.6427      0.00000
     18      12.0281      0.00000
     19      15.8198      0.00000
     20      16.5471      0.00000
     21      16.5471      0.00000
     22      16.5471      0.00000
     23      16.5479      0.00000
     24      16.9335      0.00000

 k-point     7 :       0.5000    0.0000    0.0000
  band No.  band energies     occupation 
      1      -9.8120      2.00000
      2      -9.8120      2.00000
      3      -3.4937      2.00000
      4      -3.4937      2.00000
      5      -3.4937      2.00000
      6      -3.4937      2.00000
      7       0.5986      2.00000
      8       0.5986      2.00000
      9       0.5986      2.00000
     10       0.5986      2.00000
     11       3.3475      2.00000
     12       3.3475      2.00000
     13       4.1828      2.00000
     14       4.1828      2.00000
     15       4.1828      2.00000
     16       4.1828      2.00000
     17      11.8100      0.00000
     18      11.8100      0.00000
     19      16.8105      0.00000
     20      16.8105      0.00000
     21      17.6653      0.00000
     22      17.6654      0.00000
     23      17.6662      0.00000
     24      17.6680      0.00000

 k-point     8 :       0.0833    0.0833    0.0000
  band No.  band energies     occupation 
      1     -11.7502      2.00000
      2      -5.1886      2.00000
      3      -5.1886      2.00000
      4      -4.0536      2.00000
      5      -3.9636      2.00000
      6      -2.8403      2.00000
      7      -2.8403      2.00000
      8       1.7353      2.00000
      9       2.1927      2.00000
     10       2.1927      2.00000
     11       2.2248      2.00000
     12       2.2248      2.00000
     13       2.3679      2.00000
     14       7.0719      2.00000
     15       7.2855      2.00000
     16       7.6439      2.00000
     17      12.0682      0.00000
     18      12.0682      0.00000
     19      12.2526      0.00000
     20      12.8437      0.00000
     21      12.8437      0.00000
     22      12.9576      0.00000
     23      13.0236      0.00000
     24      13.2206      0.00000

 k-point     9 :       0.1667    0.0833    0.0000
  band No.  band energies     occupation 
      1     -11.5773      2.00000
      2      -6.2741      2.00000
      3      -5.0706      2.00000
      4      -4.0240      2.00000
      5      -3.8256      2.00000
      6      -2.7921      2.00000
      7      -1.6137      2.00000
      8       1.2201      2.00000
      9       1.8346      2.00000
     10       1.9589      2.00000
     11       2.3384      2.00000
     12       2.3469      2.00000
     13       2.4173      2.00000
     14       6.4132      2.00000
     15       6.7548      2.00000
     16       7.3944      2.00000
     17      11.8705      0.00000
     18      12.5767      0.00000
     19      12.7413      0.00000
     20      12.9459      0.00000
     21      13.4363      0.00000
     22      13.4792      0.00000
     23      13.8424      0.00000
     24      13.8734      0.00000

 k-point    10 :       0.2500    0.0833    0.0000
  band No.  band energies     occupation 
      1     -11.2899      2.00000
      2      -7.2825      2.00000
      3      -4.8845      2.00000
      4      -3.9774      2.00000
      5      -3.6300      2.00000
      6      -2.7380      2.00000
      7      -0.3836      2.00000
      8       0.7156      2.00000
      9       1.3559      2.00000
     10       1.6290      2.00000
     11       2.1147      2.00000
     12       2.6109      2.00000
     13       2.7296      2.00000
     14       5.6391      2.00000
     15       6.0708      2.00000
     16       6.8490      2.00000
     17      11.7844      0.00000
     18      12.7490      0.00000
     19      13.3138      0.00000
     20      13.7413      0.00000
     21      14.1699      0.00000
     22      14.4339      0.00000
     23      14.7597      0.00000
     24      14.7659      0.00000

 k-point    11 :       0.3333    0.0833    0.0000
  band No.  band energies     occupation 
      1     -10.8894      2.00000
      2      -8.2040      2.00000
      3      -4.6486      2.00000
      4      -3.9577      2.00000
      5      -3.3927      2.00000
      6      -2.7167      2.00000
      7       0.3245      2.00000
      8       0.8193      2.00000
      9       0.8622      2.00000
     10       1.3480      2.00000
     11       1.7905      2.00000
     12       2.9795      2.00000
     13       3.1681      2.00000
     14       4.8092      2.00000
     15       5.3470      2.00000
     16       6.1019      2.00000
     17      11.7961      0.00000
     18      12.5120      0.00000
     19      14.3592      0.00000
     20      14.9597      0.00000
     21      15.0324      0.00000
     22      15.6014      0.00000
     23      15.7114      0.00000
     24      15.8115      0.00000

 k-point    12 :       0.4167    0.0833    0.0000
  band No.  band energies     occupation 
      1     -10.3774      2.00000
      2      -9.0307      2.00000
      3      -4.3939      2.00000
      4      -4.0125      2.00000
      5      -3.1421      2.00000
      6      -2.7709      2.00000
      7       0.1320      2.00000
      8       0.4436      2.00000
      9       1.2085      2.00000
     10       1.4750      2.00000
     11       1.9587      2.00000
     12       3.4487      2.00000
     13       3.7426      2.00000
     14       3.9397      2.00000
     15       4.6501      2.00000
     16       5.2684      2.00000
     17      11.8927      0.00000
     18      12.2728      0.00000
     19      15.6009      0.00000
     20      15.9879      0.00000
     21      16.2990      0.00000
     22      16.7170      0.00000
     23      16.8587      0.00000
     24      16.9157      0.00000

 k-point    13 :       0.5000    0.0833    0.0000
  band No.  band energies     occupation 
      1      -9.7567      2.00000
      2      -9.7567      2.00000
      3      -4.1655      2.00000
      4      -4.1655      2.00000
      5      -2.9197      2.00000
      6      -2.9197      2.00000
      7       0.1798      2.00000
      8       0.1798      2.00000
      9       1.2593      2.00000
     10       1.2593      2.00000
     11       3.0012      2.00000
     12       3.0012      2.00000
     13       4.0107      2.00000
     14       4.0107      2.00000
     15       4.4555      2.00000
     16       4.4555      2.00000
     17      12.0585      0.00000
     18      12.0585      0.00000
     19      16.9044      0.00000
     20      16.9044      0.00000
     21      16.9224      0.00000
     22      16.9224      0.00000
     23      17.6760      0.00000
     24      17.6877      0.00000

 k-point    14 :       0.1667    0.1667    0.0000
  band No.  band energies     occupation 
      1     -11.4049      2.00000
      2      -6.1384      2.00000
      3      -6.1384      2.00000
      4      -4.0822      2.00000
      5      -3.6444      2.00000
      6      -1.6333      2.00000
      7      -1.6333      2.00000
      8       0.6168      2.00000
      9       1.9606      2.00000
     10       1.9606      2.00000
     11       2.2297      2.00000
     12       2.2297      2.00000
     13       2.6436      2.00000
     14       5.6741      2.00000
     15       6.2425      2.00000
     16       7.4294      2.00000
     17      12.5315      0.00000
     18      12.5529      0.00000
     19      12.5529      0.00000
     20      13.3643      0.00000
     21      13.9736      0.00000
     22      14.0451      0.00000
     23      14.0451      0.00000
     24      14.2334      0.00000

 k-point    15 :       0.2500    0.1667    0.0000
  band No.  band energies     occupation 
      1     -11.1185      2.00000
      2      -7.1350      2.00000
      3      -5.9189      2.00000
      4      -4.1662      2.00000
      5      -3.4013      2.00000
      6      -1.7000      2.00000
      7      -0.5082      2.00000
      8       0.1270      2.00000
      9       1.4399      2.00000
     10       2.0265      2.00000
     11       2.2043      2.00000
     12       2.6570      2.00000
     13       2.7029      2.00000
     14       4.8695      2.00000
     15       5.5767      2.00000
     16       7.1125      2.00000
     17      12.4712      0.00000
     18      12.9384      0.00000
     19      13.3419      0.00000
     20      13.5632      0.00000
     21      14.7294      0.00000
     22      14.7460      0.00000
     23      14.7502      0.00000
     24      14.9632      0.00000

 k-point    16 :       0.3333    0.1667    0.0000
  band No.  band energies     occupation 
      1     -10.7193      2.00000
      2      -8.0483      2.00000
      3      -5.6273      2.00000
      4      -4.3250      2.00000
      5      -3.1028      2.00000
      6      -1.8498      2.00000
      7      -0.1603      2.00000
      8       0.5432      2.00000
      9       0.8886      2.00000
     10       1.9101      2.00000
     11       2.5571      2.00000
     12       2.5684      2.00000
     13       3.2532      2.00000
     14       4.0462      2.00000
     15       4.8713      2.00000
     16       6.5139      2.00000
     17      12.4870      0.00000
     18      13.1529      0.00000
     19      13.7403      0.00000
     20      14.7877      0.00000
     21      15.4645      0.00000
     22      15.5675      0.00000
     23      15.7636      0.00000
     24      16.0852      0.00000

 k-point    17 :       0.4167    0.1667    0.0000
  band No.  band energies     occupation 
      1     -10.2093      2.00000
      2      -8.8694      2.00000
      3      -5.2835      2.00000
      4      -4.5838      2.00000
      5      -2.7646      2.00000
      6      -2.0963      2.00000
      7      -0.1951      2.00000
      8       0.3869      2.00000
      9       1.5002      2.00000
     10       1.9314      2.00000
     11       2.3319      2.00000
     12       3.0121      2.00000
     13       3.2180      2.00000
     14       4.0052      2.00000
     15       4.1863      2.00000
     16       5.7262      2.00000
     17      12.5777      0.00000
     18      12.9364      0.00000
     19      14.8291      0.00000
     20      16.1322      0.00000
     21      16.2955      0.00000
     22      16.4607      0.00000
     23      16.8787      0.00000
     24      17.1000      0.00000

 k-point    18 :       0.5000    0.1667    0.0000
  band No.  band energies     occupation 
      1      -9.5915      2.00000
      2      -9.5915      2.00000
      3      -4.9202      2.00000
      4      -4.9202      2.00000
      5      -2.4159      2.00000
      6      -2.4159      2.00000
      7       0.0045      2.00000
      8       0.0045      2.00000
      9       2.0910      2.00000
     10       2.0910      2.00000
     11       2.3788      2.00000
[...]

 k-point    72 :       0.4167    0.4167    0.2500
  band No.  band energies     occupation 
      1      -8.5846      2.00000
      2      -7.3826      2.00000
      3      -7.3826      2.00000
      4      -6.4819      2.00000
      5      -3.4424      2.00000
      6      -2.5632      2.00000
      7      -2.5632      2.00000
      8      -1.3848      2.00000
      9       2.8347      2.00000
     10       3.5323      2.00000
     11       3.5323      2.00000
     12       4.5527      2.00000
     13       4.6175      2.00000
     14       4.7618      2.00000
     15       4.7618      2.00000
     16       5.6962      2.00000
     17      14.5382      0.00000
     18      15.0219      0.00000
     19      15.0835      0.00000
     20      15.0835      0.00000
     21      15.4275      0.00000
     22      15.6475      0.00000
     23      15.6475      0.00000
     24      15.8347      0.00000

 k-point    73 :       0.5000    0.4167    0.2500
  band No.  band energies     occupation 
      1      -8.0195      2.00000
      2      -8.0195      2.00000
      3      -6.9216      2.00000
      4      -6.9216      2.00000
      5      -3.1055      2.00000
      6      -3.1055      2.00000
      7      -2.0326      2.00000
      8      -2.0326      2.00000
      9       3.2001      2.00000
     10       3.2001      2.00000
     11       4.0735      2.00000
     12       4.0735      2.00000
     13       4.8002      2.00000
     14       4.8002      2.00000
     15       5.3331      2.00000
     16       5.3331      2.00000
     17      14.9707      0.00000
     18      14.9707      0.00000
     19      15.1727      0.00000
     20      15.1727      0.00000
     21      15.4143      0.00000
     22      15.4143      0.00000
     23      16.0365      0.00000
     24      16.0366      0.00000

 k-point    74 :       0.5000    0.5000    0.2500
  band No.  band energies     occupation 
      1      -7.4911      2.00000
      2      -7.4911      2.00000
      3      -7.4911      2.00000
      4      -7.4911      2.00000
      5      -2.6424      2.00000
      6      -2.6424      2.00000
      7      -2.6424      2.00000
      8      -2.6424      2.00000
      9       3.6534      2.00000
     10       3.6534      2.00000
     11       3.6534      2.00000
     12       3.6534      2.00000
     13       5.1999      2.00000
     14       5.1999      2.00000
     15       5.1999      2.00000
     16       5.1999      2.00000
     17      14.9889      0.00000
     18      14.9889      0.00000
     19      14.9889      0.00000
     20      14.9889      0.00000
     21      16.1039      0.00000
     22      16.1039      0.00000
     23      16.1041      0.00000
     24      16.1053      0.00000

 k-point    75 :       0.3333    0.3333    0.3333
  band No.  band energies     occupation 
      1      -9.1715      2.00000
      2      -6.8092      2.00000
      3      -6.8092      2.00000
      4      -6.8092      2.00000
      5      -3.0388      2.00000
      6      -3.0388      2.00000
      7      -3.0388      2.00000
      8      -0.7155      2.00000
      9       3.2494      2.00000
     10       3.2494      2.00000
     11       3.2494      2.00000
     12       4.2946      2.00000
     13       4.2946      2.00000
     14       4.2946      2.00000
     15       5.7132      2.00000
     16       5.7132      2.00000
     17      14.1858      0.00000
     18      14.1858      0.00000
     19      14.1858      0.00000
     20      14.6027      0.00000
     21      15.3203      0.00000
     22      15.3203      0.00000
     23      17.1373      0.00000
     24      17.1417      0.00000

 k-point    76 :       0.4167    0.3333    0.3333
  band No.  band energies     occupation 
      1      -8.6938      2.00000
      2      -7.4870      2.00000
      3      -6.5798      2.00000
      4      -6.5798      2.00000
      5      -3.5429      2.00000
      6      -3.5429      2.00000
      7      -2.6556      2.00000
      8      -1.4690      2.00000
      9       3.4447      2.00000
     10       3.4447      2.00000
     11       4.2449      2.00000
     12       4.4863      2.00000
     13       4.4863      2.00000
     14       4.6158      2.00000
     15       5.3497      2.00000
     16       5.5763      2.00000
     17      14.4586      0.00000
     18      14.6499      0.00000
     19      14.6499      0.00000
     20      14.7170      0.00000
     21      15.2281      0.00000
     22      15.7213      0.00000
     23      16.2640      0.00000
     24      16.2968      0.00000

 k-point    77 :       0.5000    0.3333    0.3333
  band No.  band energies     occupation 
      1      -8.1265      2.00000
      2      -8.1265      2.00000
      3      -6.4796      2.00000
      4      -6.4796      2.00000
      5      -3.7361      2.00000
      6      -3.7361      2.00000
      7      -2.1224      2.00000
      8      -2.1224      2.00000
      9       3.5102      2.00000
     10       3.5102      2.00000
     11       4.5508      2.00000
     12       4.5508      2.00000
     13       4.9738      2.00000
     14       4.9738      2.00000
     15       5.0560      2.00000
     16       5.0560      2.00000
     17      14.6925      0.00000
     18      14.6925      0.00000
     19      15.3849      0.00000
     20      15.3849      0.00000
     21      15.3936      0.00000
     22      15.3936      0.00000
     23      15.5483      0.00000
     24      15.5483      0.00000

 k-point    78 :       0.4167    0.4167    0.3333
  band No.  band energies     occupation 
      1      -8.2358      2.00000
      2      -7.1283      2.00000
      3      -7.1283      2.00000
      4      -6.5830      2.00000
      5      -3.8294      2.00000
      6      -3.2938      2.00000
      7      -3.2938      2.00000
      8      -2.2065      2.00000
      9       3.8322      2.00000
     10       4.2563      2.00000
     11       4.2563      2.00000
     12       4.7924      2.00000
     13       4.8514      2.00000
     14       4.8514      2.00000
     15       5.1485      2.00000
     16       5.5654      2.00000
     17      14.7314      0.00000
     18      14.7591      0.00000
     19      14.8728      0.00000
     20      14.8728      0.00000
     21      15.4142      0.00000
     22      15.6196      0.00000
     23      15.7087      0.00000
     24      15.7087      0.00000

 k-point    79 :       0.5000    0.4167    0.3333
  band No.  band energies     occupation 
      1      -7.7029      2.00000
      2      -7.7029      2.00000
      3      -6.7899      2.00000
      4      -6.7899      2.00000
      5      -3.7230      2.00000
      6      -3.7230      2.00000
      7      -2.8266      2.00000
      8      -2.8266      2.00000
      9       4.0947      2.00000
     10       4.0947      2.00000
     11       4.7875      2.00000
     12       4.7875      2.00000
     13       4.9366      2.00000
     14       4.9366      2.00000
     15       5.2919      2.00000
     16       5.2919      2.00000
     17      14.9260      0.00000
     18      14.9260      0.00000
     19      15.0775      0.00000
     20      15.0775      0.00000
     21      15.4121      0.00000
     22      15.4121      0.00000
     23      15.5944      0.00000
     24      15.5946      0.00000

 k-point    80 :       0.5000    0.5000    0.3333
  band No.  band energies     occupation 
      1      -7.2351      2.00000
      2      -7.2351      2.00000
      3      -7.2351      2.00000
      4      -7.2351      2.00000
      5      -3.3833      2.00000
      6      -3.3833      2.00000
      7      -3.3833      2.00000
      8      -3.3833      2.00000
      9       4.4931      2.00000
     10       4.4931      2.00000
     11       4.4931      2.00000
     12       4.4931      2.00000
     13       5.2428      2.00000
     14       5.2428      2.00000
     15       5.2428      2.00000
     16       5.2428      2.00000
     17      14.9730      0.00000
     18      14.9730      0.00000
     19      14.9730      0.00000
     20      14.9730      0.00000
     21      15.7761      0.00000
     22      15.7830      0.00000
     23      15.7866      0.00000
     24      15.8004      0.00000

 k-point    81 :       0.4167    0.4167    0.4167
  band No.  band energies     occupation 
      1      -7.8103      2.00000
      2      -6.8933      2.00000
      3      -6.8933      2.00000
      4      -6.8933      2.00000
      5      -3.8204      2.00000
      6      -3.8204      2.00000
      7      -3.8204      2.00000
      8      -2.9182      2.00000
      9       4.6679      2.00000
     10       4.6679      2.00000
     11       4.6679      2.00000
     12       4.9932      2.00000
     13       4.9932      2.00000
     14       4.9932      2.00000
     15       5.3964      2.00000
     16       5.3964      2.00000
     17      14.6336      0.00000
     18      14.8656      0.00000
     19      14.8656      0.00000
     20      14.8656      0.00000
     21      15.5090      0.00000
     22      15.5100      0.00000
     23      15.6617      0.00000
     24      15.6617      0.00000

 k-point    82 :       0.5000    0.4167    0.4167
  band No.  band energies     occupation 
      1      -7.3404      2.00000
      2      -7.3404      2.00000
      3      -6.7904      2.00000
      4      -6.7904      2.00000
      5      -4.0214      2.00000
      6      -4.0214      2.00000
      7      -3.4793      2.00000
      8      -3.4793      2.00000
      9       4.7605      2.00000
     10       4.7605      2.00000
     11       5.1017      2.00000
     12       5.1017      2.00000
     13       5.2009      2.00000
     14       5.2009      2.00000
     15       5.2256      2.00000
     16       5.2256      2.00000
     17      14.7568      0.00000
     18      14.7568      0.00000
     19      14.9559      0.00000
     20      14.9559      0.00000
     21      15.4479      0.00000
     22      15.4486      0.00000
     23      15.4843      0.00000
     24      15.4846      0.00000

 k-point    83 :       0.5000    0.5000    0.4167
  band No.  band energies     occupation 
      1      -6.9984      2.00000
      2      -6.9984      2.00000
      3      -6.9984      2.00000
      4      -6.9984      2.00000
      5      -3.9165      2.00000
      6      -3.9165      2.00000
      7      -3.9165      2.00000
      8      -3.9165      2.00000
      9       5.0775      2.00000
     10       5.0775      2.00000
     11       5.0775      2.00000
     12       5.0775      2.00000
     13       5.2763      2.00000
     14       5.2763      2.00000
     15       5.2763      2.00000
     16       5.2763      2.00000
     17      14.7668      0.00000
     18      14.7668      0.00000
     19      14.7668      0.00000
     20      14.7668      0.00000
     21      15.5759      0.00000
     22      15.5777      0.00000
     23      15.5929      0.00000
     24      15.6084      0.00000

 k-point    84 :       0.5000    0.5000    0.5000
  band No.  band energies     occupation 
      1      -6.8945      2.00000
      2      -6.8945      2.00000
      3      -6.8945      2.00000
      4      -6.8945      2.00000
      5      -4.1199      2.00000
      6      -4.1199      2.00000
      7      -4.1199      2.00000
      8      -4.1199      2.00000
      9       5.2880      2.00000
     10       5.2880      2.00000
     11       5.2880      2.00000
     12       5.2880      2.00000
     13       5.2880      2.00000
     14       5.2880      2.00000
     15       5.2880      2.00000
     16       5.2880      2.00000
     17      14.6394      0.00000
     18      14.6394      0.00000
     19      14.6394      0.00000
     20      14.6394      0.00000
     21      15.5514      0.00000
     22      15.5514      0.00000
     23      15.5514      0.00000
     24      15.5514      0.00000


--------------------------------------------------------------------------------------------------------


 soft charge-density along one line, spin component           1
         0         1         2         3         4         5         6         7         8         9
 total charge-density along one line
 
 pseudopotential strength for first ion, spin component:           1
  9.554  -0.001   0.000   0.000  -0.000  -0.000  -0.000  -0.000
 -0.001  -0.002  -0.000  -0.000   0.000  -0.000  -0.000  -0.000
  0.000  -0.000  -3.778  -0.000  -0.000  -0.004  -0.000  -0.000
  0.000  -0.000  -0.000  -3.778   0.000  -0.000  -0.004   0.000
 -0.000   0.000  -0.000   0.000  -3.778  -0.000   0.000  -0.004
 -0.000  -0.000  -0.004  -0.000  -0.000  -0.760  -0.000  -0.000
 -0.000  -0.000  -0.000  -0.004   0.000  -0.000  -0.760   0.000
 -0.000  -0.000  -0.000   0.000  -0.004  -0.000   0.000  -0.760
 total augmentation occupancy for first ion, spin component:           1
  1.416  -0.834  -0.000  -0.000  -0.000   0.000   0.000  -0.000
 -0.834   0.747  -0.000   0.000  -0.000   0.000   0.000   0.000
  0.000  -0.000   1.019  -0.000  -0.000   0.158   0.000   0.000
  0.000  -0.000  -0.000   1.019  -0.000   0.000   0.158  -0.000
  0.000  -0.000  -0.000   0.000   1.019   0.000   0.000   0.158
 -0.000   0.000   0.158   0.000   0.000   0.029   0.000   0.000
  0.000   0.000  -0.000   0.158   0.000  -0.000   0.029  -0.000
  0.000   0.000  -0.000  -0.000   0.158   0.000  -0.000   0.029


------------------------ aborting loop because EDIFF is reached ----------------------------------------


    CHARGE:  cpu time    0.1313: real time    0.1313
    FORLOC:  cpu time    0.0021: real time    0.0021
    FORNL :  cpu time    0.2300: real time    0.2300
    STRESS:  cpu time    0.5381: real time    0.5383
    FORHAR:  cpu time    0.0058: real time    0.0058
    MIXING:  cpu time    0.0022: real time    0.0022
    OFIELD:  cpu time    0.0001: real time    0.0001

  FORCE on cell =-STRESS in cart. coord.  units (eV):
  Direction    XX          YY          ZZ          XY          YZ          ZX
  --------------------------------------------------------------------------------------
  Alpha Z    99.03411    99.03411    99.03411
  Ewald    -441.49985  -441.49985  -441.49985    -0.00000     0.00000    -0.00000
  Hartree    38.07411    38.07411    38.07411    -0.00000    -0.00000    -0.00000
  E(xc)    -115.79781  -115.79781  -115.79781    -0.00000    -0.00000    -0.00000
  Local     -56.97279   -56.97279   -56.97279    -0.00000     0.00000     0.00000
  n-local   -21.83708   -22.71127   -21.54893     0.72256     0.92970     0.44571
  augment    -2.31090    -2.31090    -2.31090    -0.00000    -0.00000     0.00000
  Kinetic   474.97867   489.96795   488.97910    -4.63857    -6.48903    -3.24080
  Fock        0.00000     0.00000     0.00000     0.00000     0.00000     0.00000
  -------------------------------------------------------------------------------------
  Total     -16.86365   -16.86365   -16.86365     0.00000     0.00000    -0.00000
  in kB    -513.11557  -513.11557  -513.11557     0.00000     0.00000    -0.00000
  external pressure =     -513.12 kB  Pullay stress =        0.00 kB


 VOLUME and BASIS-vectors are now :
 -----------------------------------------------------------------------------
  energy-cutoff  :      400.00
  volume of cell :       52.66
      direct lattice vectors                 reciprocal lattice vectors
     3.748139000  0.000000000  0.000000000     0.266799070  0.000000000  0.000000000
     0.000000000  3.748139000  0.000000000     0.000000000  0.266799070  0.000000000
     0.000000000  0.000000000  3.748139000     0.000000000  0.000000000  0.266799070

  length of vectors
     3.748139000  3.748139000  3.748139000     0.266799070  0.266799070  0.266799070


 FORCES acting on ions
    electron-ion (+dipol)            ewald-force                    non-local-force                 convergence-correction
 -----------------------------------------------------------------------------------------------
   0.455E-13 -.147E-12 -.244E-13   0.213E-13 0.142E-13 0.000E+00   -.625E-17 -.236E-17 -.226E-16   -.384E-14 -.173E-14 0.182E-13
   -.303E-13 -.288E-14 -.110E-13   0.138E-13 0.608E-14 0.108E-16   0.957E-17 0.158E-16 0.257E-16   -.320E-14 -.667E-14 0.143E-13
   0.379E-13 -.166E-12 -.575E-14   0.711E-14 0.711E-14 -.142E-13   -.136E-16 -.172E-16 -.171E-16   -.321E-14 -.332E-14 0.180E-13
   -.303E-13 0.242E-13 -.333E-13   -.525E-15 0.296E-16 -.144E-13   0.934E-17 0.327E-16 0.233E-16   -.284E-14 -.578E-14 0.142E-13
   0.531E-13 0.207E-12 0.365E-12   0.000E+00 0.000E+00 0.142E-13   -.119E-16 -.165E-16 -.311E-16   0.812E-14 0.688E-16 0.175E-13
   0.000E+00 -.551E-14 -.446E-12   -.708E-14 -.570E-14 0.140E-13   0.812E-17 0.162E-16 0.168E-16   -.952E-14 -.579E-14 0.122E-13
   0.531E-13 -.204E-12 -.411E-13   -.711E-14 -.711E-14 0.000E+00   -.181E-16 -.429E-16 -.221E-16   0.832E-14 -.224E-14 0.175E-13
   0.000E+00 0.367E-12 -.102E-13   -.142E-13 -.143E-13 0.945E-16   0.168E-16 0.957E-17 0.153E-16   -.966E-14 -.575E-14 0.133E-13
 -----------------------------------------------------------------------------------------------
   0.129E-12 0.728E-13 -.207E-12   0.134E-13 0.344E-15 -.344E-15   -.600E-17 -.474E-17 -.117E-16   -.158E-13 -.312E-13 0.125E-12
 
 
 POSITION                                       TOTAL-FORCE (eV/Angst)
 -----------------------------------------------------------------------------------
      0.93703      2.81110      0.93703         0.000000     -0.000000      0.000000
      0.00000      0.00000      1.87407        -0.000000     -0.000000     -0.000000
      0.93703      0.93703      2.81110         0.000000     -0.000000      0.000000
      0.00000      1.87407      0.00000        -0.000000      0.000000     -0.000000
      2.81110      2.81110      2.81110         0.000000      0.000000      0.000000
      1.87407      0.00000      0.00000        -0.000000      0.000000     -0.000000
      2.81110      0.93703      0.93703         0.000000     -0.000000      0.000000
      1.87407      1.87407      1.87407        -0.000000      0.000000     -0.000000
 -----------------------------------------------------------------------------------
    total drift:                                0.000000      0.000000     -0.000000


--------------------------------------------------------------------------------------------------------



  FREE ENERGIE OF THE ION-ELECTRON SYSTEM (eV)
  ---------------------------------------------------
  free  energy   TOTEN  =       -71.58454458 eV

  energy  without entropy=      -71.58454458  energy(sigma->0) =      -71.58454458
 


--------------------------------------------------------------------------------------------------------


    POTLOK:  cpu time    0.0275: real time    0.0275


--------------------------------------------------------------------------------------------------------


     LOOP+:  cpu time   56.1064: real time   56.2692
    4ORBIT:  cpu time    0.0000: real time    0.0000
 BZINTS: Fermi energy:  7.798330; 32.000000 electrons
         Band energy: -12.715791;  BLOECHL correction:  0.000000

 total amount of memory used by VASP MPI-rank0    34489. kBytes
=======================================================================

   base      :      30000. kBytes
   nonl-proj :       1431. kBytes
   fftplans  :        346. kBytes
   grid      :        481. kBytes
   one-center:          6. kBytes
   wavefun   :       2225. kBytes
 
  
  
 General timing and accounting informations for this job:
 ========================================================
  
                  Total CPU time used (sec):       58.605
                            User time (sec):       56.816
                          System time (sec):        1.789
                         Elapsed time (sec):       58.807
  
                   Maximum memory used (kb):      189604.
                   Average memory used (kb):           0.
  
                          Minor page faults:        36888
                          Major page faults:           36
                 Voluntary context switches:          787
