<?xml version="1.0" encoding="ISO-8859-1"?>
<modeling>
 <generator>
  <i name="program" type="string">vasp </i>
  <i name="version" type="string">5.4.4.18Apr17-6-g9f103f2a35  </i>
  <i name="subversion" type="string">(build Mar 12 2022 03:36:41) complex            parallel </i>
  <i name="platform" type="string">IFC19.0.3.199_CrayMPICH7.7.19 </i>
  <i name="date" type="string">2022 11 30 </i>
  <i name="time" type="string">12:32:27 </i>
 </generator>
 <incar>
  <i type="int" name="ISTART">     0</i>
  <i type="string" name="PREC">accurate</i>
  <i name="EDIFF">      0.00000100</i>
  <i name="POTIM">      0.02000000</i>
  <i type="int" name="ISMEAR">    -5</i>
  <i name="SIGMA">      0.06000000</i>
  <i type="logical" name="LWAVE"> F  </i>
  <i type="logical" name="LCHARG"> F  </i>
  <v type="int" name="KPOINT_BSE">    -1     0     0     0</v>
 </incar>
 <structure name="primitive_cell" >
  <crystal>
   <varray name="basis" >
    <v>       1.87406950       1.87406950       0.00000000 </v>
    <v>       1.87406950       0.00000000      -1.87406950 </v>
    <v>       0.00000000       1.87406950      -1.87406950 </v>
   </varray>
   <i name="volume">     13.16397575 </i>
   <varray name="rec_basis" >
    <v>       0.26679907       0.26679907       0.26679907 </v>
    <v>       0.26679907      -0.26679907      -0.26679907 </v>
    <v>      -0.26679907       0.26679907      -0.26679907 </v>
   </varray>
  </crystal>
  <varray name="positions" >
   <v>       0.25000000       0.25000000       0.25000000 </v>
   <v>      -0.50000000      -0.50000000      -0.50000000 </v>
  </varray>
 </structure>
 <varray name="primitive_index" >
  <v type="int" >        1 </v>
  <v type="int" >        2 </v>
 </varray>
 <kpoints>
  <generation param="Gamma">
   <v type="int" name="divisions">      12       12       12 </v>
   <v name="usershift">      0.00000000       0.00000000       0.00000000 </v>
   <v name="genvec1">      0.08333333       0.00000000       0.00000000 </v>
   <v name="genvec2">      0.00000000       0.08333333       0.00000000 </v>
   <v name="genvec3">      0.00000000       0.00000000       0.08333333 </v>
   <v name="shift">      0.00000000       0.00000000       0.00000000 </v>
  </generation>
  <varray name="kpointlist" >
   <v>       0.00000000       0.00000000       0.00000000 </v>
   <v>       0.08333333       0.00000000       0.00000000 </v>
   <v>       0.16666667       0.00000000       0.00000000 </v>
   <v>       0.25000000       0.00000000       0.00000000 </v>
   <v>       0.33333333       0.00000000       0.00000000 </v>
   <v>       0.41666667       0.00000000       0.00000000 </v>
   <v>       0.50000000       0.00000000       0.00000000 </v>
   <v>       0.08333333       0.08333333       0.00000000 </v>
   <v>       0.16666667       0.08333333       0.00000000 </v>
   <v>       0.25000000       0.08333333       0.00000000 </v>
   <v>       0.33333333       0.08333333       0.00000000 </v>
   <v>       0.41666667       0.08333333       0.00000000 </v>
   <v>       0.50000000       0.08333333       0.00000000 </v>
   <v>       0.16666667       0.16666667       0.00000000 </v>
   <v>       0.25000000       0.16666667       0.00000000 </v>
   <v>       0.33333333       0.16666667       0.00000000 </v>
   <v>       0.41666667       0.16666667       0.00000000 </v>
   <v>       0.50000000       0.16666667       0.00000000 </v>
   <v>       0.25000000       0.25000000       0.00000000 </v>
   <v>       0.33333333       0.25000000       0.00000000 </v>
   <v>       0.41666667       0.25000000       0.00000000 </v>
   <v>       0.50000000       0.25000000       0.00000000 </v>
   <v>       0.33333333       0.33333333       0.00000000 </v>
   <v>       0.41666667       0.33333333       0.00000000 </v>
   <v>       0.50000000       0.33333333       0.00000000 </v>
   <v>       0.41666667       0.41666667       0.00000000 </v>
   <v>       0.50000000       0.41666667       0.00000000 </v>
   <v>       0.50000000       0.50000000       0.00000000 </v>
   <v>       0.08333333       0.08333333       0.08333333 </v>
   <v>       0.16666667       0.08333333       0.08333333 </v>
   <v>       0.25000000       0.08333333       0.08333333 </v>
   <v>       0.33333333       0.08333333       0.08333333 </v>
   <v>       0.41666667       0.08333333       0.08333333 </v>
   <v>       0.50000000       0.08333333       0.08333333 </v>
   <v>       0.16666667       0.16666667       0.08333333 </v>
   <v>       0.25000000       0.16666667       0.08333333 </v>
   <v>       0.33333333       0.16666667       0.08333333 </v>
   <v>       0.41666667       0.16666667       0.08333333 </v>
   <v>       0.50000000       0.16666667       0.08333333 </v>
   <v>       0.25000000       0.25000000       0.08333333 </v>
   <v>       0.33333333       0.25000000       0.08333333 </v>
   <v>       0.41666667       0.25000000       0.08333333 </v>
   <v>       0.50000000       0.25000000       0.08333333 </v>
   <v>       0.33333333       0.33333333       0.08333333 </v>
   <v>       0.41666667       0.33333333       0.08333333 </v>
   <v>       0.50000000       0.33333333       0.08333333 </v>
   <v>       0.41666667       0.41666667       0.08333333 </v>
   <v>       0.50000000       0.41666667       0.08333333 </v>
   <v>       0.50000000       0.50000000       0.08333333 </v>
   <v>       0.16666667       0.16666667       0.16666667 </v>
   <v>       0.25000000       0.16666667       0.16666667 </v>
   <v>       0.33333333       0.16666667       0.16666667 </v>
   <v>       0.41666667       0.16666667       0.16666667 </v>
   <v>       0.50000000       0.16666667       0.16666667 </v>
   <v>       0.25000000       0.25000000       0.16666667 </v>
   <v>       0.33333333       0.25000000       0.16666667 </v>
   <v>       0.41666667       0.25000000       0.16666667 </v>
   <v>       0.50000000       0.25000000       0.16666667 </v>
   <v>       0.33333333       0.33333333       0.16666667 </v>
   <v>       0.41666667       0.33333333       0.16666667 </v>
   <v>       0.50000000       0.33333333       0.16666667 </v>
   <v>       0.41666667       0.41666667       0.16666667 </v>
   <v>       0.50000000       0.41666667       0.16666667 </v>
   <v>       0.50000000       0.50000000       0.16666667 </v>
   <v>       0.25000000       0.25000000       0.25000000 </v>
   <v>       0.33333333       0.25000000       0.25000000 </v>
   <v>       0.41666667       0.25000000       0.25000000 </v>
   <v>       0.50000000       0.25000000       0.25000000 </v>
   <v>       0.33333333       0.33333333       0.25000000 </v>
   <v>       0.41666667       0.33333333       0.25000000 </v>
   <v>       0.50000000       0.33333333       0.25000000 </v>
   <v>       0.41666667       0.41666667       0.25000000 </v>
   <v>       0.50000000       0.41666667       0.25000000 </v>
   <v>       0.50000000       0.50000000       0.25000000 </v>
   <v>       0.33333333       0.33333333       0.33333333 </v>
   <v>       0.41666667       0.33333333       0.33333333 </v>
   <v>       0.50000000       0.33333333       0.33333333 </v>
   <v>       0.41666667       0.41666667       0.33333333 </v>
   <v>       0.50000000       0.41666667       0.33333333 </v>
   <v>       0.50000000       0.50000000       0.33333333 </v>
   <v>       0.41666667       0.41666667       0.41666667 </v>
   <v>       0.50000000       0.41666667       0.41666667 </v>
   <v>       0.50000000       0.50000000       0.41666667 </v>
   <v>       0.50000000       0.50000000       0.50000000 </v>
  </varray>
  <varray name="weights" >
   <v>       0.00057870 </v>
   <v>       0.00347222 </v>
   <v>       0.00347222 </v>
   <v>       0.00347222 </v>
   <v>       0.00347222 </v>
   <v>       0.00347222 </v>
   <v>       0.00173611 </v>
   <v>       0.00694444 </v>
   <v>       0.01388889 </v>
   <v>       0.01388889 </v>
   <v>       0.01388889 </v>
   <v>       0.01388889 </v>
   <v>       0.00694444 </v>
   <v>       0.00694444 </v>
   <v>       0.01388889 </v>
   <v>       0.01388889 </v>
   <v>       0.01388889 </v>
   <v>       0.00694444 </v>
   <v>       0.00694444 </v>
   <v>       0.01388889 </v>
   <v>       0.01388889 </v>
   <v>       0.00694444 </v>
   <v>       0.00694444 </v>
   <v>       0.01388889 </v>
   <v>       0.00694444 </v>
   <v>       0.00694444 </v>
   <v>       0.00694444 </v>
   <v>       0.00173611 </v>
   <v>       0.00462963 </v>
   <v>       0.01388889 </v>
   <v>       0.01388889 </v>
   <v>       0.01388889 </v>
   <v>       0.01388889 </v>
   <v>       0.00694444 </v>
   <v>       0.01388889 </v>
   <v>       0.02777778 </v>
   <v>       0.02777778 </v>
   <v>       0.02777778 </v>
   <v>       0.01388889 </v>
   <v>       0.01388889 </v>
   <v>       0.02777778 </v>
   <v>       0.02777778 </v>
   <v>       0.01388889 </v>
   <v>       0.01388889 </v>
   <v>       0.02777778 </v>
   <v>       0.01388889 </v>
   <v>       0.01388889 </v>
   <v>       0.01388889 </v>
   <v>       0.00347222 </v>
   <v>       0.00462963 </v>
   <v>       0.01388889 </v>
   <v>       0.01388889 </v>
   <v>       0.01388889 </v>
   <v>       0.00694444 </v>
   <v>       0.01388889 </v>
   <v>       0.02777778 </v>
   <v>       0.02777778 </v>
   <v>       0.01388889 </v>
   <v>       0.01388889 </v>
   <v>       0.02777778 </v>
   <v>       0.01388889 </v>
   <v>       0.01388889 </v>
   <v>       0.01388889 </v>
   <v>       0.00347222 </v>
   <v>       0.00462963 </v>
   <v>       0.01388889 </v>
   <v>       0.01388889 </v>
   <v>       0.00694444 </v>
   <v>       0.01388889 </v>
   <v>       0.02777778 </v>
   <v>       0.01388889 </v>
   <v>       0.01388889 </v>
   <v>       0.01388889 </v>
   <v>       0.00347222 </v>
   <v>       0.00462963 </v>
   <v>       0.01388889 </v>
   <v>       0.00694444 </v>
   <v>       0.01388889 </v>
   <v>       0.01388889 </v>
   <v>       0.00347222 </v>
   <v>       0.00462963 </v>
   <v>       0.00694444 </v>
   <v>       0.00347222 </v>
   <v>       0.00057870 </v>
  </varray>
  <varray name="tetrahedronlist"  type="int" >
   <v type="int" >       12        1        2        2        8 </v>
   <v type="int" >       12        2        2        8        8 </v>
   <v type="int" >       12        2        8        8       29 </v>
   <v type="int" >       12        2        3        8        9 </v>
   <v type="int" >       12        2        8        8        9 </v>
   <v type="int" >       12        8        8        9       29 </v>
   <v type="int" >       12        3        8        9        9 </v>
   <v type="int" >       24        8        9        9       30 </v>
   <v type="int" >       24        8        9       29       30 </v>
   <v type="int" >       12        3        4        9       10 </v>
   <v type="int" >       12        3        9        9       10 </v>
   <v type="int" >       12        9        9       10       30 </v>
   <v type="int" >       12        4        9       10       10 </v>
   <v type="int" >       12        9       10       10       31 </v>
   <v type="int" >       12        9       10       30       31 </v>
   <v type="int" >       12        4        5       10       11 </v>
   <v type="int" >       12        4       10       10       11 </v>
   <v type="int" >       12       10       10       11       31 </v>
   <v type="int" >       12        5       10       11       11 </v>
   <v type="int" >       12       10       11       11       32 </v>
   <v type="int" >       12       10       11       31       32 </v>
   <v type="int" >       12        5        6       11       12 </v>
   <v type="int" >       12        5       11       11       12 </v>
   <v type="int" >       12       11       11       12       32 </v>
   <v type="int" >       12        6       11       12       12 </v>
   <v type="int" >       12       11       12       12       33 </v>
   <v type="int" >       12       11       12       32       33 </v>
   <v type="int" >       12        6        7       12       13 </v>
   <v type="int" >       12        6       12       12       13 </v>
   <v type="int" >       12       12       12       13       33 </v>
   <v type="int" >       12        7       12       13       13 </v>
   <v type="int" >       12       12       13       13       34 </v>
   <v type="int" >       12       12       13       33       34 </v>
   <v type="int" >       12        8        9       14       29 </v>
   <v type="int" >       12        9       14       29       30 </v>
   <v type="int" >       12       14       29       30       35 </v>
   <v type="int" >       12        9       10       15       30 </v>
   <v type="int" >       12        9       14       15       30 </v>
   <v type="int" >       12       14       15       30       35 </v>
   <v type="int" >       12       10       15       30       31 </v>
   <v type="int" >       12       15       30       31       36 </v>
   <v type="int" >       12       15       30       35       36 </v>
   <v type="int" >       12       10       11       16       31 </v>
   <v type="int" >       12       10       15       16       31 </v>
   <v type="int" >       12       15       16       31       36 </v>
   <v type="int" >       12       11       16       31       32 </v>
   <v type="int" >       12       16       31       32       37 </v>
   <v type="int" >       12       16       31       36       37 </v>
   <v type="int" >       12       11       12       17       32 </v>
   <v type="int" >       12       11       16       17       32 </v>
   <v type="int" >       12       16       17       32       37 </v>
   <v type="int" >       12       12       17       32       33 </v>
   <v type="int" >       12       17       32       33       38 </v>
   <v type="int" >       12       17       32       37       38 </v>
   <v type="int" >       12       12       13       18       33 </v>
   <v type="int" >       12       12       17       18       33 </v>
   <v type="int" >       12       17       18       33       38 </v>
   <v type="int" >       12       13       18       33       34 </v>
   <v type="int" >       12       18       33       34       39 </v>
   <v type="int" >       12       18       33       38       39 </v>
   <v type="int" >       12       12       13       17       34 </v>
   <v type="int" >       12       13       17       18       34 </v>
   <v type="int" >       12       17       18       34       39 </v>
   <v type="int" >       12       12       17       33       34 </v>
   <v type="int" >       12       17       33       34       38 </v>
   <v type="int" >       12       17       34       38       39 </v>
   <v type="int" >       12       11       12       16       33 </v>
   <v type="int" >       12       12       16       17       33 </v>
   <v type="int" >       12       16       17       33       38 </v>
   <v type="int" >       12       11       16       32       33 </v>
   <v type="int" >       12       16       32       33       37 </v>
   <v type="int" >       12       16       33       37       38 </v>
   <v type="int" >       12       10       11       15       32 </v>
   <v type="int" >       12       11       15       16       32 </v>
   <v type="int" >       12       15       16       32       37 </v>
   <v type="int" >       12       10       15       31       32 </v>
   <v type="int" >       12       15       31       32       36 </v>
   <v type="int" >       12       15       32       36       37 </v>
   <v type="int" >       12        9       10       14       31 </v>
   <v type="int" >       12       10       14       15       31 </v>
   <v type="int" >       12       14       15       31       36 </v>
   <v type="int" >       12        9       14       30       31 </v>
   <v type="int" >       12       14       30       31       35 </v>
   <v type="int" >       12       14       31       35       36 </v>
   <v type="int" >       12        9        9       14       30 </v>
   <v type="int" >       12        9       14       30       35 </v>
   <v type="int" >       12        9       29       30       30 </v>
   <v type="int" >       12        9       30       30       35 </v>
   <v type="int" >       12        2        3        8       29 </v>
   <v type="int" >       12        3        8        9       29 </v>
   <v type="int" >       12        3        9       29       30 </v>
   <v type="int" >       12       14       15       19       35 </v>
   <v type="int" >       12       15       19       35       36 </v>
   <v type="int" >       12       19       35       36       40 </v>
   <v type="int" >       12       15       16       20       36 </v>
   <v type="int" >       12       15       19       20       36 </v>
   <v type="int" >       12       19       20       36       40 </v>
   <v type="int" >       12       16       20       36       37 </v>
   <v type="int" >       12       20       36       37       41 </v>
   <v type="int" >       12       20       36       40       41 </v>
   <v type="int" >       12       16       17       21       37 </v>
   <v type="int" >       12       16       20       21       37 </v>
   <v type="int" >       12       20       21       37       41 </v>
   <v type="int" >       12       17       21       37       38 </v>
   <v type="int" >       12       21       37       38       42 </v>
   <v type="int" >       12       21       37       41       42 </v>
   <v type="int" >       12       17       18       22       38 </v>
   <v type="int" >       12       17       21       22       38 </v>
   <v type="int" >       12       21       22       38       42 </v>
   <v type="int" >       12       18       22       38       39 </v>
   <v type="int" >       12       22       38       39       43 </v>
   <v type="int" >       12       22       38       42       43 </v>
   <v type="int" >       12       17       18       21       39 </v>
   <v type="int" >       12       18       21       22       39 </v>
   <v type="int" >       12       21       22       39       43 </v>
   <v type="int" >       12       17       21       38       39 </v>
   <v type="int" >       12       21       38       39       42 </v>
   <v type="int" >       12       21       39       42       43 </v>
   <v type="int" >       12       16       17       20       38 </v>
   <v type="int" >       12       17       20       21       38 </v>
   <v type="int" >       12       20       21       38       42 </v>
   <v type="int" >       12       16       20       37       38 </v>
   <v type="int" >       12       20       37       38       41 </v>
   <v type="int" >       12       20       38       41       42 </v>
   <v type="int" >       12       15       16       19       37 </v>
   <v type="int" >       12       16       19       20       37 </v>
   <v type="int" >       12       19       20       37       41 </v>
   <v type="int" >       12       15       19       36       37 </v>
   <v type="int" >       12       19       36       37       40 </v>
   <v type="int" >       12       19       37       40       41 </v>
   <v type="int" >       12       14       15       15       36 </v>
   <v type="int" >       12       15       15       19       36 </v>
   <v type="int" >       12       15       19       36       40 </v>
   <v type="int" >       12       14       15       35       36 </v>
   <v type="int" >       12       15       35       36       36 </v>
   <v type="int" >       12       15       36       36       40 </v>
   <v type="int" >       12        9       10       14       35 </v>
   <v type="int" >       12       10       14       15       35 </v>
   <v type="int" >       12       10       15       35       36 </v>
   <v type="int" >       12        9       10       30       35 </v>
   <v type="int" >       12       10       30       31       35 </v>
   <v type="int" >       12       10       31       35       36 </v>
   <v type="int" >       12        3        4        9       30 </v>
   <v type="int" >       12        4        9       10       30 </v>
   <v type="int" >       12        4       10       30       31 </v>
   <v type="int" >       12       19       20       23       40 </v>
   <v type="int" >       12       20       23       40       41 </v>
   <v type="int" >       12       23       40       41       44 </v>
   <v type="int" >       12       20       21       24       41 </v>
   <v type="int" >       12       20       23       24       41 </v>
   <v type="int" >       12       23       24       41       44 </v>
   <v type="int" >       12       21       24       41       42 </v>
   <v type="int" >       12       24       41       42       45 </v>
   <v type="int" >       12       24       41       44       45 </v>
   <v type="int" >       12       21       22       25       42 </v>
   <v type="int" >       12       21       24       25       42 </v>
   <v type="int" >       12       24       25       42       45 </v>
   <v type="int" >       12       22       25       42       43 </v>
   <v type="int" >       12       25       42       43       46 </v>
   <v type="int" >       12       25       42       45       46 </v>
   <v type="int" >       12       21       22       24       43 </v>
   <v type="int" >       12       22       24       25       43 </v>
   <v type="int" >       12       24       25       43       46 </v>
   <v type="int" >       12       21       24       42       43 </v>
   <v type="int" >       12       24       42       43       45 </v>
   <v type="int" >       12       24       43       45       46 </v>
   <v type="int" >       12       20       21       23       42 </v>
   <v type="int" >       12       21       23       24       42 </v>
   <v type="int" >       12       23       24       42       45 </v>
   <v type="int" >       12       20       23       41       42 </v>
   <v type="int" >       12       23       41       42       44 </v>
   <v type="int" >       12       23       42       44       45 </v>
   <v type="int" >       12       19       20       20       41 </v>
   <v type="int" >       12       20       20       23       41 </v>
   <v type="int" >       12       20       23       41       44 </v>
   <v type="int" >       12       19       20       40       41 </v>
   <v type="int" >       12       20       40       41       41 </v>
   <v type="int" >       12       20       41       41       44 </v>
   <v type="int" >       12       15       16       19       40 </v>
   <v type="int" >       12       16       19       20       40 </v>
   <v type="int" >       12       16       20       40       41 </v>
   <v type="int" >       12       15       16       36       40 </v>
   <v type="int" >       12       16       36       37       40 </v>
   <v type="int" >       12       16       37       40       41 </v>
   <v type="int" >       12       10       11       15       36 </v>
   <v type="int" >       12       11       15       16       36 </v>
   <v type="int" >       12       11       16       36       37 </v>
   <v type="int" >       12       10       11       31       36 </v>
   <v type="int" >       12       11       31       32       36 </v>
   <v type="int" >       12       11       32       36       37 </v>
   <v type="int" >       12        4        5       10       31 </v>
   <v type="int" >       12        5       10       11       31 </v>
   <v type="int" >       12        5       11       31       32 </v>
   <v type="int" >       12       23       24       26       44 </v>
   <v type="int" >       12       24       26       44       45 </v>
   <v type="int" >       12       26       44       45       47 </v>
   <v type="int" >       12       24       25       27       45 </v>
   <v type="int" >       12       24       26       27       45 </v>
   <v type="int" >       12       26       27       45       47 </v>
   <v type="int" >       12       25       27       45       46 </v>
   <v type="int" >       12       27       45       46       48 </v>
   <v type="int" >       12       27       45       47       48 </v>
   <v type="int" >       12       24       25       26       46 </v>
   <v type="int" >       12       25       26       27       46 </v>
   <v type="int" >       12       26       27       46       48 </v>
   <v type="int" >       12       24       26       45       46 </v>
   <v type="int" >       12       26       45       46       47 </v>
   <v type="int" >       12       26       46       47       48 </v>
   <v type="int" >       12       23       24       24       45 </v>
   <v type="int" >       12       24       24       26       45 </v>
   <v type="int" >       12       24       26       45       47 </v>
   <v type="int" >       12       23       24       44       45 </v>
   <v type="int" >       12       24       44       45       45 </v>
   <v type="int" >       12       24       45       45       47 </v>
   <v type="int" >       12       20       21       23       44 </v>
   <v type="int" >       12       21       23       24       44 </v>
   <v type="int" >       12       21       24       44       45 </v>
   <v type="int" >       12       20       21       41       44 </v>
   <v type="int" >       12       21       41       42       44 </v>
   <v type="int" >       12       21       42       44       45 </v>
   <v type="int" >       12       16       17       20       41 </v>
   <v type="int" >       12       17       20       21       41 </v>
   <v type="int" >       12       17       21       41       42 </v>
   <v type="int" >       12       16       17       37       41 </v>
   <v type="int" >       12       17       37       38       41 </v>
   <v type="int" >       12       17       38       41       42 </v>
   <v type="int" >       12       11       12       16       37 </v>
   <v type="int" >       12       12       16       17       37 </v>
   <v type="int" >       12       12       17       37       38 </v>
   <v type="int" >       12       11       12       32       37 </v>
   <v type="int" >       12       12       32       33       37 </v>
   <v type="int" >       12       12       33       37       38 </v>
   <v type="int" >       12        5        6       11       32 </v>
   <v type="int" >       12        6       11       12       32 </v>
   <v type="int" >       12        6       12       32       33 </v>
   <v type="int" >       12       26       27       28       47 </v>
   <v type="int" >       12       27       28       47       48 </v>
   <v type="int" >       12       28       47       48       49 </v>
   <v type="int" >       12       26       27       27       48 </v>
   <v type="int" >       12       27       27       28       48 </v>
   <v type="int" >       12       27       28       48       49 </v>
   <v type="int" >       12       26       27       47       48 </v>
   <v type="int" >       12       27       47       48       48 </v>
   <v type="int" >       12       27       48       48       49 </v>
   <v type="int" >       12       24       25       26       47 </v>
   <v type="int" >       12       25       26       27       47 </v>
   <v type="int" >       12       25       27       47       48 </v>
   <v type="int" >       12       24       25       45       47 </v>
   <v type="int" >       12       25       45       46       47 </v>
   <v type="int" >       12       25       46       47       48 </v>
   <v type="int" >       12       21       22       24       45 </v>
   <v type="int" >       12       22       24       25       45 </v>
   <v type="int" >       12       22       25       45       46 </v>
   <v type="int" >       12       21       22       42       45 </v>
   <v type="int" >       12       22       42       43       45 </v>
   <v type="int" >       12       22       43       45       46 </v>
   <v type="int" >       12       17       18       21       42 </v>
   <v type="int" >       12       18       21       22       42 </v>
   <v type="int" >       12       18       22       42       43 </v>
   <v type="int" >       12       17       18       38       42 </v>
   <v type="int" >       12       18       38       39       42 </v>
   <v type="int" >       12       18       39       42       43 </v>
   <v type="int" >       12       12       13       17       38 </v>
   <v type="int" >       12       13       17       18       38 </v>
   <v type="int" >       12       13       18       38       39 </v>
   <v type="int" >       12       12       13       33       38 </v>
   <v type="int" >       12       13       33       34       38 </v>
   <v type="int" >       12       13       34       38       39 </v>
   <v type="int" >       12        6        7       12       33 </v>
   <v type="int" >       12        7       12       13       33 </v>
   <v type="int" >       12        7       13       33       34 </v>
   <v type="int" >       12       26       27       28       49 </v>
   <v type="int" >       12       26       27       48       49 </v>
   <v type="int" >       12       26       47       48       49 </v>
   <v type="int" >       12       24       25       27       48 </v>
   <v type="int" >       12       24       26       27       48 </v>
   <v type="int" >       12       24       26       47       48 </v>
   <v type="int" >       12       24       25       46       48 </v>
   <v type="int" >       12       24       45       46       48 </v>
   <v type="int" >       12       24       45       47       48 </v>
   <v type="int" >       12       21       22       25       46 </v>
   <v type="int" >       12       21       24       25       46 </v>
   <v type="int" >       12       21       24       45       46 </v>
   <v type="int" >       12       21       22       43       46 </v>
   <v type="int" >       12       21       42       43       46 </v>
   <v type="int" >       12       21       42       45       46 </v>
   <v type="int" >       12       17       18       22       43 </v>
   <v type="int" >       12       17       21       22       43 </v>
   <v type="int" >       12       17       21       42       43 </v>
   <v type="int" >       12       17       18       39       43 </v>
   <v type="int" >       12       17       38       39       43 </v>
   <v type="int" >       12       17       38       42       43 </v>
   <v type="int" >       12       12       13       18       39 </v>
   <v type="int" >       12       12       17       18       39 </v>
   <v type="int" >       12       12       17       38       39 </v>
   <v type="int" >       12       12       13       34       39 </v>
   <v type="int" >       12       12       33       34       39 </v>
   <v type="int" >       12       12       33       38       39 </v>
   <v type="int" >       12        6        7       13       34 </v>
   <v type="int" >       12        6       12       13       34 </v>
   <v type="int" >       12        6       12       33       34 </v>
   <v type="int" >       12       23       24       26       47 </v>
   <v type="int" >       12       23       24       45       47 </v>
   <v type="int" >       12       23       44       45       47 </v>
   <v type="int" >       12       20       21       24       45 </v>
   <v type="int" >       12       20       23       24       45 </v>
   <v type="int" >       12       20       23       44       45 </v>
   <v type="int" >       12       20       21       42       45 </v>
   <v type="int" >       12       20       41       42       45 </v>
   <v type="int" >       12       20       41       44       45 </v>
   <v type="int" >       12       16       17       21       42 </v>
   <v type="int" >       12       16       20       21       42 </v>
   <v type="int" >       12       16       20       41       42 </v>
   <v type="int" >       12       16       17       38       42 </v>
   <v type="int" >       12       16       37       38       42 </v>
   <v type="int" >       12       16       37       41       42 </v>
   <v type="int" >       12       11       12       17       38 </v>
   <v type="int" >       12       11       16       17       38 </v>
   <v type="int" >       12       11       16       37       38 </v>
   <v type="int" >       12       11       12       33       38 </v>
   <v type="int" >       12       11       32       33       38 </v>
   <v type="int" >       12       11       32       37       38 </v>
   <v type="int" >       12        5        6       12       33 </v>
   <v type="int" >       12        5       11       12       33 </v>
   <v type="int" >       12        5       11       32       33 </v>
   <v type="int" >       12       19       20       23       44 </v>
   <v type="int" >       12       19       20       41       44 </v>
   <v type="int" >       12       19       40       41       44 </v>
   <v type="int" >       12       15       16       20       41 </v>
   <v type="int" >       12       15       19       20       41 </v>
   <v type="int" >       12       15       19       40       41 </v>
   <v type="int" >       12       15       16       37       41 </v>
   <v type="int" >       12       15       36       37       41 </v>
   <v type="int" >       12       15       36       40       41 </v>
   <v type="int" >       12       10       11       16       37 </v>
   <v type="int" >       12       10       15       16       37 </v>
   <v type="int" >       12       10       15       36       37 </v>
   <v type="int" >       12       10       11       32       37 </v>
   <v type="int" >       12       10       31       32       37 </v>
   <v type="int" >       12       10       31       36       37 </v>
   <v type="int" >       12        4        5       11       32 </v>
   <v type="int" >       12        4       10       11       32 </v>
   <v type="int" >       12        4       10       31       32 </v>
   <v type="int" >       12       14       15       19       40 </v>
   <v type="int" >       12       14       15       36       40 </v>
   <v type="int" >       12       14       35       36       40 </v>
   <v type="int" >       12        9       10       15       36 </v>
   <v type="int" >       12        9       14       15       36 </v>
   <v type="int" >       12        9       14       35       36 </v>
   <v type="int" >       12        9       10       31       36 </v>
   <v type="int" >       12        9       30       31       36 </v>
   <v type="int" >       12        9       30       35       36 </v>
   <v type="int" >       12        3        4       10       31 </v>
   <v type="int" >       12        3        9       10       31 </v>
   <v type="int" >       12        3        9       30       31 </v>
   <v type="int" >       12        8        9       14       35 </v>
   <v type="int" >       12        8        9       30       35 </v>
   <v type="int" >       12        8       29       30       35 </v>
   <v type="int" >       12        2        3        9       30 </v>
   <v type="int" >       12        2        8        9       30 </v>
   <v type="int" >       12        2        8       29       30 </v>
   <v type="int" >       12        1        2        8       29 </v>
   <v type="int" >       12       29       30       30       35 </v>
   <v type="int" >       12       30       30       35       35 </v>
   <v type="int" >       12       30       35       35       50 </v>
   <v type="int" >       12       30       31       35       36 </v>
   <v type="int" >       12       30       35       35       36 </v>
   <v type="int" >       12       35       35       36       50 </v>
   <v type="int" >       12       31       35       36       36 </v>
   <v type="int" >       24       35       36       36       51 </v>
   <v type="int" >       24       35       36       50       51 </v>
   <v type="int" >       12       31       32       36       37 </v>
   <v type="int" >       12       31       36       36       37 </v>
   <v type="int" >       12       36       36       37       51 </v>
   <v type="int" >       12       32       36       37       37 </v>
   <v type="int" >       12       36       37       37       52 </v>
   <v type="int" >       12       36       37       51       52 </v>
   <v type="int" >       12       32       33       37       38 </v>
   <v type="int" >       12       32       37       37       38 </v>
   <v type="int" >       12       37       37       38       52 </v>
   <v type="int" >       12       33       37       38       38 </v>
   <v type="int" >       12       37       38       38       53 </v>
   <v type="int" >       12       37       38       52       53 </v>
   <v type="int" >       12       33       34       38       39 </v>
   <v type="int" >       12       33       38       38       39 </v>
   <v type="int" >       12       38       38       39       53 </v>
   <v type="int" >       12       34       38       39       39 </v>
   <v type="int" >       12       38       39       39       54 </v>
   <v type="int" >       12       38       39       53       54 </v>
   <v type="int" >       12       35       36       40       50 </v>
   <v type="int" >       12       36       40       50       51 </v>
   <v type="int" >       12       40       50       51       55 </v>
   <v type="int" >       12       36       37       41       51 </v>
   <v type="int" >       12       36       40       41       51 </v>
   <v type="int" >       12       40       41       51       55 </v>
   <v type="int" >       12       37       41       51       52 </v>
   <v type="int" >       12       41       51       52       56 </v>
   <v type="int" >       12       41       51       55       56 </v>
   <v type="int" >       12       37       38       42       52 </v>
   <v type="int" >       12       37       41       42       52 </v>
   <v type="int" >       12       41       42       52       56 </v>
   <v type="int" >       12       38       42       52       53 </v>
   <v type="int" >       12       42       52       53       57 </v>
   <v type="int" >       12       42       52       56       57 </v>
   <v type="int" >       12       38       39       43       53 </v>
   <v type="int" >       12       38       42       43       53 </v>
   <v type="int" >       12       42       43       53       57 </v>
   <v type="int" >       12       39       43       53       54 </v>
   <v type="int" >       12       43       53       54       58 </v>
   <v type="int" >       12       43       53       57       58 </v>
   <v type="int" >       12       38       39       42       54 </v>
   <v type="int" >       12       39       42       43       54 </v>
   <v type="int" >       12       42       43       54       58 </v>
   <v type="int" >       12       38       42       53       54 </v>
   <v type="int" >       12       42       53       54       57 </v>
   <v type="int" >       12       42       54       57       58 </v>
   <v type="int" >       12       37       38       41       53 </v>
   <v type="int" >       12       38       41       42       53 </v>
   <v type="int" >       12       41       42       53       57 </v>
   <v type="int" >       12       37       41       52       53 </v>
   <v type="int" >       12       41       52       53       56 </v>
   <v type="int" >       12       41       53       56       57 </v>
   <v type="int" >       12       36       37       40       52 </v>
   <v type="int" >       12       37       40       41       52 </v>
   <v type="int" >       12       40       41       52       56 </v>
   <v type="int" >       12       36       40       51       52 </v>
   <v type="int" >       12       40       51       52       55 </v>
   <v type="int" >       12       40       52       55       56 </v>
   <v type="int" >       12       36       36       40       51 </v>
   <v type="int" >       12       36       40       51       55 </v>
   <v type="int" >       12       36       50       51       51 </v>
   <v type="int" >       12       36       51       51       55 </v>
   <v type="int" >       12       30       31       35       50 </v>
   <v type="int" >       12       31       35       36       50 </v>
   <v type="int" >       12       31       36       50       51 </v>
   <v type="int" >       12       40       41       44       55 </v>
   <v type="int" >       12       41       44       55       56 </v>
   <v type="int" >       12       44       55       56       59 </v>
   <v type="int" >       12       41       42       45       56 </v>
   <v type="int" >       12       41       44       45       56 </v>
   <v type="int" >       12       44       45       56       59 </v>
   <v type="int" >       12       42       45       56       57 </v>
   <v type="int" >       12       45       56       57       60 </v>
   <v type="int" >       12       45       56       59       60 </v>
   <v type="int" >       12       42       43       46       57 </v>
   <v type="int" >       12       42       45       46       57 </v>
   <v type="int" >       12       45       46       57       60 </v>
   <v type="int" >       12       43       46       57       58 </v>
   <v type="int" >       12       46       57       58       61 </v>
   <v type="int" >       12       46       57       60       61 </v>
   <v type="int" >       12       42       43       45       58 </v>
   <v type="int" >       12       43       45       46       58 </v>
   <v type="int" >       12       45       46       58       61 </v>
   <v type="int" >       12       42       45       57       58 </v>
   <v type="int" >       12       45       57       58       60 </v>
   <v type="int" >       12       45       58       60       61 </v>
   <v type="int" >       12       41       42       44       57 </v>
   <v type="int" >       12       42       44       45       57 </v>
   <v type="int" >       12       44       45       57       60 </v>
   <v type="int" >       12       41       44       56       57 </v>
   <v type="int" >       12       44       56       57       59 </v>
   <v type="int" >       12       44       57       59       60 </v>
   <v type="int" >       12       40       41       41       56 </v>
   <v type="int" >       12       41       41       44       56 </v>
   <v type="int" >       12       41       44       56       59 </v>
   <v type="int" >       12       40       41       55       56 </v>
   <v type="int" >       12       41       55       56       56 </v>
   <v type="int" >       12       41       56       56       59 </v>
   <v type="int" >       12       36       37       40       55 </v>
   <v type="int" >       12       37       40       41       55 </v>
   <v type="int" >       12       37       41       55       56 </v>
   <v type="int" >       12       36       37       51       55 </v>
   <v type="int" >       12       37       51       52       55 </v>
   <v type="int" >       12       37       52       55       56 </v>
   <v type="int" >       12       31       32       36       51 </v>
   <v type="int" >       12       32       36       37       51 </v>
   <v type="int" >       12       32       37       51       52 </v>
   <v type="int" >       12       44       45       47       59 </v>
   <v type="int" >       12       45       47       59       60 </v>
   <v type="int" >       12       47       59       60       62 </v>
   <v type="int" >       12       45       46       48       60 </v>
   <v type="int" >       12       45       47       48       60 </v>
   <v type="int" >       12       47       48       60       62 </v>
   <v type="int" >       12       46       48       60       61 </v>
   <v type="int" >       12       48       60       61       63 </v>
   <v type="int" >       12       48       60       62       63 </v>
   <v type="int" >       12       45       46       47       61 </v>
   <v type="int" >       12       46       47       48       61 </v>
   <v type="int" >       12       47       48       61       63 </v>
   <v type="int" >       12       45       47       60       61 </v>
   <v type="int" >       12       47       60       61       62 </v>
   <v type="int" >       12       47       61       62       63 </v>
   <v type="int" >       12       44       45       45       60 </v>
   <v type="int" >       12       45       45       47       60 </v>
   <v type="int" >       12       45       47       60       62 </v>
   <v type="int" >       12       44       45       59       60 </v>
   <v type="int" >       12       45       59       60       60 </v>
   <v type="int" >       12       45       60       60       62 </v>
   <v type="int" >       12       41       42       44       59 </v>
   <v type="int" >       12       42       44       45       59 </v>
   <v type="int" >       12       42       45       59       60 </v>
   <v type="int" >       12       41       42       56       59 </v>
   <v type="int" >       12       42       56       57       59 </v>
   <v type="int" >       12       42       57       59       60 </v>
   <v type="int" >       12       37       38       41       56 </v>
   <v type="int" >       12       38       41       42       56 </v>
   <v type="int" >       12       38       42       56       57 </v>
   <v type="int" >       12       37       38       52       56 </v>
   <v type="int" >       12       38       52       53       56 </v>
   <v type="int" >       12       38       53       56       57 </v>
   <v type="int" >       12       32       33       37       52 </v>
   <v type="int" >       12       33       37       38       52 </v>
   <v type="int" >       12       33       38       52       53 </v>
   <v type="int" >       12       47       48       49       62 </v>
   <v type="int" >       12       48       49       62       63 </v>
   <v type="int" >       12       49       62       63       64 </v>
   <v type="int" >       12       47       48       48       63 </v>
   <v type="int" >       12       48       48       49       63 </v>
   <v type="int" >       12       48       49       63       64 </v>
   <v type="int" >       12       47       48       62       63 </v>
   <v type="int" >       12       48       62       63       63 </v>
   <v type="int" >       12       48       63       63       64 </v>
   <v type="int" >       12       45       46       47       62 </v>
   <v type="int" >       12       46       47       48       62 </v>
   <v type="int" >       12       46       48       62       63 </v>
   <v type="int" >       12       45       46       60       62 </v>
   <v type="int" >       12       46       60       61       62 </v>
   <v type="int" >       12       46       61       62       63 </v>
   <v type="int" >       12       42       43       45       60 </v>
   <v type="int" >       12       43       45       46       60 </v>
   <v type="int" >       12       43       46       60       61 </v>
   <v type="int" >       12       42       43       57       60 </v>
   <v type="int" >       12       43       57       58       60 </v>
   <v type="int" >       12       43       58       60       61 </v>
   <v type="int" >       12       38       39       42       57 </v>
   <v type="int" >       12       39       42       43       57 </v>
   <v type="int" >       12       39       43       57       58 </v>
   <v type="int" >       12       38       39       53       57 </v>
   <v type="int" >       12       39       53       54       57 </v>
   <v type="int" >       12       39       54       57       58 </v>
   <v type="int" >       12       33       34       38       53 </v>
   <v type="int" >       12       34       38       39       53 </v>
   <v type="int" >       12       34       39       53       54 </v>
   <v type="int" >       12       47       48       49       64 </v>
   <v type="int" >       12       47       48       63       64 </v>
   <v type="int" >       12       47       62       63       64 </v>
   <v type="int" >       12       45       46       48       63 </v>
   <v type="int" >       12       45       47       48       63 </v>
   <v type="int" >       12       45       47       62       63 </v>
   <v type="int" >       12       45       46       61       63 </v>
   <v type="int" >       12       45       60       61       63 </v>
   <v type="int" >       12       45       60       62       63 </v>
   <v type="int" >       12       42       43       46       61 </v>
   <v type="int" >       12       42       45       46       61 </v>
   <v type="int" >       12       42       45       60       61 </v>
   <v type="int" >       12       42       43       58       61 </v>
   <v type="int" >       12       42       57       58       61 </v>
   <v type="int" >       12       42       57       60       61 </v>
   <v type="int" >       12       38       39       43       58 </v>
   <v type="int" >       12       38       42       43       58 </v>
   <v type="int" >       12       38       42       57       58 </v>
   <v type="int" >       12       38       39       54       58 </v>
   <v type="int" >       12       38       53       54       58 </v>
   <v type="int" >       12       38       53       57       58 </v>
   <v type="int" >       12       33       34       39       54 </v>
   <v type="int" >       12       33       38       39       54 </v>
   <v type="int" >       12       33       38       53       54 </v>
   <v type="int" >       12       44       45       47       62 </v>
   <v type="int" >       12       44       45       60       62 </v>
   <v type="int" >       12       44       59       60       62 </v>
   <v type="int" >       12       41       42       45       60 </v>
   <v type="int" >       12       41       44       45       60 </v>
   <v type="int" >       12       41       44       59       60 </v>
   <v type="int" >       12       41       42       57       60 </v>
   <v type="int" >       12       41       56       57       60 </v>
   <v type="int" >       12       41       56       59       60 </v>
   <v type="int" >       12       37       38       42       57 </v>
   <v type="int" >       12       37       41       42       57 </v>
   <v type="int" >       12       37       41       56       57 </v>
   <v type="int" >       12       37       38       53       57 </v>
   <v type="int" >       12       37       52       53       57 </v>
   <v type="int" >       12       37       52       56       57 </v>
   <v type="int" >       12       32       33       38       53 </v>
   <v type="int" >       12       32       37       38       53 </v>
   <v type="int" >       12       32       37       52       53 </v>
   <v type="int" >       12       40       41       44       59 </v>
   <v type="int" >       12       40       41       56       59 </v>
   <v type="int" >       12       40       55       56       59 </v>
   <v type="int" >       12       36       37       41       56 </v>
   <v type="int" >       12       36       40       41       56 </v>
   <v type="int" >       12       36       40       55       56 </v>
   <v type="int" >       12       36       37       52       56 </v>
   <v type="int" >       12       36       51       52       56 </v>
   <v type="int" >       12       36       51       55       56 </v>
   <v type="int" >       12       31       32       37       52 </v>
   <v type="int" >       12       31       36       37       52 </v>
   <v type="int" >       12       31       36       51       52 </v>
   <v type="int" >       12       35       36       40       55 </v>
   <v type="int" >       12       35       36       51       55 </v>
   <v type="int" >       12       35       50       51       55 </v>
   <v type="int" >       12       30       31       36       51 </v>
   <v type="int" >       12       30       35       36       51 </v>
   <v type="int" >       12       30       35       50       51 </v>
   <v type="int" >       12       29       30       35       50 </v>
   <v type="int" >       12       50       51       51       55 </v>
   <v type="int" >       12       51       51       55       55 </v>
   <v type="int" >       12       51       55       55       65 </v>
   <v type="int" >       12       51       52       55       56 </v>
   <v type="int" >       12       51       55       55       56 </v>
   <v type="int" >       12       55       55       56       65 </v>
   <v type="int" >       12       52       55       56       56 </v>
   <v type="int" >       24       55       56       56       66 </v>
   <v type="int" >       24       55       56       65       66 </v>
   <v type="int" >       12       52       53       56       57 </v>
   <v type="int" >       12       52       56       56       57 </v>
   <v type="int" >       12       56       56       57       66 </v>
   <v type="int" >       12       53       56       57       57 </v>
   <v type="int" >       12       56       57       57       67 </v>
   <v type="int" >       12       56       57       66       67 </v>
   <v type="int" >       12       53       54       57       58 </v>
   <v type="int" >       12       53       57       57       58 </v>
   <v type="int" >       12       57       57       58       67 </v>
   <v type="int" >       12       54       57       58       58 </v>
   <v type="int" >       12       57       58       58       68 </v>
   <v type="int" >       12       57       58       67       68 </v>
   <v type="int" >       12       55       56       59       65 </v>
   <v type="int" >       12       56       59       65       66 </v>
   <v type="int" >       12       59       65       66       69 </v>
   <v type="int" >       12       56       57       60       66 </v>
   <v type="int" >       12       56       59       60       66 </v>
   <v type="int" >       12       59       60       66       69 </v>
   <v type="int" >       12       57       60       66       67 </v>
   <v type="int" >       12       60       66       67       70 </v>
   <v type="int" >       12       60       66       69       70 </v>
   <v type="int" >       12       57       58       61       67 </v>
   <v type="int" >       12       57       60       61       67 </v>
   <v type="int" >       12       60       61       67       70 </v>
   <v type="int" >       12       58       61       67       68 </v>
   <v type="int" >       12       61       67       68       71 </v>
   <v type="int" >       12       61       67       70       71 </v>
   <v type="int" >       12       57       58       60       68 </v>
   <v type="int" >       12       58       60       61       68 </v>
   <v type="int" >       12       60       61       68       71 </v>
   <v type="int" >       12       57       60       67       68 </v>
   <v type="int" >       12       60       67       68       70 </v>
   <v type="int" >       12       60       68       70       71 </v>
   <v type="int" >       12       56       57       59       67 </v>
   <v type="int" >       12       57       59       60       67 </v>
   <v type="int" >       12       59       60       67       70 </v>
   <v type="int" >       12       56       59       66       67 </v>
   <v type="int" >       12       59       66       67       69 </v>
   <v type="int" >       12       59       67       69       70 </v>
   <v type="int" >       12       56       56       59       66 </v>
   <v type="int" >       12       56       59       66       69 </v>
   <v type="int" >       12       56       65       66       66 </v>
   <v type="int" >       12       56       66       66       69 </v>
   <v type="int" >       12       51       52       55       65 </v>
   <v type="int" >       12       52       55       56       65 </v>
   <v type="int" >       12       52       56       65       66 </v>
   <v type="int" >       12       59       60       62       69 </v>
   <v type="int" >       12       60       62       69       70 </v>
   <v type="int" >       12       62       69       70       72 </v>
   <v type="int" >       12       60       61       63       70 </v>
   <v type="int" >       12       60       62       63       70 </v>
   <v type="int" >       12       62       63       70       72 </v>
   <v type="int" >       12       61       63       70       71 </v>
   <v type="int" >       12       63       70       71       73 </v>
   <v type="int" >       12       63       70       72       73 </v>
   <v type="int" >       12       60       61       62       71 </v>
   <v type="int" >       12       61       62       63       71 </v>
   <v type="int" >       12       62       63       71       73 </v>
   <v type="int" >       12       60       62       70       71 </v>
   <v type="int" >       12       62       70       71       72 </v>
   <v type="int" >       12       62       71       72       73 </v>
   <v type="int" >       12       59       60       60       70 </v>
   <v type="int" >       12       60       60       62       70 </v>
   <v type="int" >       12       60       62       70       72 </v>
   <v type="int" >       12       59       60       69       70 </v>
   <v type="int" >       12       60       69       70       70 </v>
   <v type="int" >       12       60       70       70       72 </v>
   <v type="int" >       12       56       57       59       69 </v>
   <v type="int" >       12       57       59       60       69 </v>
   <v type="int" >       12       57       60       69       70 </v>
   <v type="int" >       12       56       57       66       69 </v>
   <v type="int" >       12       57       66       67       69 </v>
   <v type="int" >       12       57       67       69       70 </v>
   <v type="int" >       12       52       53       56       66 </v>
   <v type="int" >       12       53       56       57       66 </v>
   <v type="int" >       12       53       57       66       67 </v>
   <v type="int" >       12       62       63       64       72 </v>
   <v type="int" >       12       63       64       72       73 </v>
   <v type="int" >       12       64       72       73       74 </v>
   <v type="int" >       12       62       63       63       73 </v>
   <v type="int" >       12       63       63       64       73 </v>
   <v type="int" >       12       63       64       73       74 </v>
   <v type="int" >       12       62       63       72       73 </v>
   <v type="int" >       12       63       72       73       73 </v>
   <v type="int" >       12       63       73       73       74 </v>
   <v type="int" >       12       60       61       62       72 </v>
   <v type="int" >       12       61       62       63       72 </v>
   <v type="int" >       12       61       63       72       73 </v>
   <v type="int" >       12       60       61       70       72 </v>
   <v type="int" >       12       61       70       71       72 </v>
   <v type="int" >       12       61       71       72       73 </v>
   <v type="int" >       12       57       58       60       70 </v>
   <v type="int" >       12       58       60       61       70 </v>
   <v type="int" >       12       58       61       70       71 </v>
   <v type="int" >       12       57       58       67       70 </v>
   <v type="int" >       12       58       67       68       70 </v>
   <v type="int" >       12       58       68       70       71 </v>
   <v type="int" >       12       53       54       57       67 </v>
   <v type="int" >       12       54       57       58       67 </v>
   <v type="int" >       12       54       58       67       68 </v>
   <v type="int" >       12       62       63       64       74 </v>
   <v type="int" >       12       62       63       73       74 </v>
   <v type="int" >       12       62       72       73       74 </v>
   <v type="int" >       12       60       61       63       73 </v>
   <v type="int" >       12       60       62       63       73 </v>
   <v type="int" >       12       60       62       72       73 </v>
   <v type="int" >       12       60       61       71       73 </v>
   <v type="int" >       12       60       70       71       73 </v>
   <v type="int" >       12       60       70       72       73 </v>
   <v type="int" >       12       57       58       61       71 </v>
   <v type="int" >       12       57       60       61       71 </v>
   <v type="int" >       12       57       60       70       71 </v>
   <v type="int" >       12       57       58       68       71 </v>
   <v type="int" >       12       57       67       68       71 </v>
   <v type="int" >       12       57       67       70       71 </v>
   <v type="int" >       12       53       54       58       68 </v>
   <v type="int" >       12       53       57       58       68 </v>
   <v type="int" >       12       53       57       67       68 </v>
   <v type="int" >       12       59       60       62       72 </v>
   <v type="int" >       12       59       60       70       72 </v>
   <v type="int" >       12       59       69       70       72 </v>
   <v type="int" >       12       56       57       60       70 </v>
   <v type="int" >       12       56       59       60       70 </v>
   <v type="int" >       12       56       59       69       70 </v>
   <v type="int" >       12       56       57       67       70 </v>
   <v type="int" >       12       56       66       67       70 </v>
   <v type="int" >       12       56       66       69       70 </v>
   <v type="int" >       12       52       53       57       67 </v>
   <v type="int" >       12       52       56       57       67 </v>
   <v type="int" >       12       52       56       66       67 </v>
   <v type="int" >       12       55       56       59       69 </v>
   <v type="int" >       12       55       56       66       69 </v>
   <v type="int" >       12       55       65       66       69 </v>
   <v type="int" >       12       51       52       56       66 </v>
   <v type="int" >       12       51       55       56       66 </v>
   <v type="int" >       12       51       55       65       66 </v>
   <v type="int" >       12       50       51       55       65 </v>
   <v type="int" >       12       65       66       66       69 </v>
   <v type="int" >       12       66       66       69       69 </v>
   <v type="int" >       12       66       69       69       75 </v>
   <v type="int" >       12       66       67       69       70 </v>
   <v type="int" >       12       66       69       69       70 </v>
   <v type="int" >       12       69       69       70       75 </v>
   <v type="int" >       12       67       69       70       70 </v>
   <v type="int" >       24       69       70       70       76 </v>
   <v type="int" >       24       69       70       75       76 </v>
   <v type="int" >       12       67       68       70       71 </v>
   <v type="int" >       12       67       70       70       71 </v>
   <v type="int" >       12       70       70       71       76 </v>
   <v type="int" >       12       68       70       71       71 </v>
   <v type="int" >       12       70       71       71       77 </v>
   <v type="int" >       12       70       71       76       77 </v>
   <v type="int" >       12       69       70       72       75 </v>
   <v type="int" >       12       70       72       75       76 </v>
   <v type="int" >       12       72       75       76       78 </v>
   <v type="int" >       12       70       71       73       76 </v>
   <v type="int" >       12       70       72       73       76 </v>
   <v type="int" >       12       72       73       76       78 </v>
   <v type="int" >       12       71       73       76       77 </v>
   <v type="int" >       12       73       76       77       79 </v>
   <v type="int" >       12       73       76       78       79 </v>
   <v type="int" >       12       70       71       72       77 </v>
   <v type="int" >       12       71       72       73       77 </v>
   <v type="int" >       12       72       73       77       79 </v>
   <v type="int" >       12       70       72       76       77 </v>
   <v type="int" >       12       72       76       77       78 </v>
   <v type="int" >       12       72       77       78       79 </v>
   <v type="int" >       12       70       70       72       76 </v>
   <v type="int" >       12       70       72       76       78 </v>
   <v type="int" >       12       70       75       76       76 </v>
   <v type="int" >       12       70       76       76       78 </v>
   <v type="int" >       12       66       67       69       75 </v>
   <v type="int" >       12       67       69       70       75 </v>
   <v type="int" >       12       67       70       75       76 </v>
   <v type="int" >       12       72       73       74       78 </v>
   <v type="int" >       12       73       74       78       79 </v>
   <v type="int" >       12       74       78       79       80 </v>
   <v type="int" >       12       72       73       73       79 </v>
   <v type="int" >       12       73       73       74       79 </v>
   <v type="int" >       12       73       74       79       80 </v>
   <v type="int" >       12       72       73       78       79 </v>
   <v type="int" >       12       73       78       79       79 </v>
   <v type="int" >       12       73       79       79       80 </v>
   <v type="int" >       12       70       71       72       78 </v>
   <v type="int" >       12       71       72       73       78 </v>
   <v type="int" >       12       71       73       78       79 </v>
   <v type="int" >       12       70       71       76       78 </v>
   <v type="int" >       12       71       76       77       78 </v>
   <v type="int" >       12       71       77       78       79 </v>
   <v type="int" >       12       67       68       70       76 </v>
   <v type="int" >       12       68       70       71       76 </v>
   <v type="int" >       12       68       71       76       77 </v>
   <v type="int" >       12       72       73       74       80 </v>
   <v type="int" >       12       72       73       79       80 </v>
   <v type="int" >       12       72       78       79       80 </v>
   <v type="int" >       12       70       71       73       79 </v>
   <v type="int" >       12       70       72       73       79 </v>
   <v type="int" >       12       70       72       78       79 </v>
   <v type="int" >       12       70       71       77       79 </v>
   <v type="int" >       12       70       76       77       79 </v>
   <v type="int" >       12       70       76       78       79 </v>
   <v type="int" >       12       67       68       71       77 </v>
   <v type="int" >       12       67       70       71       77 </v>
   <v type="int" >       12       67       70       76       77 </v>
   <v type="int" >       12       69       70       72       78 </v>
   <v type="int" >       12       69       70       76       78 </v>
   <v type="int" >       12       69       75       76       78 </v>
   <v type="int" >       12       66       67       70       76 </v>
   <v type="int" >       12       66       69       70       76 </v>
   <v type="int" >       12       66       69       75       76 </v>
   <v type="int" >       12       65       66       69       75 </v>
   <v type="int" >       12       75       76       76       78 </v>
   <v type="int" >       12       76       76       78       78 </v>
   <v type="int" >       12       76       78       78       81 </v>
   <v type="int" >       12       76       77       78       79 </v>
   <v type="int" >       12       76       78       78       79 </v>
   <v type="int" >       12       78       78       79       81 </v>
   <v type="int" >       12       77       78       79       79 </v>
   <v type="int" >       24       78       79       79       82 </v>
   <v type="int" >       24       78       79       81       82 </v>
   <v type="int" >       12       78       79       80       81 </v>
   <v type="int" >       12       79       80       81       82 </v>
   <v type="int" >       12       80       81       82       83 </v>
   <v type="int" >       12       79       79       80       82 </v>
   <v type="int" >       12       79       80       82       83 </v>
   <v type="int" >       12       79       81       82       82 </v>
   <v type="int" >       12       79       82       82       83 </v>
   <v type="int" >       12       76       77       78       81 </v>
   <v type="int" >       12       77       78       79       81 </v>
   <v type="int" >       12       77       79       81       82 </v>
   <v type="int" >       12       78       79       80       83 </v>
   <v type="int" >       12       78       79       82       83 </v>
   <v type="int" >       12       78       81       82       83 </v>
   <v type="int" >       12       76       77       79       82 </v>
   <v type="int" >       12       76       78       79       82 </v>
   <v type="int" >       12       76       78       81       82 </v>
   <v type="int" >       12       75       76       78       81 </v>
   <v type="int" >       12       81       82       82       83 </v>
   <v type="int" >       12       82       82       83       83 </v>
   <v type="int" >       12       82       83       83       84 </v>
   <v type="int" >       12       81       82       83       84 </v>
  </varray>
  <i name="volumeweight">      0.00009645 </i>
 </kpoints>
 <parameters>
  <separator name="general" >
   <i type="string" name="SYSTEM">unknown system</i>
   <i type="logical" name="LCOMPAT"> F  </i>
  </separator>
  <separator name="electronic" >
   <i type="string" name="PREC">accura</i>
   <i name="ENMAX">    400.00000000</i>
   <i name="ENAUG">    644.87300000</i>
   <i name="EDIFF">      0.00000100</i>
   <i type="int" name="IALGO">    38</i>
   <i type="int" name="IWAVPR">    10</i>
   <i type="int" name="NBANDS">    24</i>
   <i name="NELECT">     32.00000000</i>
   <i type="int" name="TURBO">     0</i>
   <i type="int" name="IRESTART">     0</i>
   <i type="int" name="NREBOOT">     0</i>
   <i type="int" name="NMIN">     0</i>
   <i name="EREF">      0.00000000</i>
   <separator name="electronic smearing" >
    <i type="int" name="ISMEAR">    -5</i>
    <i name="SIGMA">      0.06000000</i>
    <i name="KSPACING">      0.50000000</i>
    <i type="logical" name="KGAMMA"> T  </i>
   </separator>
   <separator name="electronic projectors" >
    <i type="logical" name="LREAL"> F  </i>
    <v name="ROPT">      0.00000000</v>
    <i type="int" name="LMAXPAW">  -100</i>
    <i type="int" name="LMAXMIX">     2</i>
    <i type="logical" name="NLSPLINE"> F  </i>
   </separator>
   <separator name="electronic startup" >
    <i type="int" name="ISTART">     0</i>
    <i type="int" name="ICHARG">     2</i>
    <i type="int" name="INIWAV">     1</i>
   </separator>
   <separator name="electronic spin" >
    <i type="int" name="ISPIN">     1</i>
    <i type="logical" name="LNONCOLLINEAR"> F  </i>
    <v name="MAGMOM">      1.00000000      1.00000000      1.00000000      1.00000000      1.00000000      1.00000000      1.00000000      1.00000000</v>
    <i name="NUPDOWN">     -1.00000000</i>
    <i type="logical" name="LSORBIT"> F  </i>
    <v name="SAXIS">      0.00000000      0.00000000      1.00000000</v>
    <i type="logical" name="LSPIRAL"> F  </i>
    <v name="QSPIRAL">      0.00000000      0.00000000      0.00000000</v>
    <i type="logical" name="LZEROZ"> F  </i>
   </separator>
   <separator name="electronic exchange-correlation" >
    <i type="logical" name="LASPH"> F  </i>
    <i type="logical" name="LMETAGGA"> F  </i>
   </separator>
   <separator name="electronic convergence" >
    <i type="int" name="NELM">    60</i>
    <i type="int" name="NELMDL">    -5</i>
    <i type="int" name="NELMIN">     2</i>
    <i name="ENINI">    400.00000000</i>
    <separator name="electronic convergence detail" >
     <i type="logical" name="LDIAG"> T  </i>
     <i type="logical" name="LSUBROT"> F  </i>
     <i name="WEIMIN">      0.00000000</i>
     <i name="EBREAK">      0.00000001</i>
     <i name="DEPER">      0.30000000</i>
     <i type="int" name="NRMM">     4</i>
     <i name="TIME">      0.40000000</i>
    </separator>
   </separator>
   <separator name="electronic mixer" >
    <i name="AMIX">      0.40000000</i>
    <i name="BMIX">      1.00000000</i>
    <i name="AMIN">      0.10000000</i>
    <i name="AMIX_MAG">      1.60000000</i>
    <i name="BMIX_MAG">      1.00000000</i>
    <separator name="electronic mixer details" >
     <i type="int" name="IMIX">     4</i>
     <i type="logical" name="MIXFIRST"> F  </i>
     <i type="int" name="MAXMIX">   -45</i>
     <i name="WC">    100.00000000</i>
     <i type="int" name="INIMIX">     1</i>
     <i type="int" name="MIXPRE">     1</i>
     <i type="int" name="MREMOVE">     5</i>
    </separator>
   </separator>
   <separator name="electronic dipolcorrection" >
    <i type="logical" name="LDIPOL"> F  </i>
    <i type="logical" name="LMONO"> F  </i>
    <i type="int" name="IDIPOL">     0</i>
    <i name="EPSILON">      1.00000000</i>
    <v name="DIPOL">   -100.00000000   -100.00000000   -100.00000000</v>
    <i name="EFIELD">      0.00000000</i>
   </separator>
  </separator>
  <separator name="grids" >
   <i type="int" name="NGX">    24</i>
   <i type="int" name="NGY">    24</i>
   <i type="int" name="NGZ">    24</i>
   <i type="int" name="NGXF">    48</i>
   <i type="int" name="NGYF">    48</i>
   <i type="int" name="NGZF">    48</i>
   <i type="logical" name="ADDGRID"> F  </i>
  </separator>
  <separator name="ionic" >
   <i type="int" name="NSW">     0</i>
   <i type="int" name="IBRION">    -1</i>
   <i type="int" name="MDALGO">     0</i>
   <i type="int" name="ISIF">     2</i>
   <i name="PSTRESS">      0.00000000</i>
   <i name="EDIFFG">      0.00001000</i>
   <i type="int" name="NFREE">     0</i>
   <i name="POTIM">      0.02000000</i>
   <i name="SMASS">     -3.00000000</i>
   <i name="SCALEE">      1.00000000</i>
  </separator>
  <separator name="ionic md" >
   <i name="TEBEG">      0.00010000</i>
   <i name="TEEND">      0.00010000</i>
   <i type="int" name="NBLOCK">     1</i>
   <i type="int" name="KBLOCK">     1</i>
   <i type="int" name="NPACO">   256</i>
   <i name="APACO">     16.00000000</i>
  </separator>
  <separator name="symmetry" >
   <i type="int" name="ISYM">     2</i>
   <i name="SYMPREC">      0.00001000</i>
  </separator>
  <separator name="dos" >
   <i type="int" name="LORBIT">     0</i>
   <v name="RWIGS">     -1.00000000</v>
   <i type="int" name="NEDOS">   301</i>
   <i name="EMIN">     10.00000000</i>
   <i name="EMAX">    -10.00000000</i>
   <i name="EFERMI">      0.00000000</i>
  </separator>
  <separator name="writing" >
   <i type="int" name="NWRITE">     2</i>
   <i type="logical" name="LWAVE"> F  </i>
   <i type="logical" name="LDOWNSAMPLE"> F  </i>
   <i type="logical" name="LCHARG"> F  </i>
   <i type="logical" name="LPARD"> F  </i>
   <i type="logical" name="LVTOT"> F  </i>
   <i type="logical" name="LVHAR"> F  </i>
   <i type="logical" name="LELF"> F  </i>
   <i type="logical" name="LOPTICS"> F  </i>
   <v name="STM">      0.00000000      0.00000000      0.00000000      0.00000000      0.00000000      0.00000000      0.00000000</v>
  </separator>
  <separator name="performance" >
   <i type="int" name="NPAR">     4</i>
   <i type="int" name="NSIM">     4</i>
   <i type="int" name="NBLK">    -1</i>
   <i type="logical" name="LPLANE"> T  </i>
   <i type="logical" name="LSCALAPACK"> T  </i>
   <i type="logical" name="LSCAAWARE"> F  </i>
   <i type="logical" name="LSCALU"> F  </i>
   <i type="logical" name="LASYNC"> F  </i>
   <i type="logical" name="LORBITALREAL"> F  </i>
  </separator>
  <separator name="miscellaneous" >
   <i type="int" name="IDIOT">     3</i>
   <i type="int" name="ISPECIAL">     0</i>
   <i type="logical" name="LMUSIC"> F  </i>
   <v name="POMASS">     12.01100000</v>
   <v name="DARWINR">      0.00000000</v>
   <v name="DARWINV">      1.00000000</v>
   <i type="logical" name="LCORR"> T  </i>
  </separator>
  <i type="logical" name="GGA_COMPAT"> T  </i>
  <i type="logical" name="LBERRY"> F  </i>
  <i type="int" name="ICORELEVEL">     0</i>
  <i type="logical" name="LDAU"> F  </i>
  <i type="int" name="I_CONSTRAINED_M">     0</i>
  <separator name="electronic exchange-correlation" >
   <i type="string" name="GGA">--</i>
   <i type="int" name="VOSKOWN">     0</i>
   <i type="logical" name="LHFCALC"> F  </i>
   <i type="string" name="PRECFOCK"></i>
   <i type="logical" name="LSYMGRAD"> F  </i>
   <i type="logical" name="LHFONE"> F  </i>
   <i type="logical" name="LRHFCALC"> F  </i>
   <i type="logical" name="LTHOMAS"> F  </i>
   <i type="logical" name="LMODELHF"> F  </i>
   <i name="ENCUT4O">     -1.00000000</i>
   <i type="int" name="EXXOEP">     0</i>
   <i type="int" name="FOURORBIT">     0</i>
   <i name="AEXX">      0.00000000</i>
   <i name="HFALPHA">      0.00000000</i>
   <i name="MCALPHA">      0.00000000</i>
   <i name="ALDAX">      1.00000000</i>
   <i name="AGGAX">      1.00000000</i>
   <i name="ALDAC">      1.00000000</i>
   <i name="AGGAC">      1.00000000</i>
   <i type="int" name="NKREDX">     1</i>
   <i type="int" name="NKREDY">     1</i>
   <i type="int" name="NKREDZ">     1</i>
   <i type="logical" name="SHIFTRED"> F  </i>
   <i type="logical" name="ODDONLY"> F  </i>
   <i type="logical" name="EVENONLY"> F  </i>
   <i type="int" name="LMAXFOCK">     0</i>
   <i type="int" name="NMAXFOCKAE">     0</i>
   <i type="logical" name="LFOCKAEDFT"> F  </i>
   <i name="HFSCREEN">      0.00000000</i>
   <i name="HFSCREENC">      0.00000000</i>
   <i type="int" name="NBANDSGWLOW">     0</i>
  </separator>
  <separator name="vdW DFT" >
   <i type="logical" name="LUSE_VDW"> F  </i>
   <i name="Zab_VDW">     -0.84910000</i>
   <i name="PARAM1">      0.12340000</i>
   <i name="PARAM2">      1.00000000</i>
   <i name="PARAM3">      0.00000000</i>
  </separator>
  <separator name="model GW" >
   <i type="int" name="MODEL_GW">     0</i>
   <i name="MODEL_EPS0">      3.94919273</i>
   <i name="MODEL_ALPHA">      1.00000000</i>
  </separator>
  <separator name="linear response parameters" >
   <i type="logical" name="LEPSILON"> F  </i>
   <i type="logical" name="LRPA"> F  </i>
   <i type="logical" name="LNABLA"> F  </i>
   <i type="logical" name="LVEL"> F  </i>
   <i type="int" name="KINTER">     0</i>
   <i name="CSHIFT">      0.10000000</i>
   <i name="OMEGAMAX">     -1.00000000</i>
   <i name="DEG_THRESHOLD">      0.00200000</i>
   <i name="RTIME">     -0.10000000</i>
   <i name="WPLASMAI">      0.00000000</i>
   <v name="DFIELD">      0.00000000      0.00000000      0.00000000</v>
   <v name="WPLASMA">      0.00000000      0.00000000      0.00000000      0.00000000      0.00000000      0.00000000      0.00000000      0.00000000      0.00000000</v>
  </separator>
  <separator name="orbital magnetization" >
   <i type="logical" name="NUCIND"> F  </i>
   <v name="MAGPOS">      0.00000000      0.00000000      0.00000000</v>
   <i type="logical" name="LNICSALL"> T  </i>
   <i type="logical" name="ORBITALMAG"> F  </i>
   <i type="logical" name="LMAGBLOCH"> F  </i>
   <i type="logical" name="LCHIMAG"> F  </i>
   <i type="logical" name="LGAUGE"> T  </i>
   <i type="int" name="MAGATOM">     0</i>
   <v name="MAGDIPOL">      0.00000000      0.00000000      0.00000000</v>
   <v name="AVECCONST">      0.00000000      0.00000000      0.00000000</v>
  </separator>
  <separator name="response functions" >
   <i type="logical" name="LADDER"> F  </i>
   <i type="logical" name="LRPAFORCE"> F  </i>
   <i type="logical" name="LFXC"> F  </i>
   <i type="logical" name="LHARTREE"> T  </i>
   <i type="int" name="IBSE">     0</i>
   <v type="int" name="KPOINT">    -1     0     0     0</v>
   <i type="logical" name="LTCTE"> F  </i>
   <i type="logical" name="LTETE"> F  </i>
   <i type="logical" name="LTRIPLET"> F  </i>
   <i type="logical" name="LFXCEPS"> F  </i>
   <i type="logical" name="LFXHEG"> F  </i>
   <i type="int" name="NATURALO">     2</i>
   <i type="logical" name="L2ORDER"> F  </i>
   <i type="logical" name="LMP2LT"> F  </i>
   <i type="logical" name="LUSEW"> F  </i>
   <i name="ENCUTGW">     -2.00000000</i>
   <i name="ENCUTGWSOFT">     -2.00000000</i>
[...]
       <r>   -6.8933    1.0000 </r>
       <r>   -6.8933    1.0000 </r>
       <r>   -3.8204    1.0000 </r>
       <r>   -3.8204    1.0000 </r>
       <r>   -3.8204    1.0000 </r>
       <r>   -2.9182    1.0000 </r>
       <r>    4.6679    1.0000 </r>
       <r>    4.6679    1.0000 </r>
       <r>    4.6679    1.0000 </r>
       <r>    4.9932    1.0000 </r>
       <r>    4.9932    1.0000 </r>
       <r>    4.9932    1.0000 </r>
       <r>    5.3964    1.0000 </r>
       <r>    5.3964    1.0000 </r>
       <r>   14.6336    0.0000 </r>
       <r>   14.8656    0.0000 </r>
       <r>   14.8656    0.0000 </r>
       <r>   14.8656    0.0000 </r>
       <r>   15.5090    0.0000 </r>
       <r>   15.5100    0.0000 </r>
       <r>   15.6617    0.0000 </r>
       <r>   15.6617    0.0000 </r>
      </set>
      <set comment="kpoint 82">
       <r>   -7.3404    1.0000 </r>
       <r>   -7.3404    1.0000 </r>
       <r>   -6.7904    1.0000 </r>
       <r>   -6.7904    1.0000 </r>
       <r>   -4.0214    1.0000 </r>
       <r>   -4.0214    1.0000 </r>
       <r>   -3.4793    1.0000 </r>
       <r>   -3.4793    1.0000 </r>
       <r>    4.7605    1.0000 </r>
       <r>    4.7605    1.0000 </r>
       <r>    5.1017    1.0000 </r>
       <r>    5.1017    1.0000 </r>
       <r>    5.2009    1.0000 </r>
       <r>    5.2009    1.0000 </r>
       <r>    5.2256    1.0000 </r>
       <r>    5.2256    1.0000 </r>
       <r>   14.7568    0.0000 </r>
       <r>   14.7568    0.0000 </r>
       <r>   14.9559    0.0000 </r>
       <r>   14.9559    0.0000 </r>
       <r>   15.4479    0.0000 </r>
       <r>   15.4486    0.0000 </r>
       <r>   15.4843    0.0000 </r>
       <r>   15.4846    0.0000 </r>
      </set>
      <set comment="kpoint 83">
       <r>   -6.9984    1.0000 </r>
       <r>   -6.9984    1.0000 </r>
       <r>   -6.9984    1.0000 </r>
       <r>   -6.9984    1.0000 </r>
       <r>   -3.9165    1.0000 </r>
       <r>   -3.9165    1.0000 </r>
       <r>   -3.9165    1.0000 </r>
       <r>   -3.9165    1.0000 </r>
       <r>    5.0775    1.0000 </r>
       <r>    5.0775    1.0000 </r>
       <r>    5.0775    1.0000 </r>
       <r>    5.0775    1.0000 </r>
       <r>    5.2763    1.0000 </r>
       <r>    5.2763    1.0000 </r>
       <r>    5.2763    1.0000 </r>
       <r>    5.2763    1.0000 </r>
       <r>   14.7668    0.0000 </r>
       <r>   14.7668    0.0000 </r>
       <r>   14.7668    0.0000 </r>
       <r>   14.7668    0.0000 </r>
       <r>   15.5759    0.0000 </r>
       <r>   15.5777    0.0000 </r>
       <r>   15.5929    0.0000 </r>
       <r>   15.6084    0.0000 </r>
      </set>
      <set comment="kpoint 84">
       <r>   -6.8945    1.0000 </r>
       <r>   -6.8945    1.0000 </r>
       <r>   -6.8945    1.0000 </r>
       <r>   -6.8945    1.0000 </r>
       <r>   -4.1199    1.0000 </r>
       <r>   -4.1199    1.0000 </r>
       <r>   -4.1199    1.0000 </r>
       <r>   -4.1199    1.0000 </r>
       <r>    5.2880    1.0000 </r>
       <r>    5.2880    1.0000 </r>
       <r>    5.2880    1.0000 </r>
       <r>    5.2880    1.0000 </r>
       <r>    5.2880    1.0000 </r>
       <r>    5.2880    1.0000 </r>
       <r>    5.2880    1.0000 </r>
       <r>    5.2880    1.0000 </r>
       <r>   14.6394    0.0000 </r>
       <r>   14.6394    0.0000 </r>
       <r>   14.6394    0.0000 </r>
       <r>   14.6394    0.0000 </r>
       <r>   15.5514    0.0000 </r>
       <r>   15.5514    0.0000 </r>
       <r>   15.5514    0.0000 </r>
       <r>   15.5514    0.0000 </r>
      </set>
     </set>
    </set>
   </array>
  </eigenvalues>
  <separator name="orbital magnetization" >
   <v name="MAGDIPOLOUT">      0.00000000      0.00000000      0.00000000</v>
  </separator>
  <dos>
   <i name="efermi">      7.79832972 </i>
   <total>
    <array>
     <dimension dim="1">gridpoints</dimension>
     <dimension dim="2">spin</dimension>
     <field>energy</field>
     <field>total</field>
     <field>integrated</field>
     <set>
      <set comment="spin 1">
       <r>   -13.3602     0.0000     0.0000 </r>
       <r>   -13.2506     0.0000     0.0000 </r>
       <r>   -13.1410     0.0000     0.0000 </r>
       <r>   -13.0314     0.0000     0.0000 </r>
       <r>   -12.9218     0.0000     0.0000 </r>
       <r>   -12.8122     0.0000     0.0000 </r>
       <r>   -12.7026     0.0000     0.0000 </r>
       <r>   -12.5930     0.0000     0.0000 </r>
       <r>   -12.4834     0.0000     0.0000 </r>
       <r>   -12.3738     0.0000     0.0000 </r>
       <r>   -12.2642     0.0000     0.0000 </r>
       <r>   -12.1546     0.0000     0.0000 </r>
       <r>   -12.0450     0.0000     0.0000 </r>
       <r>   -11.9354     0.0000     0.0000 </r>
       <r>   -11.8259     0.0382     0.0005 </r>
       <r>   -11.7163     0.1699     0.0148 </r>
       <r>   -11.6067     0.2664     0.0387 </r>
       <r>   -11.4971     0.3014     0.0695 </r>
       <r>   -11.3875     0.3537     0.1054 </r>
       <r>   -11.2779     0.3989     0.1471 </r>
       <r>   -11.1683     0.4310     0.1925 </r>
       <r>   -11.0587     0.4653     0.2415 </r>
       <r>   -10.9491     0.5079     0.2948 </r>
       <r>   -10.8395     0.5340     0.3521 </r>
       <r>   -10.7299     0.5602     0.4121 </r>
       <r>   -10.6203     0.5890     0.4750 </r>
       <r>   -10.5107     0.6207     0.5413 </r>
       <r>   -10.4011     0.6516     0.6111 </r>
       <r>   -10.2915     0.6730     0.6836 </r>
       <r>   -10.1819     0.6957     0.7586 </r>
       <r>   -10.0723     0.7203     0.8362 </r>
       <r>    -9.9628     0.7461     0.9165 </r>
       <r>    -9.8532     0.7737     0.9998 </r>
       <r>    -9.7436     0.7984     1.0861 </r>
       <r>    -9.6340     0.8188     1.1747 </r>
       <r>    -9.5244     0.8391     1.2655 </r>
       <r>    -9.4148     0.8623     1.3587 </r>
       <r>    -9.3052     0.8861     1.4545 </r>
       <r>    -9.1956     0.9111     1.5530 </r>
       <r>    -9.0860     0.9369     1.6542 </r>
       <r>    -8.9764     0.9575     1.7581 </r>
       <r>    -8.8668     0.9786     1.8642 </r>
       <r>    -8.7572     1.0010     1.9727 </r>
       <r>    -8.6476     1.0242     2.0836 </r>
       <r>    -8.5380     1.0479     2.1972 </r>
       <r>    -8.4284     1.0972     2.3137 </r>
       <r>    -8.3188     1.1516     2.4376 </r>
       <r>    -8.2093     1.1990     2.5658 </r>
       <r>    -8.0997     1.2352     2.7000 </r>
       <r>    -7.9901     1.2285     2.8354 </r>
       <r>    -7.8805     1.1957     2.9684 </r>
       <r>    -7.7709     1.1872     3.0979 </r>
       <r>    -7.6613     1.2231     3.2306 </r>
       <r>    -7.5517     1.2432     3.3659 </r>
       <r>    -7.4421     1.2604     3.5030 </r>
       <r>    -7.3325     1.3187     3.6438 </r>
       <r>    -7.2229     1.4113     3.7932 </r>
       <r>    -7.1133     1.4857     3.9493 </r>
       <r>    -7.0037     1.6792     4.1233 </r>
       <r>    -6.8941     1.8564     4.3171 </r>
       <r>    -6.7845     1.7250     4.5209 </r>
       <r>    -6.6749     1.7634     4.7115 </r>
       <r>    -6.5653     1.7314     4.9078 </r>
       <r>    -6.4557     1.6152     5.0904 </r>
       <r>    -6.3462     1.5802     5.2658 </r>
       <r>    -6.2366     1.6516     5.4383 </r>
       <r>    -6.1270     1.5553     5.6199 </r>
       <r>    -6.0174     1.4823     5.7839 </r>
       <r>    -5.9078     1.4970     5.9471 </r>
       <r>    -5.7982     1.3763     6.1037 </r>
       <r>    -5.6886     1.3642     6.2537 </r>
       <r>    -5.5790     1.3564     6.4021 </r>
       <r>    -5.4694     1.2738     6.5504 </r>
       <r>    -5.3598     1.1944     6.6853 </r>
       <r>    -5.2502     1.1351     6.8128 </r>
       <r>    -5.1406     1.1714     6.9414 </r>
       <r>    -5.0310     1.1124     7.0717 </r>
       <r>    -4.9214     1.1026     7.1937 </r>
       <r>    -4.8118     1.1177     7.3162 </r>
       <r>    -4.7022     1.0498     7.4373 </r>
       <r>    -4.5926     0.9382     7.5458 </r>
       <r>    -4.4831     0.8256     7.6425 </r>
       <r>    -4.3735     0.7336     7.7279 </r>
       <r>    -4.2639     0.6315     7.8027 </r>
       <r>    -4.1543     0.5296     7.8664 </r>
       <r>    -4.0447     0.9645     7.9226 </r>
       <r>    -3.9351     0.6661     7.9959 </r>
       <r>    -3.8255     0.6530     8.0615 </r>
       <r>    -3.7159     0.7092     8.1407 </r>
       <r>    -3.6063     0.8138     8.2238 </r>
       <r>    -3.4967     1.0450     8.3224 </r>
       <r>    -3.3871     1.2629     8.4516 </r>
       <r>    -3.2775     1.4062     8.5977 </r>
       <r>    -3.1679     1.6327     8.7640 </r>
       <r>    -3.0583     1.9981     8.9605 </r>
       <r>    -2.9487     2.4486     9.2014 </r>
       <r>    -2.8391     3.7657     9.5172 </r>
       <r>    -2.7295     3.4756     9.9751 </r>
       <r>    -2.6200     2.6024    10.2911 </r>
       <r>    -2.5104     2.2442    10.5551 </r>
       <r>    -2.4008     2.0142    10.7877 </r>
       <r>    -2.2912     1.8558    10.9990 </r>
       <r>    -2.1816     1.7345    11.1955 </r>
       <r>    -2.0720     1.6374    11.3800 </r>
       <r>    -1.9624     1.5975    11.5573 </r>
       <r>    -1.8528     1.5510    11.7299 </r>
       <r>    -1.7432     1.5392    11.8984 </r>
       <r>    -1.6336     1.5732    12.0643 </r>
       <r>    -1.5240     1.2869    12.2140 </r>
       <r>    -1.4144     1.2310    12.3516 </r>
       <r>    -1.3048     1.2018    12.4848 </r>
       <r>    -1.1952     1.1740    12.6150 </r>
       <r>    -1.0856     1.1423    12.7420 </r>
       <r>    -0.9760     1.0893    12.8643 </r>
       <r>    -0.8664     1.0387    12.9809 </r>
       <r>    -0.7569     1.0122    13.0928 </r>
       <r>    -0.6473     1.0395    13.2050 </r>
       <r>    -0.5377     1.0511    13.3200 </r>
       <r>    -0.4281     1.0963    13.4368 </r>
       <r>    -0.3185     1.2032    13.5629 </r>
       <r>    -0.2089     1.3644    13.7033 </r>
       <r>    -0.0993     1.5029    13.8595 </r>
       <r>     0.0103     1.9042    14.0425 </r>
       <r>     0.1199     2.3129    14.2726 </r>
       <r>     0.2295     2.7791    14.5661 </r>
       <r>     0.3391     3.1047    14.8848 </r>
       <r>     0.4487     2.6788    15.2154 </r>
       <r>     0.5583     1.5337    15.4373 </r>
       <r>     0.6679     1.2488    15.5886 </r>
       <r>     0.7775     1.7397    15.7361 </r>
       <r>     0.8871     2.4325    15.9697 </r>
       <r>     0.9966     2.4064    16.2396 </r>
       <r>     1.1062     2.4761    16.5046 </r>
       <r>     1.2158     2.5323    16.7811 </r>
       <r>     1.3254     2.5438    17.0585 </r>
       <r>     1.4350     2.5966    17.3402 </r>
       <r>     1.5446     2.5414    17.6236 </r>
       <r>     1.6542     2.5815    17.8996 </r>
       <r>     1.7638     2.9311    18.2025 </r>
       <r>     1.8734     3.2711    18.5464 </r>
       <r>     1.9830     3.8749    18.9331 </r>
       <r>     2.0926     2.8167    19.2930 </r>
       <r>     2.2022     2.3491    19.5777 </r>
       <r>     2.3118     2.8902    19.8511 </r>
       <r>     2.4214     3.2926    20.2023 </r>
       <r>     2.5310     3.4263    20.5614 </r>
       <r>     2.6406     4.4861    20.9888 </r>
       <r>     2.7502     4.2083    21.4893 </r>
       <r>     2.8597     3.6206    21.9146 </r>
       <r>     2.9693     3.0332    22.2747 </r>
       <r>     3.0789     2.7803    22.5888 </r>
       <r>     3.1885     2.9960    22.9001 </r>
       <r>     3.2981     3.2592    23.3050 </r>
       <r>     3.4077     3.0759    23.6401 </r>
       <r>     3.5173     3.4092    24.0120 </r>
       <r>     3.6269     3.2573    24.3743 </r>
       <r>     3.7365     3.3535    24.7349 </r>
       <r>     3.8461     3.4354    25.1056 </r>
       <r>     3.9557     3.6588    25.4953 </r>
       <r>     4.0653     3.0792    25.8663 </r>
       <r>     4.1749     2.7777    26.1860 </r>
       <r>     4.2845     2.6864    26.4852 </r>
       <r>     4.3941     2.6969    26.7787 </r>
       <r>     4.5037     2.9680    27.0851 </r>
       <r>     4.6133     3.2503    27.4226 </r>
       <r>     4.7228     3.2126    27.7803 </r>
       <r>     4.8324     3.0840    28.1253 </r>
       <r>     4.9420     3.0580    28.4628 </r>
       <r>     5.0516     2.7620    28.7749 </r>
       <r>     5.1612     2.6707    29.0754 </r>
       <r>     5.2708     4.0162    29.4235 </r>
       <r>     5.3804     2.1942    29.7388 </r>
       <r>     5.4900     1.9701    29.9659 </r>
       <r>     5.5996     1.8284    30.1750 </r>
       <r>     5.7092     1.6555    30.3671 </r>
       <r>     5.8188     1.5326    30.5412 </r>
       <r>     5.9284     1.4422    30.7042 </r>
       <r>     6.0380     1.3492    30.8570 </r>
       <r>     6.1476     1.2281    30.9991 </r>
       <r>     6.2572     1.1094    31.1272 </r>
       <r>     6.3668     1.0263    31.2430 </r>
       <r>     6.4764     0.9550    31.3517 </r>
       <r>     6.5859     0.9105    31.4540 </r>
       <r>     6.6955     0.8124    31.5473 </r>
       <r>     6.8051     0.7274    31.6316 </r>
       <r>     6.9147     0.6494    31.7074 </r>
       <r>     7.0243     0.6125    31.7762 </r>
       <r>     7.1339     0.4751    31.8366 </r>
       <r>     7.2435     0.3944    31.8840 </r>
       <r>     7.3531     0.4397    31.9307 </r>
       <r>     7.4627     0.2345    31.9701 </r>
       <r>     7.5723     0.1697    31.9900 </r>
       <r>     7.6819     0.0071    31.9999 </r>
       <r>     7.7915     0.0000    32.0000 </r>
       <r>     7.9011     0.0000    32.0000 </r>
       <r>     8.0107     0.0000    32.0000 </r>
       <r>     8.1203     0.0000    32.0000 </r>
       <r>     8.2299     0.0000    32.0000 </r>
       <r>     8.3395     0.0000    32.0000 </r>
       <r>     8.4490     0.0000    32.0000 </r>
       <r>     8.5586     0.0000    32.0000 </r>
       <r>     8.6682     0.0000    32.0000 </r>
       <r>     8.7778     0.0000    32.0000 </r>
       <r>     8.8874     0.0000    32.0000 </r>
       <r>     8.9970     0.0000    32.0000 </r>
       <r>     9.1066     0.0000    32.0000 </r>
       <r>     9.2162     0.0000    32.0000 </r>
       <r>     9.3258     0.0000    32.0000 </r>
       <r>     9.4354     0.0000    32.0000 </r>
       <r>     9.5450     0.0000    32.0000 </r>
       <r>     9.6546     0.0000    32.0000 </r>
       <r>     9.7642     0.0000    32.0000 </r>
       <r>     9.8738     0.0000    32.0000 </r>
       <r>     9.9834     0.0000    32.0000 </r>
       <r>    10.0930     0.0000    32.0000 </r>
       <r>    10.2025     0.0000    32.0000 </r>
       <r>    10.3121     0.0000    32.0000 </r>
       <r>    10.4217     0.0000    32.0000 </r>
       <r>    10.5313     0.0000    32.0000 </r>
       <r>    10.6409     0.0000    32.0000 </r>
       <r>    10.7505     0.0000    32.0000 </r>
       <r>    10.8601     0.0000    32.0000 </r>
       <r>    10.9697     0.0000    32.0000 </r>
       <r>    11.0793     0.0000    32.0000 </r>
       <r>    11.1889     0.0000    32.0000 </r>
       <r>    11.2985     0.0000    32.0000 </r>
       <r>    11.4081     0.0000    32.0000 </r>
       <r>    11.5177     0.0000    32.0000 </r>
       <r>    11.6273     0.0797    32.0028 </r>
       <r>    11.7369     0.2682    32.0213 </r>
       <r>    11.8465     0.5041    32.0642 </r>
       <r>    11.9561     0.6363    32.1278 </r>
       <r>    12.0656     0.6758    32.2010 </r>
       <r>    12.1752     0.7452    32.2764 </r>
       <r>    12.2848     0.9668    32.3703 </r>
       <r>    12.3944     1.0631    32.4828 </r>
       <r>    12.5040     1.5148    32.6160 </r>
       <r>    12.6136     1.6317    32.8019 </r>
       <r>    12.7232     1.5774    32.9777 </r>
       <r>    12.8328     1.5851    33.1505 </r>
       <r>    12.9424     1.7467    33.3320 </r>
       <r>    13.0520     1.7938    33.5227 </r>
       <r>    13.1616     1.9789    33.7312 </r>
       <r>    13.2712     2.0950    33.9571 </r>
       <r>    13.3808     2.3489    34.2029 </r>
       <r>    13.4904     3.1276    34.4755 </r>
       <r>    13.6000     2.3947    34.7568 </r>
       <r>    13.7096     2.3317    35.0145 </r>
       <r>    13.8192     2.3539    35.2708 </r>
       <r>    13.9287     2.4663    35.5341 </r>
       <r>    14.0383     2.6373    35.8128 </r>
       <r>    14.1479     2.8862    36.1152 </r>
       <r>    14.2575     3.0849    36.4418 </r>
       <r>    14.3671     3.3936    36.7997 </r>
       <r>    14.4767     3.4075    37.1703 </r>
       <r>    14.5863     3.7458    37.5625 </r>
       <r>    14.6959     4.4438    38.0022 </r>
       <r>    14.8055     5.0653    38.5470 </r>
       <r>    14.9151     5.1872    39.1040 </r>
       <r>    15.0247     4.8219    39.6730 </r>
       <r>    15.1343     4.9389    40.2108 </r>
       <r>    15.2439     4.7418    40.7376 </r>
       <r>    15.3535     4.0817    41.2189 </r>
       <r>    15.4631     4.3317    41.6996 </r>
       <r>    15.5727     4.5337    42.1698 </r>
       <r>    15.6823     4.4389    42.6686 </r>
       <r>    15.7918     4.2451    43.1376 </r>
       <r>    15.9014     4.2978    43.6160 </r>
       <r>    16.0110     3.6331    44.0532 </r>
       <r>    16.1206     2.9628    44.4042 </r>
       <r>    16.2302     2.8179    44.7218 </r>
       <r>    16.3398     2.7921    45.0287 </r>
       <r>    16.4494     3.0008    45.3463 </r>
       <r>    16.5590     3.0875    45.6765 </r>
       <r>    16.6686     2.9835    46.0117 </r>
       <r>    16.7782     3.1709    46.3502 </r>
       <r>    16.8878     3.1735    46.7006 </r>
       <r>    16.9974     2.7995    47.0327 </r>
       <r>    17.1070     2.5669    47.3175 </r>
       <r>    17.2166     1.6277    47.5481 </r>
       <r>    17.3262     1.1765    47.6995 </r>
       <r>    17.4358     0.8668    47.8110 </r>
       <r>    17.5454     0.5771    47.8890 </r>
       <r>    17.6549     0.3576    47.9402 </r>
       <r>    17.7645     0.2147    47.9689 </r>
       <r>    17.8741     0.1307    47.9878 </r>
       <r>    17.9837     0.0524    47.9989 </r>
       <r>    18.0933     0.0000    48.0000 </r>
       <r>    18.2029     0.0000    48.0000 </r>
       <r>    18.3125     0.0000    48.0000 </r>
       <r>    18.4221     0.0000    48.0000 </r>
       <r>    18.5317     0.0000    48.0000 </r>
       <r>    18.6413     0.0000    48.0000 </r>
       <r>    18.7509     0.0000    48.0000 </r>
       <r>    18.8605     0.0000    48.0000 </r>
       <r>    18.9701     0.0000    48.0000 </r>
       <r>    19.0797     0.0000    48.0000 </r>
       <r>    19.1893     0.0000    48.0000 </r>
       <r>    19.2989     0.0000    48.0000 </r>
       <r>    19.4084     0.0000    48.0000 </r>
       <r>    19.5180     0.0000    48.0000 </r>
      </set>
     </set>
    </array>
   </total>
  </dos>
 </calculation>
 <structure name="finalpos" >
  <crystal>
   <varray name="basis" >
    <v>       3.74813900       0.00000000       0.00000000 </v>
    <v>       0.00000000       3.74813900       0.00000000 </v>
    <v>       0.00000000       0.00000000       3.74813900 </v>
   </varray>
   <i name="volume">     52.65590302 </i>
   <varray name="rec_basis" >
    <v>       0.26679907       0.00000000       0.00000000 </v>
    <v>       0.00000000       0.26679907       0.00000000 </v>
    <v>       0.00000000       0.00000000       0.26679907 </v>
   </varray>
  </crystal>
  <varray name="positions" >
   <v>       0.25000000       0.75000000       0.25000000 </v>
   <v>       0.00000000       0.00000000       0.50000000 </v>
   <v>       0.25000000       0.25000000       0.75000000 </v>
   <v>       0.00000000       0.50000000       0.00000000 </v>
   <v>       0.75000000       0.75000000       0.75000000 </v>
   <v>       0.50000000       0.00000000       0.00000000 </v>
   <v>       0.75000000       0.25000000       0.25000000 </v>
   <v>       0.50000000       0.50000000       0.50000000 </v>
  </varray>
 </structure>
</modeling>
