       N       E                     dE             d eps       ncg     rms          rms(c)
DAV:   1     0.507669417088E+03    0.50767E+03   -0.11338E+05  7680   0.106E+03
DAV:   2    -0.559157588886E+03   -0.10668E+04   -0.10166E+04 10144   0.231E+02
DAV:   3    -0.600506492134E+03   -0.41349E+02   -0.41107E+02 10208   0.425E+01
DAV:   4    -0.600961889265E+03   -0.45540E+00   -0.45446E+00 10208   0.491E+00
DAV:   5    -0.600971761831E+03   -0.98726E-02   -0.98684E-02  9632   0.669E-01    0.263E+01
DAV:   6    -0.586666347897E+03    0.14305E+02   -0.94881E+00  9056   0.616E+00    0.144E+01
DAV:   7    -0.581832502828E+03    0.48338E+01   -0.10886E+01  9344   0.680E+00    0.194E+00
DAV:   8    -0.581891144953E+03   -0.58642E-01   -0.24514E-01  9568   0.989E-01    0.213E-01
DAV:   9    -0.581893281022E+03   -0.21361E-02   -0.36212E-03 10080   0.144E-01    0.793E-02
DAV:  10    -0.581893740229E+03   -0.45921E-03   -0.41345E-04  9248   0.537E-02    0.792E-03
DAV:  11    -0.581893744932E+03   -0.47034E-05   -0.11242E-05 10080   0.777E-03    0.203E-03
DAV:  12    -0.581893745028E+03   -0.95371E-07   -0.43079E-07  9920   0.161E-03    0.191E-04
DAV:  13    -0.581893745119E+03   -0.91128E-07   -0.60050E-09  7328   0.200E-04    0.422E-05
DAV:  14    -0.581893745136E+03   -0.17159E-07   -0.89577E-10  6656   0.710E-05    0.184E-05
DAV:  15    -0.581893745136E+03    0.52023E-09   -0.21355E-10  6144   0.335E-05
   1 F= -.58189375E+03 E0= -.58189375E+03  d E =-.129269E-15
 Linear response reoptimize wavefunctions
DAV:   1    -0.581893745136E+03   -0.54570E-10   -0.47921E-11  5696   0.157E-05
 Linear response DOF=           1
 Linear response progress:
  Degree of freedom:   1/  1
       N       E                     dE             d eps       ncg     rms          rms(c)
RMM:   1    -0.144746127907E+00   -0.14475E+00    0.58812E-03 56005   0.727E-01
RMM:   2    -0.123429651571E+00    0.21316E-01   -0.71245E-03 33848   0.185E-01    0.176E-01
RMM:   3    -0.123289751004E+00    0.13990E-03   -0.87316E-04 35546   0.492E-02    0.899E-02
RMM:   4    -0.123546844290E+00   -0.25709E-03   -0.24147E-04 35672   0.269E-02    0.272E-02
RMM:   5    -0.123627187255E+00   -0.80343E-04   -0.16116E-05 36163   0.755E-03    0.656E-03
RMM:   6    -0.123610693764E+00    0.16493E-04   -0.94084E-07 36611   0.193E-03    0.138E-03
RMM:   7    -0.123601927799E+00    0.87660E-05   -0.13994E-07 36940   0.612E-04    0.382E-04
RMM:   8    -0.123601468257E+00    0.45954E-06   -0.12897E-07 37652   0.246E-04    0.867E-05
RMM:   9    -0.123601216144E+00    0.25211E-06   -0.71099E-08 38632   0.139E-04    0.377E-05
RMM:  10    -0.123601285694E+00   -0.69550E-07   -0.69916E-08 40024   0.129E-04    0.110E-05
RMM:  11    -0.123601287597E+00   -0.19032E-08   -0.40603E-08 40909   0.125E-04    0.459E-06
 Linear response finished
