 vasp.5.4.4.18Apr17-6-g9f103f2a35 (build Mar 12 2022 03:36:41) complex          
  
 executed on IFC19.0.3.199_CrayMP date 2022.12.02  03:52:38
 running on   32 total cores
 distrk:  each k-point on   32 cores,    1 groups
 distr:  one band on NCORES_PER_BAND=   1 cores,   32 groups


--------------------------------------------------------------------------------------------------------


 INCAR:
 POTCAR:   PAW_PBE C 08Apr2002                    

 ----------------------------------------------------------------------------- 
|                                                                             |
|           W    W    AA    RRRRR   N    N  II  N    N   GGGG   !!!           |
|           W    W   A  A   R    R  NN   N  II  NN   N  G    G  !!!           |
|           W    W  A    A  R    R  N N  N  II  N N  N  G       !!!           |
|           W WW W  AAAAAA  RRRRR   N  N N  II  N  N N  G  GGG   !            |
|           WW  WW  A    A  R   R   N   NN  II  N   NN  G    G                |
|           W    W  A    A  R    R  N    N  II  N    N   GGGG   !!!           |
|                                                                             |
|      For optimal performance we recommend to set                            |
|        NCORE= 4 - approx SQRT( number of cores)                             |
|      NCORE specifies how many cores store one orbital (NPAR=cpu/NCORE).     |
|      This setting can  greatly improve the performance of VASP for DFT.     |
|      The default,   NCORE=1            might be grossly inefficient         |
|      on modern multi-core architectures or massively parallel machines.     |
|      Do your own testing !!!!                                               |
|      Unfortunately you need to use the default for GW and RPA calculations. |
|      (for HF NCORE is supported but not extensively tested yet)             |
|                                                                             |
 ----------------------------------------------------------------------------- 

 POTCAR:   PAW_PBE C 08Apr2002                    
   VRHFIN =C: s2p2                                                              
   LEXCH  = PE                                                                  
   EATOM  =   147.1560 eV,   10.8157 Ry                                         
                                                                                
   TITEL  = PAW_PBE C 08Apr2002                                                 
   LULTRA =        F    use ultrasoft PP ?                                      
   IUNSCR =        0    unscreen: 0-lin 1-nonlin 2-no                           
   RPACOR =     .000    partial core radius                                     
   POMASS =   12.011; ZVAL   =    4.000    mass and valenz                      
   RCORE  =    1.500    outmost cutoff radius                                   
   RWIGS  =    1.630; RWIGS  =     .863    wigner-seitz radius (au A)           
   ENMAX  =  400.000; ENMIN  =  300.000 eV                                      
   ICORE  =        2    local potential                                         
   LCOR   =        T    correct aug charges                                     
   LPAW   =        T    paw PP                                                  
   EAUG   =  644.873                                                            
   DEXC   =     .000                                                            
   RMAX   =    2.266    core radius for proj-oper                               
   RAUG   =    1.300    factor for augmentation sphere                          
   RDEP   =    1.501    radius for radial grids                                 
   RDEPT  =    1.300    core radius for aug-charge                              
   QCUT   =   -5.516; QGAM   =   11.032    optimization parameters              
                                                                                
   Description                                                                  
     l     E      TYP  RCUT    TYP  RCUT                                        
     0   .000     23  1.200                                                     
     0   .000     23  1.200                                                     
     1   .000     23  1.500                                                     
     1  2.500     23  1.500                                                     
     2   .000      7  1.500                                                     
  local pseudopotential read in
  atomic valenz-charges read in
  non local Contribution for L=           0  read in
    real space projection operators read in
  non local Contribution for L=           0  read in
    real space projection operators read in
  non local Contribution for L=           1  read in
    real space projection operators read in
  non local Contribution for L=           1  read in
    real space projection operators read in
    PAW grid and wavefunctions read in
 
   number of l-projection  operators is LMAX  =           4
   number of lm-projection operators is LMMAX =           8
 

 ----------------------------------------------------------------------------- 
|                                                                             |
|  ADVICE TO THIS USER RUNNING 'VASP/VAMP'   (HEAR YOUR MASTER'S VOICE ...):  |
|                                                                             |
|      You have a (more or less) 'large supercell' and for larger cells       |
|      it might be more efficient to use real space projection operators      |
|      So try LREAL= Auto  in the INCAR   file.                               |
|      Mind: If you want to do a very accurate calculations keep the          |
|      reciprocal projection scheme          (i.e. LREAL=.FALSE.)             |
|                                                                             |
 ----------------------------------------------------------------------------- 

 PAW_PBE C 08Apr2002                    :
 energy of atom  1       EATOM= -147.1560
 kinetic energy error for atom=    0.0288 (will be added to EATOM!!)
 
 
 POSCAR: generated by phonopy                    
  positions in direct lattice
  No initial velocities read in
 exchange correlation table for  LEXCH =        8
   RHO(1)=    0.500       N(1)  =     2000
   RHO(2)=  100.500       N(2)  =     4000
 


--------------------------------------------------------------------------------------------------------


 ion  position               nearest neighbor table
   1  0.125  0.375  0.125-  11 1.55  25 1.55  43 1.55  57 1.55
   2  0.625  0.375  0.125-  12 1.55  26 1.55  44 1.55  58 1.55
   3  0.125  0.875  0.125-   9 1.55  27 1.55  41 1.55  59 1.55
   4  0.625  0.875  0.125-  10 1.55  28 1.55  42 1.55  60 1.55
   5  0.125  0.375  0.625-  15 1.55  29 1.55  47 1.55  61 1.55
   6  0.625  0.375  0.625-  16 1.55  30 1.55  48 1.55  62 1.55
   7  0.125  0.875  0.625-  13 1.55  31 1.55  45 1.55  63 1.55
   8  0.625  0.875  0.625-  14 1.55  32 1.55  46 1.55  64 1.55
   9  0.000  0.000  0.250-   3 1.55  17 1.55  36 1.55  50 1.55
  10  0.500  0.000  0.250-   4 1.55  18 1.55  35 1.55  49 1.55
  11  0.000  0.500  0.250-   1 1.55  19 1.55  34 1.55  52 1.55
  12  0.500  0.500  0.250-   2 1.55  20 1.55  33 1.55  51 1.55
  13  0.000  0.000  0.750-   7 1.55  21 1.55  40 1.55  54 1.55
  14  0.500  0.000  0.750-   8 1.55  22 1.55  39 1.55  53 1.55
  15  0.000  0.500  0.750-   5 1.55  23 1.55  38 1.55  56 1.55
  16  0.500  0.500  0.750-   6 1.55  24 1.55  37 1.55  55 1.55
  17  0.125  0.125  0.375-   9 1.55  29 1.55  45 1.55  57 1.55
  18  0.625  0.125  0.375-  10 1.55  30 1.55  46 1.55  58 1.55
  19  0.125  0.625  0.375-  11 1.55  31 1.55  47 1.55  59 1.55
  20  0.625  0.625  0.375-  12 1.55  32 1.55  48 1.55  60 1.55
  21  0.125  0.125  0.875-  13 1.55  25 1.55  41 1.55  61 1.55
  22  0.625  0.125  0.875-  14 1.55  26 1.55  42 1.55  62 1.55
  23  0.125  0.625  0.875-  15 1.55  27 1.55  43 1.55  63 1.55
  24  0.625  0.625  0.875-  16 1.55  28 1.55  44 1.55  64 1.55
  25  0.000  0.250  0.000-   1 1.55  21 1.55  38 1.55  50 1.55
  26  0.500  0.250  0.000-   2 1.55  22 1.55  37 1.55  49 1.55
  27  0.000  0.750  0.000-   3 1.55  23 1.55  40 1.55  52 1.55
  28  0.500  0.750  0.000-   4 1.55  24 1.55  39 1.55  51 1.55
  29  0.000  0.250  0.500-   5 1.55  17 1.55  34 1.55  54 1.55
  30  0.500  0.250  0.500-   6 1.55  18 1.55  33 1.55  53 1.55
  31  0.000  0.750  0.500-   7 1.55  19 1.55  36 1.55  56 1.55
  32  0.500  0.750  0.500-   8 1.55  20 1.55  35 1.55  55 1.55
  33  0.375  0.375  0.375-  12 1.55  30 1.55  47 1.55  57 1.55
  34  0.875  0.375  0.375-  11 1.55  29 1.55  48 1.55  58 1.55
  35  0.375  0.875  0.375-  10 1.55  32 1.55  45 1.55  59 1.55
  36  0.875  0.875  0.375-   9 1.55  31 1.55  46 1.55  60 1.55
  37  0.375  0.375  0.875-  16 1.55  26 1.55  43 1.55  61 1.55
  38  0.875  0.375  0.875-  15 1.55  25 1.55  44 1.55  62 1.55
  39  0.375  0.875  0.875-  14 1.55  28 1.55  41 1.55  63 1.55
  40  0.875  0.875  0.875-  13 1.55  27 1.55  42 1.55  64 1.55
  41  0.250  0.000  0.000-   3 1.55  21 1.55  39 1.55  49 1.55
  42  0.750  0.000  0.000-   4 1.55  22 1.55  40 1.55  50 1.55
  43  0.250  0.500  0.000-   1 1.55  23 1.55  37 1.55  51 1.55
  44  0.750  0.500  0.000-   2 1.55  24 1.55  38 1.55  52 1.55
  45  0.250  0.000  0.500-   7 1.55  17 1.55  35 1.55  53 1.55
  46  0.750  0.000  0.500-   8 1.55  18 1.55  36 1.55  54 1.55
  47  0.250  0.500  0.500-   5 1.55  19 1.55  33 1.55  55 1.55
  48  0.750  0.500  0.500-   6 1.55  20 1.55  34 1.55  56 1.55
  49  0.375  0.125  0.125-  10 1.55  26 1.55  41 1.55  57 1.55
  50  0.875  0.125  0.125-   9 1.55  25 1.55  42 1.55  58 1.55
  51  0.375  0.625  0.125-  12 1.55  28 1.55  43 1.55  59 1.55
  52  0.875  0.625  0.125-  11 1.55  27 1.55  44 1.55  60 1.55
  53  0.375  0.125  0.625-  14 1.55  30 1.55  45 1.55  61 1.55
  54  0.875  0.125  0.625-  13 1.55  29 1.55  46 1.55  62 1.55
  55  0.375  0.625  0.625-  16 1.55  32 1.55  47 1.55  63 1.55
  56  0.875  0.625  0.625-  15 1.55  31 1.55  48 1.55  64 1.55
  57  0.250  0.250  0.250-   1 1.55  17 1.55  33 1.55  49 1.55
  58  0.750  0.250  0.250-   2 1.55  18 1.55  34 1.55  50 1.55
  59  0.250  0.750  0.250-   3 1.55  19 1.55  35 1.55  51 1.55
  60  0.750  0.750  0.250-   4 1.55  20 1.55  36 1.55  52 1.55
  61  0.250  0.250  0.750-   5 1.55  21 1.55  37 1.55  53 1.55
  62  0.750  0.250  0.750-   6 1.55  22 1.55  38 1.55  54 1.55
  63  0.250  0.750  0.750-   7 1.55  23 1.55  39 1.55  55 1.55
  64  0.750  0.750  0.750-   8 1.55  24 1.55  40 1.55  56 1.55
 
  LATTYP: Found a simple cubic cell.
 ALAT       =     7.1799987179
  
  Lattice vectors:
  
 A1 = (   7.1799987179,   0.0000000000,   0.0000000000)
 A2 = (   0.0000000000,   7.1799987179,   0.0000000000)
 A3 = (   0.0000000000,   0.0000000000,   7.1799987179)


Analysis of symmetry for initial positions (statically):
=====================================================================
 Subroutine PRICEL returns following result:
 
  LATTYP: Found a face centered cubic cell.
 ALAT       =     3.5899993590
  
  Lattice vectors:
  
 A1 = (   1.7949996795,   1.7949996795,   0.0000000000)
 A2 = (   1.7949996795,   0.0000000000,  -1.7949996795)
 A3 = (   0.0000000000,   1.7949996795,  -1.7949996795)
 
  32 primitive cells build up your supercell.
 

 Routine SETGRP: Setting up the symmetry group for a 
 simple cubic supercell.


 Subroutine GETGRP returns: Found 48 space group operations
 (whereof 24 operations were pure point group operations)
 out of a pool of 48 trial point group operations.


The static configuration has the point symmetry T_d .
 The point group associated with its full space group is O_h .


Analysis of symmetry for dynamics (positions and initial velocities):
=====================================================================
 Subroutine PRICEL returns following result:
 
  LATTYP: Found a face centered cubic cell.
 ALAT       =     3.5899993590
  
  Lattice vectors:
  
 A1 = (   1.7949996795,   1.7949996795,   0.0000000000)
 A2 = (   1.7949996795,   0.0000000000,  -1.7949996795)
 A3 = (   0.0000000000,   1.7949996795,  -1.7949996795)
 
  32 primitive cells build up your supercell.
 

 Routine SETGRP: Setting up the symmetry group for a 
 simple cubic supercell.


 Subroutine GETGRP returns: Found 48 space group operations
 (whereof 24 operations were pure point group operations)
 out of a pool of 48 trial point group operations.


The dynamic configuration has the point symmetry T_d .
 The point group associated with its full space group is O_h .


 Subroutine INISYM returns: Found 48 space group operations
 (whereof 24 operations are pure point group operations),
 and found    32 'primitive' translations

 
 
 KPOINTS: kpt_density=3000                        

Automatic generation of k-mesh.
Space group operators:
 irot       det(A)        alpha          n_x          n_y          n_z        tau_x        tau_y        tau_z
    1     1.000000     0.000000     1.000000     0.000000     0.000000     0.000000     0.000000     0.000000
    2     1.000000   120.000000    -0.577350    -0.577350    -0.577350     0.000000     0.000000     0.000000
    3     1.000000   120.000000     0.577350     0.577350     0.577350     0.000000     0.000000     0.000000
    4    -1.000000    90.000000     0.000000     0.000000    -1.000000     0.000000     0.000000     0.000000
    5    -1.000000   180.000000     0.000000     0.707107     0.707107     0.000000     0.000000     0.000000
    6    -1.000000    90.000000     0.000000     1.000000     0.000000     0.000000     0.000000     0.000000
    7     1.000000   180.000000     0.000000     0.000000     1.000000     0.000000     0.000000     0.000000
    8     1.000000   120.000000    -0.577350     0.577350     0.577350     0.000000     0.000000     0.000000
    9     1.000000   120.000000    -0.577350     0.577350    -0.577350     0.000000     0.000000     0.000000
   10    -1.000000    90.000000     0.000000     0.000000     1.000000     0.000000     0.000000     0.000000
   11    -1.000000    90.000000    -1.000000     0.000000     0.000000     0.000000     0.000000     0.000000
   12    -1.000000   180.000000     0.707107     0.000000     0.707107     0.000000     0.000000     0.000000
   13     1.000000   120.000000     0.577350    -0.577350     0.577350     0.000000     0.000000     0.000000
   14     1.000000   120.000000    -0.577350    -0.577350     0.577350     0.000000     0.000000     0.000000
   15     1.000000   180.000000     1.000000     0.000000     0.000000     0.000000     0.000000     0.000000
   16    -1.000000    90.000000     0.000000    -1.000000     0.000000     0.000000     0.000000     0.000000
   17    -1.000000   180.000000     0.707107     0.707107     0.000000     0.000000     0.000000     0.000000
   18    -1.000000    90.000000     1.000000     0.000000     0.000000     0.000000     0.000000     0.000000
   19     1.000000   120.000000     0.577350    -0.577350    -0.577350     0.000000     0.000000     0.000000
   20     1.000000   180.000000     0.000000     1.000000     0.000000     0.000000     0.000000     0.000000
   21     1.000000   120.000000     0.577350     0.577350    -0.577350     0.000000     0.000000     0.000000
   22    -1.000000   180.000000     0.000000    -0.707107     0.707107     0.000000     0.000000     0.000000
   23    -1.000000   180.000000     0.707107    -0.707107     0.000000     0.000000     0.000000     0.000000
   24    -1.000000   180.000000     0.707107     0.000000    -0.707107     0.000000     0.000000     0.000000
   25    -1.000000     0.000000     1.000000     0.000000     0.000000     0.375000     0.375000    -0.375000
   26    -1.000000   120.000000    -0.577350    -0.577350    -0.577350     0.375000     0.375000    -0.375000
   27    -1.000000   120.000000     0.577350     0.577350     0.577350     0.375000     0.375000    -0.375000
   28     1.000000    90.000000     0.000000     0.000000    -1.000000     0.375000     0.375000    -0.375000
   29     1.000000   180.000000     0.000000     0.707107     0.707107     0.375000     0.375000    -0.375000
   30     1.000000    90.000000     0.000000     1.000000     0.000000     0.375000     0.375000    -0.375000
   31    -1.000000   180.000000     0.000000     0.000000     1.000000     0.375000     0.375000    -0.375000
   32    -1.000000   120.000000    -0.577350     0.577350     0.577350     0.375000     0.375000    -0.375000
   33    -1.000000   120.000000    -0.577350     0.577350    -0.577350     0.375000     0.375000    -0.375000
   34     1.000000    90.000000     0.000000     0.000000     1.000000     0.375000     0.375000    -0.375000
   35     1.000000    90.000000    -1.000000     0.000000     0.000000     0.375000     0.375000    -0.375000
   36     1.000000   180.000000     0.707107     0.000000     0.707107     0.375000     0.375000    -0.375000
   37    -1.000000   120.000000     0.577350    -0.577350     0.577350     0.375000     0.375000    -0.375000
   38    -1.000000   120.000000    -0.577350    -0.577350     0.577350     0.375000     0.375000    -0.375000
   39    -1.000000   180.000000     1.000000     0.000000     0.000000     0.375000     0.375000    -0.375000
   40     1.000000    90.000000     0.000000    -1.000000     0.000000     0.375000     0.375000    -0.375000
   41     1.000000   180.000000     0.707107     0.707107     0.000000     0.375000     0.375000    -0.375000
   42     1.000000    90.000000     1.000000     0.000000     0.000000     0.375000     0.375000    -0.375000
   43    -1.000000   120.000000     0.577350    -0.577350    -0.577350     0.375000     0.375000    -0.375000
   44    -1.000000   180.000000     0.000000     1.000000     0.000000     0.375000     0.375000    -0.375000
   45    -1.000000   120.000000     0.577350     0.577350    -0.577350     0.375000     0.375000    -0.375000
   46     1.000000   180.000000     0.000000    -0.707107     0.707107     0.375000     0.375000    -0.375000
   47     1.000000   180.000000     0.707107    -0.707107     0.000000     0.375000     0.375000    -0.375000
   48     1.000000   180.000000     0.707107     0.000000    -0.707107     0.375000     0.375000    -0.375000
 
 Subroutine IBZKPT returns following result:
 ===========================================
 
 Found     20 irreducible k-points:
 
 Following reciprocal coordinates:
            Coordinates               Weight
  0.000000  0.000000  0.000000      1.000000
  0.166667  0.000000  0.000000      6.000000
  0.333333  0.000000  0.000000      6.000000
  0.500000  0.000000  0.000000      3.000000
  0.166667  0.166667  0.000000     12.000000
  0.333333  0.166667  0.000000     24.000000
  0.500000  0.166667  0.000000     12.000000
  0.333333  0.333333  0.000000     12.000000
  0.500000  0.333333  0.000000     12.000000
  0.500000  0.500000  0.000000      3.000000
  0.166667  0.166667  0.166667      8.000000
  0.333333  0.166667  0.166667     24.000000
  0.500000  0.166667  0.166667     12.000000
  0.333333  0.333333  0.166667     24.000000
  0.500000  0.333333  0.166667     24.000000
  0.500000  0.500000  0.166667      6.000000
  0.333333  0.333333  0.333333      8.000000
  0.500000  0.333333  0.333333     12.000000
  0.500000  0.500000  0.333333      6.000000
  0.500000  0.500000  0.500000      1.000000
 
 Following cartesian coordinates:
            Coordinates               Weight
  0.000000  0.000000  0.000000      1.000000
  0.023213  0.000000  0.000000      6.000000
  0.046425  0.000000  0.000000      6.000000
  0.069638  0.000000  0.000000      3.000000
  0.023213  0.023213  0.000000     12.000000
  0.046425  0.023213  0.000000     24.000000
  0.069638  0.023213  0.000000     12.000000
  0.046425  0.046425  0.000000     12.000000
  0.069638  0.046425  0.000000     12.000000
  0.069638  0.069638  0.000000      3.000000
  0.023213  0.023213  0.023213      8.000000
  0.046425  0.023213  0.023213     24.000000
  0.069638  0.023213  0.023213     12.000000
  0.046425  0.046425  0.023213     24.000000
  0.069638  0.046425  0.023213     24.000000
  0.069638  0.069638  0.023213      6.000000
  0.046425  0.046425  0.046425      8.000000
  0.069638  0.046425  0.046425     12.000000
  0.069638  0.069638  0.046425      6.000000
  0.069638  0.069638  0.069638      1.000000
 
 
 Subroutine IBZKPT_HF returns following result:
 ==============================================
 
 Found    216 k-points in 1st BZ
 the following    216 k-points will be used (e.g. in the exchange kernel)
 Following reciprocal coordinates:   # in IRBZ
  0.000000  0.000000  0.000000    0.00462963   1 t-inv F
  0.166667  0.000000  0.000000    0.00462963   2 t-inv F
  0.333333  0.000000  0.000000    0.00462963   3 t-inv F
  0.500000  0.000000  0.000000    0.00462963   4 t-inv F
  0.166667  0.166667  0.000000    0.00462963   5 t-inv F
  0.333333  0.166667  0.000000    0.00462963   6 t-inv F
  0.500000  0.166667  0.000000    0.00462963   7 t-inv F
  0.333333  0.333333  0.000000    0.00462963   8 t-inv F
  0.500000  0.333333  0.000000    0.00462963   9 t-inv F
  0.500000  0.500000  0.000000    0.00462963  10 t-inv F
  0.166667  0.166667  0.166667    0.00462963  11 t-inv F
  0.333333  0.166667  0.166667    0.00462963  12 t-inv F
  0.500000  0.166667  0.166667    0.00462963  13 t-inv F
  0.333333  0.333333  0.166667    0.00462963  14 t-inv F
  0.500000  0.333333  0.166667    0.00462963  15 t-inv F
  0.500000  0.500000  0.166667    0.00462963  16 t-inv F
  0.333333  0.333333  0.333333    0.00462963  17 t-inv F
  0.500000  0.333333  0.333333    0.00462963  18 t-inv F
  0.500000  0.500000  0.333333    0.00462963  19 t-inv F
  0.500000  0.500000  0.500000    0.00462963  20 t-inv F
  0.000000  0.166667  0.000000    0.00462963   2 t-inv F
  0.000000  0.000000  0.166667    0.00462963   2 t-inv F
  0.000000 -0.166667  0.000000    0.00462963   2 t-inv F
  0.000000  0.000000 -0.166667    0.00462963   2 t-inv F
 -0.166667  0.000000  0.000000    0.00462963   2 t-inv F
  0.000000  0.333333  0.000000    0.00462963   3 t-inv F
  0.000000  0.000000  0.333333    0.00462963   3 t-inv F
  0.000000 -0.333333  0.000000    0.00462963   3 t-inv F
  0.000000  0.000000 -0.333333    0.00462963   3 t-inv F
 -0.333333  0.000000  0.000000    0.00462963   3 t-inv F
  0.000000  0.500000  0.000000    0.00462963   4 t-inv F
  0.000000  0.000000  0.500000    0.00462963   4 t-inv F
  0.000000  0.166667  0.166667    0.00462963   5 t-inv F
  0.166667  0.000000  0.166667    0.00462963   5 t-inv F
  0.166667 -0.166667  0.000000    0.00462963   5 t-inv F
  0.166667  0.000000 -0.166667    0.00462963   5 t-inv F
  0.000000 -0.166667 -0.166667    0.00462963   5 t-inv F
 -0.166667 -0.166667  0.000000    0.00462963   5 t-inv F
  0.000000 -0.166667  0.166667    0.00462963   5 t-inv F
 -0.166667  0.000000  0.166667    0.00462963   5 t-inv F
 -0.166667  0.166667  0.000000    0.00462963   5 t-inv F
 -0.166667  0.000000 -0.166667    0.00462963   5 t-inv F
  0.000000  0.166667 -0.166667    0.00462963   5 t-inv F
  0.000000  0.333333  0.166667    0.00462963   6 t-inv F
  0.166667  0.000000  0.333333    0.00462963   6 t-inv F
  0.166667 -0.333333  0.000000    0.00462963   6 t-inv F
  0.333333  0.000000 -0.166667    0.00462963   6 t-inv F
  0.000000 -0.166667 -0.333333    0.00462963   6 t-inv F
 -0.333333 -0.166667  0.000000    0.00462963   6 t-inv F
  0.000000 -0.333333  0.166667    0.00462963   6 t-inv F
 -0.166667  0.000000  0.333333    0.00462963   6 t-inv F
 -0.166667  0.333333  0.000000    0.00462963   6 t-inv F
 -0.333333  0.000000 -0.166667    0.00462963   6 t-inv F
  0.000000  0.166667 -0.333333    0.00462963   6 t-inv F
  0.000000 -0.333333 -0.166667    0.00462963   6 t-inv F
  0.166667  0.000000 -0.333333    0.00462963   6 t-inv F
  0.333333 -0.166667  0.000000    0.00462963   6 t-inv F
  0.000000 -0.166667  0.333333    0.00462963   6 t-inv F
 -0.166667 -0.333333  0.000000    0.00462963   6 t-inv F
 -0.333333  0.000000  0.166667    0.00462963   6 t-inv F
 -0.166667  0.000000 -0.333333    0.00462963   6 t-inv F
 -0.333333  0.166667  0.000000    0.00462963   6 t-inv F
  0.000000  0.333333 -0.166667    0.00462963   6 t-inv F
  0.333333  0.000000  0.166667    0.00462963   6 t-inv F
  0.166667  0.333333  0.000000    0.00462963   6 t-inv F
  0.000000  0.166667  0.333333    0.00462963   6 t-inv F
  0.000000  0.500000  0.166667    0.00462963   7 t-inv F
  0.166667  0.000000  0.500000    0.00462963   7 t-inv F
  0.166667 -0.500000  0.000000    0.00462963   7 t-inv F
  0.500000  0.000000 -0.166667    0.00462963   7 t-inv F
  0.000000 -0.166667 -0.500000    0.00462963   7 t-inv F
 -0.500000 -0.166667  0.000000    0.00462963   7 t-inv F
 -0.166667  0.000000  0.500000    0.00462963   7 t-inv F
 -0.166667  0.500000  0.000000    0.00462963   7 t-inv F
  0.000000  0.166667 -0.500000    0.00462963   7 t-inv F
  0.000000 -0.500000 -0.166667    0.00462963   7 t-inv F
 -0.500000  0.000000  0.166667    0.00462963   7 t-inv F
  0.000000  0.333333  0.333333    0.00462963   8 t-inv F
  0.333333  0.000000  0.333333    0.00462963   8 t-inv F
  0.333333 -0.333333  0.000000    0.00462963   8 t-inv F
  0.333333  0.000000 -0.333333    0.00462963   8 t-inv F
  0.000000 -0.333333 -0.333333    0.00462963   8 t-inv F
 -0.333333 -0.333333  0.000000    0.00462963   8 t-inv F
  0.000000 -0.333333  0.333333    0.00462963   8 t-inv F
 -0.333333  0.000000  0.333333    0.00462963   8 t-inv F
 -0.333333  0.333333  0.000000    0.00462963   8 t-inv F
 -0.333333  0.000000 -0.333333    0.00462963   8 t-inv F
  0.000000  0.333333 -0.333333    0.00462963   8 t-inv F
  0.000000  0.500000  0.333333    0.00462963   9 t-inv F
  0.333333  0.000000  0.500000    0.00462963   9 t-inv F
  0.333333 -0.500000  0.000000    0.00462963   9 t-inv F
  0.500000  0.000000 -0.333333    0.00462963   9 t-inv F
  0.000000 -0.333333 -0.500000    0.00462963   9 t-inv F
 -0.500000 -0.333333  0.000000    0.00462963   9 t-inv F
 -0.333333  0.000000  0.500000    0.00462963   9 t-inv F
 -0.333333  0.500000  0.000000    0.00462963   9 t-inv F
  0.000000  0.333333 -0.500000    0.00462963   9 t-inv F
  0.000000 -0.500000 -0.333333    0.00462963   9 t-inv F
 -0.500000  0.000000  0.333333    0.00462963   9 t-inv F
  0.000000  0.500000  0.500000    0.00462963  10 t-inv F
  0.500000  0.000000  0.500000    0.00462963  10 t-inv F
  0.166667 -0.166667 -0.166667    0.00462963  11 t-inv F
 -0.166667 -0.166667  0.166667    0.00462963  11 t-inv F
 -0.166667  0.166667 -0.166667    0.00462963  11 t-inv F
 -0.166667 -0.166667 -0.166667    0.00462963  11 t-inv F
 -0.166667  0.166667  0.166667    0.00462963  11 t-inv F
  0.166667  0.166667 -0.166667    0.00462963  11 t-inv F
  0.166667 -0.166667  0.166667    0.00462963  11 t-inv F
  0.166667  0.333333  0.166667    0.00462963  12 t-inv F
  0.166667  0.166667  0.333333    0.00462963  12 t-inv F
  0.166667 -0.333333 -0.166667    0.00462963  12 t-inv F
  0.333333 -0.166667 -0.166667    0.00462963  12 t-inv F
  0.166667 -0.166667 -0.333333    0.00462963  12 t-inv F
 -0.333333 -0.166667  0.166667    0.00462963  12 t-inv F
 -0.166667 -0.333333  0.166667    0.00462963  12 t-inv F
 -0.166667 -0.166667  0.333333    0.00462963  12 t-inv F
 -0.166667  0.333333 -0.166667    0.00462963  12 t-inv F
 -0.333333  0.166667 -0.166667    0.00462963  12 t-inv F
 -0.166667  0.166667 -0.333333    0.00462963  12 t-inv F
 -0.333333 -0.166667 -0.166667    0.00462963  12 t-inv F
 -0.166667 -0.333333 -0.166667    0.00462963  12 t-inv F
 -0.166667 -0.166667 -0.333333    0.00462963  12 t-inv F
 -0.166667  0.333333  0.166667    0.00462963  12 t-inv F
 -0.333333  0.166667  0.166667    0.00462963  12 t-inv F
 -0.166667  0.166667  0.333333    0.00462963  12 t-inv F
  0.333333  0.166667 -0.166667    0.00462963  12 t-inv F
  0.166667  0.333333 -0.166667    0.00462963  12 t-inv F
  0.166667  0.166667 -0.333333    0.00462963  12 t-inv F
  0.166667 -0.333333  0.166667    0.00462963  12 t-inv F
  0.333333 -0.166667  0.166667    0.00462963  12 t-inv F
  0.166667 -0.166667  0.333333    0.00462963  12 t-inv F
  0.166667  0.500000  0.166667    0.00462963  13 t-inv F
  0.166667  0.166667  0.500000    0.00462963  13 t-inv F
  0.166667 -0.500000 -0.166667    0.00462963  13 t-inv F
  0.500000 -0.166667 -0.166667    0.00462963  13 t-inv F
  0.166667 -0.166667 -0.500000    0.00462963  13 t-inv F
 -0.500000 -0.166667  0.166667    0.00462963  13 t-inv F
 -0.166667 -0.500000  0.166667    0.00462963  13 t-inv F
 -0.166667 -0.166667  0.500000    0.00462963  13 t-inv F
 -0.166667  0.500000 -0.166667    0.00462963  13 t-inv F
 -0.500000  0.166667 -0.166667    0.00462963  13 t-inv F
 -0.166667  0.166667 -0.500000    0.00462963  13 t-inv F
  0.166667  0.333333  0.333333    0.00462963  14 t-inv F
  0.333333  0.166667  0.333333    0.00462963  14 t-inv F
  0.333333 -0.333333 -0.166667    0.00462963  14 t-inv F
  0.333333 -0.166667 -0.333333    0.00462963  14 t-inv F
  0.166667 -0.333333 -0.333333    0.00462963  14 t-inv F
 -0.333333 -0.333333  0.166667    0.00462963  14 t-inv F
 -0.166667 -0.333333  0.333333    0.00462963  14 t-inv F
 -0.333333 -0.166667  0.333333    0.00462963  14 t-inv F
 -0.333333  0.333333 -0.166667    0.00462963  14 t-inv F
 -0.333333  0.166667 -0.333333    0.00462963  14 t-inv F
 -0.166667  0.333333 -0.333333    0.00462963  14 t-inv F
 -0.333333 -0.333333 -0.166667    0.00462963  14 t-inv F
 -0.166667 -0.333333 -0.333333    0.00462963  14 t-inv F
 -0.333333 -0.166667 -0.333333    0.00462963  14 t-inv F
 -0.333333  0.333333  0.166667    0.00462963  14 t-inv F
 -0.333333  0.166667  0.333333    0.00462963  14 t-inv F
 -0.166667  0.333333  0.333333    0.00462963  14 t-inv F
  0.333333  0.333333 -0.166667    0.00462963  14 t-inv F
  0.166667  0.333333 -0.333333    0.00462963  14 t-inv F
  0.333333  0.166667 -0.333333    0.00462963  14 t-inv F
  0.333333 -0.333333  0.166667    0.00462963  14 t-inv F
  0.333333 -0.166667  0.333333    0.00462963  14 t-inv F
  0.166667 -0.333333  0.333333    0.00462963  14 t-inv F
  0.166667  0.500000  0.333333    0.00462963  15 t-inv F
  0.333333  0.166667  0.500000    0.00462963  15 t-inv F
  0.333333 -0.500000 -0.166667    0.00462963  15 t-inv F
  0.500000 -0.166667 -0.333333    0.00462963  15 t-inv F
  0.166667 -0.333333 -0.500000    0.00462963  15 t-inv F
 -0.500000 -0.333333  0.166667    0.00462963  15 t-inv F
 -0.166667 -0.500000  0.333333    0.00462963  15 t-inv F
 -0.333333 -0.166667  0.500000    0.00462963  15 t-inv F
 -0.333333  0.500000 -0.166667    0.00462963  15 t-inv F
 -0.500000  0.166667 -0.333333    0.00462963  15 t-inv F
 -0.166667  0.333333 -0.500000    0.00462963  15 t-inv F
  0.166667 -0.500000 -0.333333    0.00462963  15 t-inv F
  0.333333 -0.166667 -0.500000    0.00462963  15 t-inv F
  0.500000 -0.333333 -0.166667    0.00462963  15 t-inv F
 -0.166667 -0.333333  0.500000    0.00462963  15 t-inv F
 -0.333333 -0.500000  0.166667    0.00462963  15 t-inv F
 -0.500000 -0.166667  0.333333    0.00462963  15 t-inv F
 -0.333333  0.166667 -0.500000    0.00462963  15 t-inv F
 -0.500000  0.333333 -0.166667    0.00462963  15 t-inv F
 -0.166667  0.500000 -0.333333    0.00462963  15 t-inv F
  0.500000  0.166667  0.333333    0.00462963  15 t-inv F
  0.333333  0.500000  0.166667    0.00462963  15 t-inv F
  0.166667  0.333333  0.500000    0.00462963  15 t-inv F
  0.166667  0.500000  0.500000    0.00462963  16 t-inv F
  0.500000  0.166667  0.500000    0.00462963  16 t-inv F
  0.500000 -0.500000 -0.166667    0.00462963  16 t-inv F
  0.500000 -0.166667 -0.500000    0.00462963  16 t-inv F
 -0.166667 -0.500000  0.500000    0.00462963  16 t-inv F
  0.333333 -0.333333 -0.333333    0.00462963  17 t-inv F
 -0.333333 -0.333333  0.333333    0.00462963  17 t-inv F
 -0.333333  0.333333 -0.333333    0.00462963  17 t-inv F
 -0.333333 -0.333333 -0.333333    0.00462963  17 t-inv F
 -0.333333  0.333333  0.333333    0.00462963  17 t-inv F
  0.333333  0.333333 -0.333333    0.00462963  17 t-inv F
  0.333333 -0.333333  0.333333    0.00462963  17 t-inv F
  0.333333  0.500000  0.333333    0.00462963  18 t-inv F
  0.333333  0.333333  0.500000    0.00462963  18 t-inv F
  0.333333 -0.500000 -0.333333    0.00462963  18 t-inv F
  0.500000 -0.333333 -0.333333    0.00462963  18 t-inv F
  0.333333 -0.333333 -0.500000    0.00462963  18 t-inv F
 -0.500000 -0.333333  0.333333    0.00462963  18 t-inv F
 -0.333333 -0.500000  0.333333    0.00462963  18 t-inv F
 -0.333333 -0.333333  0.500000    0.00462963  18 t-inv F
 -0.333333  0.500000 -0.333333    0.00462963  18 t-inv F
 -0.500000  0.333333 -0.333333    0.00462963  18 t-inv F
 -0.333333  0.333333 -0.500000    0.00462963  18 t-inv F
  0.333333  0.500000  0.500000    0.00462963  19 t-inv F
  0.500000  0.333333  0.500000    0.00462963  19 t-inv F
  0.500000 -0.500000 -0.333333    0.00462963  19 t-inv F
  0.500000 -0.333333 -0.500000    0.00462963  19 t-inv F
 -0.333333 -0.500000  0.500000    0.00462963  19 t-inv F


--------------------------------------------------------------------------------------------------------




 Dimension of arrays:
   k-points           NKPTS =     20   k-points in BZ     NKDIM =     20   number of bands    NBANDS=    192
   number of dos      NEDOS =    301   number of ions     NIONS =     64
   non local maximal  LDIM  =      4   non local SUM 2l+1 LMDIM =      8
   total plane-waves  NPLWV = 110592
   max r-space proj   IRMAX =      1   max aug-charges    IRDMAX=  28403
   dimension x,y,z NGX =    48 NGY =   48 NGZ =   48
   dimension x,y,z NGXF=    96 NGYF=   96 NGZF=   96
   support grid    NGXF=   192 NGYF=  192 NGZF=  192
   ions per type =              64
   NGX,Y,Z   is equivalent  to a cutoff of  11.11, 11.11, 11.11 a.u.
   NGXF,Y,Z  is equivalent  to a cutoff of  22.23, 22.23, 22.23 a.u.

 SYSTEM =  unknown system                          
 POSCAR =  generated by phonopy                    

 Startparameter for this run:
   NWRITE =      2    write-flag & timer
   PREC   = accura    normal or accurate (medium, high low for compatibility)
   ISTART =      0    job   : 0-new  1-cont  2-samecut
   ICHARG =      2    charge: 1-file 2-atom 10-const
   ISPIN  =      1    spin polarized calculation?
   LNONCOLLINEAR =      F non collinear calculations
   LSORBIT =      F    spin-orbit coupling
   INIWAV =      1    electr: 0-lowe 1-rand  2-diag
   LASPH  =      F    aspherical Exc in radial PAW
   METAGGA=      F    non-selfconsistent MetaGGA calc.

 Electronic Relaxation 1
   ENCUT  =  400.0 eV  29.40 Ry    5.42 a.u.  11.71 11.71 11.71*2*pi/ulx,y,z
   ENINI  =  400.0     initial cutoff
   ENAUG  =  644.9 eV  augmentation charge cutoff
   NELM   =     60;   NELMIN=  2; NELMDL= -5     # of ELM steps 
   EDIFF  = 0.1E-07   stopping-criterion for ELM
   LREAL  =      F    real-space projection
   NLSPLINE    = F    spline interpolate recip. space projectors
   LCOMPAT=      F    compatible to vasp.4.4
   GGA_COMPAT  = T    GGA compatible to vasp.4.4-vasp.4.6
   LMAXPAW     = -100 max onsite density
   LMAXMIX     =    2 max onsite mixed and CHGCAR
   VOSKOWN=      0    Vosko Wilk Nusair interpolation
   ROPT   =    0.00000
 Ionic relaxation
   EDIFFG = 0.1E-06   stopping-criterion for IOM
   NSW    =      1    number of steps for IOM
   NBLOCK =      1;   KBLOCK =      1    inner block; outer block 
   IBRION =      8    ionic relax: 0-MD 1-quasi-New 2-CG
   NFREE  =      0    steps in history (QN), initial steepest desc. (CG)
   ISIF   =      2    stress and relaxation
   IWAVPR =     11    prediction:  0-non 1-charg 2-wave 3-comb
   ISYM   =      2    0-nonsym 1-usesym 2-fastsym
   LCORR  =      T    Harris-Foulkes like correction to forces

   POTIM  = 0.5000    time-step for ionic-motion
   TEIN   =    0.0    initial temperature
   TEBEG  =    0.0;   TEEND  =   0.0 temperature during run
   SMASS  =  -3.00    Nose mass-parameter (am)
   estimated Nose-frequenzy (Omega)   =  0.10E-29 period in steps =****** mass=  -0.118E-26a.u.
   SCALEE = 1.0000    scale energy and forces
   NPACO  =    256;   APACO  = 16.0  distance and # of slots for P.C.
   PSTRESS=    0.0 pullay stress

  Mass of Ions in am
   POMASS =  12.01
  Ionic Valenz
   ZVAL   =   4.00
  Atomic Wigner-Seitz radii
   RWIGS  =  -1.00
  virtual crystal weights 
   VCA    =   1.00
   NELECT =     256.0000    total number of electrons
   NUPDOWN=      -1.0000    fix difference up-down

 DOS related values:
   EMIN   =  10.00;   EMAX   =-10.00  energy-range for DOS
   EFERMI =   0.00
   ISMEAR =     0;   SIGMA  =   0.06  broadening in eV -4-tet -1-fermi 0-gaus

 Electronic relaxation 2 (details)
   IALGO  =     38    algorithm
   LDIAG  =      T    sub-space diagonalisation (order eigenvalues)
   LSUBROT=      F    optimize rotation matrix (better conditioning)
   TURBO    =      0    0=normal 1=particle mesh
   IRESTART =      0    0=no restart 2=restart with 2 vectors
   NREBOOT  =      0    no. of reboots
   NMIN     =      0    reboot dimension
   EREF     =   0.00    reference energy to select bands
   IMIX   =      4    mixing-type and parameters
     AMIX     =   0.40;   BMIX     =  1.00
     AMIX_MAG =   1.60;   BMIX_MAG =  1.00
     AMIN     =   0.10
     WC   =   100.;   INIMIX=   1;  MIXPRE=   1;  MAXMIX= -45

 Intra band minimization:
   WEIMIN = 0.0010     energy-eigenvalue tresh-hold
   EBREAK =  0.13E-10  absolut break condition
   DEPER  =   0.30     relativ break condition  

   TIME   =   0.40     timestep for ELM

  volume/ion in A,a.u.               =       5.78        39.03
  Fermi-wavevector in a.u.,A,eV,Ry     =   1.447762  2.735873 28.518006  2.096014
  Thomas-Fermi vector in A             =   2.565680
 
 Write flags
   LWAVE        =      F    write WAVECAR
   LDOWNSAMPLE  =      F    k-point downsampling of WAVECAR
   LCHARG       =      F    write CHGCAR
   LVTOT        =      F    write LOCPOT, total local potential
   LVHAR        =      F    write LOCPOT, Hartree potential only
   LELF         =      F    write electronic localiz. function (ELF)
   LORBIT       =      0    0 simple, 1 ext, 2 COOP (PROOUT), +10 PAW based schemes


 Dipole corrections
   LMONO  =      F    monopole corrections only (constant potential shift)
   LDIPOL =      F    correct potential (dipole corrections)
   IDIPOL =      0    1-x, 2-y, 3-z, 4-all directions 
   EPSILON=  1.0000000 bulk dielectric constant

 Exchange correlation treatment:
   GGA     =    --    GGA type
   LEXCH   =     8    internal setting for exchange type
   VOSKOWN=      0    Vosko Wilk Nusair interpolation
   LHFCALC =     F    Hartree Fock is set to
   LHFONE  =     F    Hartree Fock one center treatment
   AEXX    =    0.0000 exact exchange contribution

 Linear response parameters
   LEPSILON=     F    determine dielectric tensor
   LRPA    =     F    only Hartree local field effects (RPA)
   LNABLA  =     F    use nabla operator in PAW spheres
   LVEL    =     F    velocity operator in full k-point grid
   LINTERFAST=   F  fast interpolation
   KINTER  =     0    interpolate to denser k-point grid
   CSHIFT  =0.1000    complex shift for real part using Kramers Kronig
   OMEGAMAX=  -1.0    maximum frequency
   DEG_THRESHOLD= 0.2000000E-02 threshold for treating states as degnerate
   RTIME   =   -0.100 relaxation time in fs
  (WPLASMAI=    0.000 imaginary part of plasma frequency in eV, 0.658/RTIME)
   DFIELD  = 0.0000000 0.0000000 0.0000000 field for delta impulse in time
 
 Orbital magnetization related:
   ORBITALMAG=     F  switch on orbital magnetization
   LCHIMAG   =     F  perturbation theory with respect to B field
   DQ        =  0.001000  dq finite difference perturbation B field
   LLRAUG    =     F  two centre corrections for induced B field



--------------------------------------------------------------------------------------------------------


 linear response using symmetry
 charge density and potential will be updated during run
 non-spin polarized calculation
 Variant of blocked Davidson
 Davidson routine will perform the subspace rotation
 perform sub-space diagonalisation
    after iterative eigenvector-optimisation
 modified Broyden-mixing scheme, WC =      100.0
 initial mixing is a Kerker type mixing with AMIX =  0.4000 and BMIX =      1.0000
 Hartree-type preconditioning will be used
 using additional bands           64
 reciprocal scheme for non local part
 calculate Harris-corrections to forces 
   (improved forces if not selfconsistent)
 use gradient corrections 
 use of overlap-Matrix (Vanderbilt PP)
 Gauss-broadening in eV      SIGMA  =   0.06


--------------------------------------------------------------------------------------------------------


  energy-cutoff  :      400.00
  volume of cell :      370.15
      direct lattice vectors                 reciprocal lattice vectors
     7.179998718  0.000000000  0.000000000     0.139275791  0.000000000  0.000000000
     0.000000000  7.179998718  0.000000000     0.000000000  0.139275791  0.000000000
     0.000000000  0.000000000  7.179998718     0.000000000  0.000000000  0.139275791

  length of vectors
     7.179998718  7.179998718  7.179998718     0.139275791  0.139275791  0.139275791


 
 k-points in units of 2pi/SCALE and weight: kpt_density=3000                        
   0.00000000  0.00000000  0.00000000       0.005
   0.02321263  0.00000000  0.00000000       0.028
   0.04642526  0.00000000  0.00000000       0.028
   0.06963790  0.00000000  0.00000000       0.014
   0.02321263  0.02321263  0.00000000       0.056
   0.04642526  0.02321263  0.00000000       0.111
   0.06963790  0.02321263  0.00000000       0.056
   0.04642526  0.04642526  0.00000000       0.056
   0.06963790  0.04642526  0.00000000       0.056
   0.06963790  0.06963790  0.00000000       0.014
   0.02321263  0.02321263  0.02321263       0.037
   0.04642526  0.02321263  0.02321263       0.111
   0.06963790  0.02321263  0.02321263       0.056
   0.04642526  0.04642526  0.02321263       0.111
   0.06963790  0.04642526  0.02321263       0.111
   0.06963790  0.06963790  0.02321263       0.028
   0.04642526  0.04642526  0.04642526       0.037
   0.06963790  0.04642526  0.04642526       0.056
   0.06963790  0.06963790  0.04642526       0.028
   0.06963790  0.06963790  0.06963790       0.005
 
 k-points in reciprocal lattice and weights: kpt_density=3000                        
   0.00000000  0.00000000  0.00000000       0.005
   0.16666667  0.00000000  0.00000000       0.028
   0.33333333  0.00000000  0.00000000       0.028
   0.50000000  0.00000000  0.00000000       0.014
   0.16666667  0.16666667  0.00000000       0.056
   0.33333333  0.16666667  0.00000000       0.111
   0.50000000  0.16666667  0.00000000       0.056
   0.33333333  0.33333333  0.00000000       0.056
   0.50000000  0.33333333  0.00000000       0.056
   0.50000000  0.50000000  0.00000000       0.014
   0.16666667  0.16666667  0.16666667       0.037
   0.33333333  0.16666667  0.16666667       0.111
   0.50000000  0.16666667  0.16666667       0.056
   0.33333333  0.33333333  0.16666667       0.111
   0.50000000  0.33333333  0.16666667       0.111
   0.50000000  0.50000000  0.16666667       0.028
   0.33333333  0.33333333  0.33333333       0.037
   0.50000000  0.33333333  0.33333333       0.056
   0.50000000  0.50000000  0.33333333       0.028
   0.50000000  0.50000000  0.50000000       0.005
 
 position of ions in fractional coordinates (direct lattice) 
   0.12500000  0.37500000  0.12500000
   0.62500000  0.37500000  0.12500000
   0.12500000  0.87500000  0.12500000
   0.62500000  0.87500000  0.12500000
   0.12500000  0.37500000  0.62500000
   0.62500000  0.37500000  0.62500000
   0.12500000  0.87500000  0.62500000
   0.62500000  0.87500000  0.62500000
   0.00000000  0.00000000  0.25000000
   0.50000000  0.00000000  0.25000000
   0.00000000  0.50000000  0.25000000
   0.50000000  0.50000000  0.25000000
   0.00000000  0.00000000  0.75000000
   0.50000000  0.00000000  0.75000000
   0.00000000  0.50000000  0.75000000
   0.50000000  0.50000000  0.75000000
   0.12500000  0.12500000  0.37500000
   0.62500000  0.12500000  0.37500000
   0.12500000  0.62500000  0.37500000
   0.62500000  0.62500000  0.37500000
   0.12500000  0.12500000  0.87500000
   0.62500000  0.12500000  0.87500000
   0.12500000  0.62500000  0.87500000
   0.62500000  0.62500000  0.87500000
   0.00000000  0.25000000  0.00000000
   0.50000000  0.25000000  0.00000000
   0.00000000  0.75000000  0.00000000
   0.50000000  0.75000000  0.00000000
   0.00000000  0.25000000  0.50000000
   0.50000000  0.25000000  0.50000000
   0.00000000  0.75000000  0.50000000
   0.50000000  0.75000000  0.50000000
   0.37500000  0.37500000  0.37500000
   0.87500000  0.37500000  0.37500000
   0.37500000  0.87500000  0.37500000
   0.87500000  0.87500000  0.37500000
   0.37500000  0.37500000  0.87500000
   0.87500000  0.37500000  0.87500000
   0.37500000  0.87500000  0.87500000
   0.87500000  0.87500000  0.87500000
   0.25000000  0.00000000  0.00000000
   0.75000000  0.00000000  0.00000000
   0.25000000  0.50000000  0.00000000
   0.75000000  0.50000000  0.00000000
   0.25000000  0.00000000  0.50000000
   0.75000000  0.00000000  0.50000000
   0.25000000  0.50000000  0.50000000
   0.75000000  0.50000000  0.50000000
   0.37500000  0.12500000  0.12500000
   0.87500000  0.12500000  0.12500000
   0.37500000  0.62500000  0.12500000
   0.87500000  0.62500000  0.12500000
   0.37500000  0.12500000  0.62500000
   0.87500000  0.12500000  0.62500000
   0.37500000  0.62500000  0.62500000
   0.87500000  0.62500000  0.62500000
   0.25000000  0.25000000  0.25000000
   0.75000000  0.25000000  0.25000000
   0.25000000  0.75000000  0.25000000
   0.75000000  0.75000000  0.25000000
   0.25000000  0.25000000  0.75000000
   0.75000000  0.25000000  0.75000000
   0.25000000  0.75000000  0.75000000
   0.75000000  0.75000000  0.75000000
 
 position of ions in cartesian coordinates  (Angst):
   0.89749984  2.69249952  0.89749984
   4.48749920  2.69249952  0.89749984
   0.89749984  6.28249888  0.89749984
   4.48749920  6.28249888  0.89749984
   0.89749984  2.69249952  4.48749920
   4.48749920  2.69249952  4.48749920
   0.89749984  6.28249888  4.48749920
   4.48749920  6.28249888  4.48749920
   0.00000000  0.00000000  1.79499968
   3.58999936  0.00000000  1.79499968
   0.00000000  3.58999936  1.79499968
   3.58999936  3.58999936  1.79499968
   0.00000000  0.00000000  5.38499904
   3.58999936  0.00000000  5.38499904
   0.00000000  3.58999936  5.38499904
   3.58999936  3.58999936  5.38499904
   0.89749984  0.89749984  2.69249952
   4.48749920  0.89749984  2.69249952
   0.89749984  4.48749920  2.69249952
   4.48749920  4.48749920  2.69249952
   0.89749984  0.89749984  6.28249888
   4.48749920  0.89749984  6.28249888
   0.89749984  4.48749920  6.28249888
   4.48749920  4.48749920  6.28249888
   0.00000000  1.79499968  0.00000000
   3.58999936  1.79499968  0.00000000
   0.00000000  5.38499904  0.00000000
   3.58999936  5.38499904  0.00000000
   0.00000000  1.79499968  3.58999936
   3.58999936  1.79499968  3.58999936
   0.00000000  5.38499904  3.58999936
   3.58999936  5.38499904  3.58999936
   2.69249952  2.69249952  2.69249952
   6.28249888  2.69249952  2.69249952
   2.69249952  6.28249888  2.69249952
   6.28249888  6.28249888  2.69249952
   2.69249952  2.69249952  6.28249888
   6.28249888  2.69249952  6.28249888
   2.69249952  6.28249888  6.28249888
   6.28249888  6.28249888  6.28249888
   1.79499968  0.00000000  0.00000000
   5.38499904  0.00000000  0.00000000
   1.79499968  3.58999936  0.00000000
   5.38499904  3.58999936  0.00000000
   1.79499968  0.00000000  3.58999936
   5.38499904  0.00000000  3.58999936
   1.79499968  3.58999936  3.58999936
   5.38499904  3.58999936  3.58999936
   2.69249952  0.89749984  0.89749984
   6.28249888  0.89749984  0.89749984
   2.69249952  4.48749920  0.89749984
   6.28249888  4.48749920  0.89749984
   2.69249952  0.89749984  4.48749920
   6.28249888  0.89749984  4.48749920
   2.69249952  4.48749920  4.48749920
   6.28249888  4.48749920  4.48749920
   1.79499968  1.79499968  1.79499968
   5.38499904  1.79499968  1.79499968
   1.79499968  5.38499904  1.79499968
   5.38499904  5.38499904  1.79499968
   1.79499968  1.79499968  5.38499904
   5.38499904  1.79499968  5.38499904
   1.79499968  5.38499904  5.38499904
   5.38499904  5.38499904  5.38499904
 


--------------------------------------------------------------------------------------------------------


 k-point  1 :   0.0000 0.0000 0.0000  plane waves:    6763
 k-point  2 :   0.1667 0.0000 0.0000  plane waves:    6751
 k-point  3 :   0.3333 0.0000 0.0000  plane waves:    6688
 k-point  4 :   0.5000 0.0000 0.0000  plane waves:    6696
 k-point  5 :   0.1667 0.1667 0.0000  plane waves:    6753
 k-point  6 :   0.3333 0.1667 0.0000  plane waves:    6717
 k-point  7 :   0.5000 0.1667 0.0000  plane waves:    6714
 k-point  8 :   0.3333 0.3333 0.0000  plane waves:    6716
 k-point  9 :   0.5000 0.3333 0.0000  plane waves:    6726
 k-point 10 :   0.5000 0.5000 0.0000  plane waves:    6728
 k-point 11 :   0.1667 0.1667 0.1667  plane waves:    6736
 k-point 12 :   0.3333 0.1667 0.1667  plane waves:    6720
 k-point 13 :   0.5000 0.1667 0.1667  plane waves:    6736
 k-point 14 :   0.3333 0.3333 0.1667  plane waves:    6716
 k-point 15 :   0.5000 0.3333 0.1667  plane waves:    6734
 k-point 16 :   0.5000 0.5000 0.1667  plane waves:    6696
 k-point 17 :   0.3333 0.3333 0.3333  plane waves:    6737
 k-point 18 :   0.5000 0.3333 0.3333  plane waves:    6720
 k-point 19 :   0.5000 0.5000 0.3333  plane waves:    6728
 k-point 20 :   0.5000 0.5000 0.5000  plane waves:    6776

 maximum and minimum number of plane-waves per node :      6776     6688

 maximum number of plane-waves:      6776
 maximum index in each direction: 
   IXMAX=   11   IYMAX=   11   IZMAX=   11
   IXMIN=  -12   IYMIN=  -12   IZMIN=  -12


 serial   3D FFT for wavefunctions
 parallel 3D FFT for charge:
    minimum data exchange during FFTs selected (reduces bandwidth)


 total amount of memory used by VASP MPI-rank0    70177. kBytes
=======================================================================

   base      :      30000. kBytes
   nonl-proj :      15630. kBytes
   fftplans  :       4537. kBytes
   grid      :       5806. kBytes
   one-center:        196. kBytes
   wavefun   :      14008. kBytes
 
     INWAV:  cpu time    0.0004: real time    0.0005
 Broyden mixing: mesh for mixing (old mesh)
   NGX = 23   NGY = 23   NGZ = 23
  (NGX  = 96   NGY  = 96   NGZ  = 96)
  gives a total of  12167 points

 initial charge density was supplied:
 charge density of overlapping atoms calculated
 number of electron     256.0000000 magnetization 
 keeping initial charge density in first step


--------------------------------------------------------------------------------------------------------


 Maximum index for augmentation-charges         1101 (set IRDMAX)


--------------------------------------------------------------------------------------------------------


 First call to EWALD:  gamma=   0.247
 Maximum number of real-space cells 3x 3x 3
 Maximum number of reciprocal cells 3x 3x 3

    FEWALD:  cpu time    0.0085: real time    0.0085


--------------------------------------- Iteration      1(   1)  ---------------------------------------


    POTLOK:  cpu time    0.0662: real time    0.0704
    SETDIJ:  cpu time    0.0438: real time    0.0440
     EDDAV:  cpu time   13.1098: real time   13.1267
       DOS:  cpu time    0.0052: real time    0.0052
    --------------------------------------------
      LOOP:  cpu time   13.2251: real time   13.2464

 eigenvalue-minimisations  :  7680
 total energy-change (2. order) : 0.5076694E+03  (-0.1133781E+05)
 number of electron     256.0000000 magnetization 
 augmentation part      256.0000000 magnetization 

 Free energy of the ion-electron system (eV)
  ---------------------------------------------------
  alpha Z        PSCENC =       901.65156814
  Ewald energy   TEWEN  =    -11062.73308363
  -Hartree energ DENC   =      -577.40509908
  -exchange      EXHF   =         0.00000000
  -V(xc)+E(xc)   XCENC  =       911.13702777
  PAW double counting   =      2421.21235816    -2494.84305711
  entropy T*S    EENTRO =        -0.01230272
  eigenvalues    EBANDS =       992.51967778
  atomic energy  EATOM  =      9416.14232778
  Solvation  Ediel_sol  =         0.00000000
  ---------------------------------------------------
  free energy    TOTEN  =       507.66941709 eV

  energy without entropy =      507.68171981  energy(sigma->0) =      507.67556845


--------------------------------------------------------------------------------------------------------




--------------------------------------- Iteration      1(   2)  ---------------------------------------


     EDDAV:  cpu time   16.2005: real time   16.2023
       DOS:  cpu time    0.0029: real time    0.0029
    --------------------------------------------
      LOOP:  cpu time   16.2034: real time   16.2052

 eigenvalue-minimisations  : 10144
 total energy-change (2. order) :-0.1066827E+04  (-0.1016638E+04)
 number of electron     256.0000000 magnetization 
 augmentation part      256.0000000 magnetization 

 Free energy of the ion-electron system (eV)
  ---------------------------------------------------
  alpha Z        PSCENC =       901.65156814
  Ewald energy   TEWEN  =    -11062.73308363
  -Hartree energ DENC   =      -577.40509908
  -exchange      EXHF   =         0.00000000
  -V(xc)+E(xc)   XCENC  =       911.13702777
  PAW double counting   =      2421.21235816    -2494.84305711
  entropy T*S    EENTRO =        -0.00000000
  eigenvalues    EBANDS =       -74.31963091
  atomic energy  EATOM  =      9416.14232778
  Solvation  Ediel_sol  =         0.00000000
  ---------------------------------------------------
  free energy    TOTEN  =      -559.15758889 eV

  energy without entropy =     -559.15758889  energy(sigma->0) =     -559.15758889


--------------------------------------------------------------------------------------------------------




--------------------------------------- Iteration      1(   3)  ---------------------------------------


     EDDAV:  cpu time   16.5992: real time   16.6012
       DOS:  cpu time    0.0025: real time    0.0025
    --------------------------------------------
      LOOP:  cpu time   16.6017: real time   16.6037

 eigenvalue-minimisations  : 10208
 total energy-change (2. order) :-0.4134890E+02  (-0.4110735E+02)
 number of electron     256.0000000 magnetization 
 augmentation part      256.0000000 magnetization 

 Free energy of the ion-electron system (eV)
  ---------------------------------------------------
  alpha Z        PSCENC =       901.65156814
  Ewald energy   TEWEN  =    -11062.73308363
  -Hartree energ DENC   =      -577.40509908
  -exchange      EXHF   =         0.00000000
  -V(xc)+E(xc)   XCENC  =       911.13702777
  PAW double counting   =      2421.21235816    -2494.84305711
  entropy T*S    EENTRO =        -0.00000000
  eigenvalues    EBANDS =      -115.66853416
  atomic energy  EATOM  =      9416.14232778
  Solvation  Ediel_sol  =         0.00000000
  ---------------------------------------------------
  free energy    TOTEN  =      -600.50649213 eV

  energy without entropy =     -600.50649213  energy(sigma->0) =     -600.50649213


--------------------------------------------------------------------------------------------------------




--------------------------------------- Iteration      1(   4)  ---------------------------------------


     EDDAV:  cpu time   16.4230: real time   16.4247
       DOS:  cpu time    0.0028: real time    0.0028
    --------------------------------------------
      LOOP:  cpu time   16.4258: real time   16.4275

 eigenvalue-minimisations  : 10208
 total energy-change (2. order) :-0.4553971E+00  (-0.4544601E+00)
 number of electron     256.0000000 magnetization 
 augmentation part      256.0000000 magnetization 

 Free energy of the ion-electron system (eV)
  ---------------------------------------------------
  alpha Z        PSCENC =       901.65156814
  Ewald energy   TEWEN  =    -11062.73308363
  -Hartree energ DENC   =      -577.40509908
  -exchange      EXHF   =         0.00000000
  -V(xc)+E(xc)   XCENC  =       911.13702777
  PAW double counting   =      2421.21235816    -2494.84305711
  entropy T*S    EENTRO =        -0.00000000
  eigenvalues    EBANDS =      -116.12393129
  atomic energy  EATOM  =      9416.14232778
  Solvation  Ediel_sol  =         0.00000000
  ---------------------------------------------------
  free energy    TOTEN  =      -600.96188927 eV

  energy without entropy =     -600.96188927  energy(sigma->0) =     -600.96188927


--------------------------------------------------------------------------------------------------------




--------------------------------------- Iteration      1(   5)  ---------------------------------------


     EDDAV:  cpu time   15.5279: real time   15.5299
       DOS:  cpu time    0.0028: real time    0.0028
    CHARGE:  cpu time    0.5092: real time    0.5094
    MIXING:  cpu time    0.0036: real time    0.0036
    --------------------------------------------
      LOOP:  cpu time   16.0434: real time   16.0457

 eigenvalue-minimisations  :  9632
 total energy-change (2. order) :-0.9872566E-02  (-0.9868384E-02)
 number of electron     255.9999995 magnetization 
 augmentation part        6.1871837 magnetization 

 Broyden mixing:
  rms(total) = 0.26250E+01    rms(broyden)= 0.26245E+01
  rms(prec ) = 0.38365E+01
  weight for this iteration     100.00

 Free energy of the ion-electron system (eV)
  ---------------------------------------------------
  alpha Z        PSCENC =       901.65156814
  Ewald energy   TEWEN  =    -11062.73308363
  -Hartree energ DENC   =      -577.40509908
  -exchange      EXHF   =         0.00000000
  -V(xc)+E(xc)   XCENC  =       911.13702777
  PAW double counting   =      2421.21235816    -2494.84305711
  entropy T*S    EENTRO =        -0.00000000
  eigenvalues    EBANDS =      -116.13380386
  atomic energy  EATOM  =      9416.14232778
  Solvation  Ediel_sol  =         0.00000000
  ---------------------------------------------------
  free energy    TOTEN  =      -600.97176183 eV

  energy without entropy =     -600.97176183  energy(sigma->0) =     -600.97176183


--------------------------------------------------------------------------------------------------------




--------------------------------------- Iteration      1(   6)  ---------------------------------------


    POTLOK:  cpu time    0.0621: real time    0.0626
    SETDIJ:  cpu time    0.0395: real time    0.0395
     EDDAV:  cpu time   15.1735: real time   15.1750
       DOS:  cpu time    0.0026: real time    0.0026
    CHARGE:  cpu time    0.5078: real time    0.5078
    MIXING:  cpu time    0.0043: real time    0.0043
    --------------------------------------------
      LOOP:  cpu time   15.7899: real time   15.7918

 eigenvalue-minimisations  :  9056
 total energy-change (2. order) : 0.1430541E+02  (-0.9488136E+00)
 number of electron     255.9999995 magnetization 
 augmentation part        6.0455043 magnetization 

 Broyden mixing:
  rms(total) = 0.14435E+01    rms(broyden)= 0.14434E+01
  rms(prec ) = 0.20900E+01
  weight for this iteration     100.00

 eigenvalues of (default mixing * dielectric matrix)
  average eigenvalue GAMMA=   2.1740
  2.1740

 Free energy of the ion-electron system (eV)
  ---------------------------------------------------
  alpha Z        PSCENC =       901.65156814
  Ewald energy   TEWEN  =    -11062.73308363
  -Hartree energ DENC   =      -696.71148522
  -exchange      EXHF   =         0.00000000
  -V(xc)+E(xc)   XCENC  =       922.28982294
  PAW double counting   =      3123.92362755    -3201.68862710
  entropy T*S    EENTRO =        -0.00000000
  eigenvalues    EBANDS =        10.45950164
  atomic energy  EATOM  =      9416.14232778
  Solvation  Ediel_sol  =         0.00000000
  ---------------------------------------------------
  free energy    TOTEN  =      -586.66634790 eV

  energy without entropy =     -586.66634790  energy(sigma->0) =     -586.66634790


--------------------------------------------------------------------------------------------------------




--------------------------------------- Iteration      1(   7)  ---------------------------------------


    POTLOK:  cpu time    0.0563: real time    0.0569
    SETDIJ:  cpu time    0.0399: real time    0.0399
     EDDAV:  cpu time   15.2625: real time   15.2639
       DOS:  cpu time    0.0033: real time    0.0033
    CHARGE:  cpu time    0.5152: real time    0.5152
    MIXING:  cpu time    0.0042: real time    0.0042
    --------------------------------------------
      LOOP:  cpu time   15.8814: real time   15.8835

 eigenvalue-minimisations  :  9344
 total energy-change (2. order) : 0.4833845E+01  (-0.1088570E+01)
 number of electron     255.9999995 magnetization 
 augmentation part        5.8970474 magnetization 

 Broyden mixing:
  rms(total) = 0.19446E+00    rms(broyden)= 0.19352E+00
  rms(prec ) = 0.23813E+00
  weight for this iteration     100.00

 eigenvalues of (default mixing * dielectric matrix)
  average eigenvalue GAMMA=   2.2734
  2.0117  2.5351

 Free energy of the ion-electron system (eV)
  ---------------------------------------------------
  alpha Z        PSCENC =       901.65156814
  Ewald energy   TEWEN  =    -11062.73308363
  -Hartree energ DENC   =      -849.63476563
  -exchange      EXHF   =         0.00000000
  -V(xc)+E(xc)   XCENC  =       936.76192466
  PAW double counting   =      4079.61953226    -4161.31314513
  entropy T*S    EENTRO =        -0.00000000
  eigenvalues    EBANDS =       157.67313872
  atomic energy  EATOM  =      9416.14232778
  Solvation  Ediel_sol  =         0.00000000
  ---------------------------------------------------
  free energy    TOTEN  =      -581.83250283 eV

  energy without entropy =     -581.83250283  energy(sigma->0) =     -581.83250283


--------------------------------------------------------------------------------------------------------




--------------------------------------- Iteration      1(   8)  ---------------------------------------


    POTLOK:  cpu time    0.0669: real time    0.0673
    SETDIJ:  cpu time    0.0407: real time    0.0407
     EDDAV:  cpu time   15.5065: real time   15.5079
       DOS:  cpu time    0.0042: real time    0.0042
    CHARGE:  cpu time    0.5138: real time    0.5138
    MIXING:  cpu time    0.0049: real time    0.0049
    --------------------------------------------
      LOOP:  cpu time   16.1370: real time   16.1389

 eigenvalue-minimisations  :  9568
 total energy-change (2. order) :-0.5864212E-01  (-0.2451409E-01)
 number of electron     255.9999995 magnetization 
 augmentation part        5.9052891 magnetization 

 Broyden mixing:
  rms(total) = 0.21276E-01    rms(broyden)= 0.20981E-01
  rms(prec ) = 0.25821E-01
  weight for this iteration     100.00

 eigenvalues of (default mixing * dielectric matrix)
  average eigenvalue GAMMA=   2.1053
  1.4646  2.6882  2.1632

 Free energy of the ion-electron system (eV)
  ---------------------------------------------------
  alpha Z        PSCENC =       901.65156814
  Ewald energy   TEWEN  =    -11062.73308363
  -Hartree energ DENC   =      -852.64617794
  -exchange      EXHF   =         0.00000000
  -V(xc)+E(xc)   XCENC  =       937.07341375
  PAW double counting   =      4143.95000959    -4224.60371897
  entropy T*S    EENTRO =        -0.00000000
  eigenvalues    EBANDS =       159.27451633
  atomic energy  EATOM  =      9416.14232778
  Solvation  Ediel_sol  =         0.00000000
  ---------------------------------------------------
  free energy    TOTEN  =      -581.89114495 eV

  energy without entropy =     -581.89114495  energy(sigma->0) =     -581.89114495


--------------------------------------------------------------------------------------------------------




--------------------------------------- Iteration      1(   9)  ---------------------------------------


    POTLOK:  cpu time    0.0573: real time    0.0577
    SETDIJ:  cpu time    0.0398: real time    0.0398
     EDDAV:  cpu time   16.4366: real time   16.4381
       DOS:  cpu time    0.0025: real time    0.0025
    CHARGE:  cpu time    0.5110: real time    0.5110
    MIXING:  cpu time    0.0045: real time    0.0045
    --------------------------------------------
      LOOP:  cpu time   17.0517: real time   17.0536

 eigenvalue-minimisations  : 10080
 total energy-change (2. order) :-0.2136069E-02  (-0.3621205E-03)
 number of electron     255.9999995 magnetization 
 augmentation part        5.9042786 magnetization 

 Broyden mixing:
  rms(total) = 0.79302E-02    rms(broyden)= 0.79083E-02
  rms(prec ) = 0.10099E-01
  weight for this iteration     100.00

 eigenvalues of (default mixing * dielectric matrix)
  average eigenvalue GAMMA=   2.0451
  0.9670  2.7598  2.4658  1.9876

 Free energy of the ion-electron system (eV)
  ---------------------------------------------------
  alpha Z        PSCENC =       901.65156814
  Ewald energy   TEWEN  =    -11062.73308363
  -Hartree energ DENC   =      -852.14306928
  -exchange      EXHF   =         0.00000000
  -V(xc)+E(xc)   XCENC  =       937.02434468
  PAW double counting   =      4139.51723172    -4220.06793975
  entropy T*S    EENTRO =        -0.00000000
  eigenvalues    EBANDS =       158.71533933
  atomic energy  EATOM  =      9416.14232778
  Solvation  Ediel_sol  =         0.00000000
  ---------------------------------------------------
  free energy    TOTEN  =      -581.89328102 eV

  energy without entropy =     -581.89328102  energy(sigma->0) =     -581.89328102


--------------------------------------------------------------------------------------------------------




--------------------------------------- Iteration      1(  10)  ---------------------------------------


    POTLOK:  cpu time    0.0640: real time    0.2853
    SETDIJ:  cpu time    0.0480: real time    0.0480
     EDDAV:  cpu time   15.1233: real time   15.1247
       DOS:  cpu time    0.0024: real time    0.0024
    CHARGE:  cpu time    0.5113: real time    0.5113
    MIXING:  cpu time    0.0047: real time    0.0047
    --------------------------------------------
      LOOP:  cpu time   15.7535: real time   15.9762

 eigenvalue-minimisations  :  9248
 total energy-change (2. order) :-0.4592071E-03  (-0.4134500E-04)
 number of electron     255.9999995 magnetization 
 augmentation part        5.9039844 magnetization 

 Broyden mixing:
  rms(total) = 0.79198E-03    rms(broyden)= 0.77595E-03
  rms(prec ) = 0.11795E-02
  weight for this iteration     100.00

 eigenvalues of (default mixing * dielectric matrix)
  average eigenvalue GAMMA=   1.9605
  2.9409  2.5510  2.0653  0.9862  1.2592

 Free energy of the ion-electron system (eV)
  ---------------------------------------------------
  alpha Z        PSCENC =       901.65156814
  Ewald energy   TEWEN  =    -11062.73308363
  -Hartree energ DENC   =      -852.54382328
  -exchange      EXHF   =         0.00000000
  -V(xc)+E(xc)   XCENC  =       937.05923919
  PAW double counting   =      4136.02181092    -4216.58696069
  entropy T*S    EENTRO =        -0.00000000
  eigenvalues    EBANDS =       159.09518135
  atomic energy  EATOM  =      9416.14232778
  Solvation  Ediel_sol  =         0.00000000
  ---------------------------------------------------
  free energy    TOTEN  =      -581.89374023 eV

  energy without entropy =     -581.89374023  energy(sigma->0) =     -581.89374023


--------------------------------------------------------------------------------------------------------




--------------------------------------- Iteration      1(  11)  ---------------------------------------


    POTLOK:  cpu time    0.0572: real time    0.0576
    SETDIJ:  cpu time    0.0395: real time    0.0395
     EDDAV:  cpu time   16.3261: real time   16.3277
       DOS:  cpu time    0.0027: real time    0.0027
    CHARGE:  cpu time    0.5088: real time    0.5089
    MIXING:  cpu time    0.0051: real time    0.0051
    --------------------------------------------
      LOOP:  cpu time   16.9394: real time   16.9414

 eigenvalue-minimisations  : 10080
 total energy-change (2. order) :-0.4703377E-05  (-0.1124156E-05)
 number of electron     255.9999995 magnetization 
 augmentation part        5.9037904 magnetization 

 Broyden mixing:
  rms(total) = 0.20286E-03    rms(broyden)= 0.19688E-03
  rms(prec ) = 0.27002E-03
  weight for this iteration     100.00

 eigenvalues of (default mixing * dielectric matrix)
  average eigenvalue GAMMA=   1.9961
  2.9859  2.5799  2.4002  2.0240  0.9934  0.9934

 Free energy of the ion-electron system (eV)
  ---------------------------------------------------
  alpha Z        PSCENC =       901.65156814
  Ewald energy   TEWEN  =    -11062.73308363
  -Hartree energ DENC   =      -852.66292733
  -exchange      EXHF   =         0.00000000
  -V(xc)+E(xc)   XCENC  =       937.07031438
  PAW double counting   =      4136.35082788    -4216.92075555
  entropy T*S    EENTRO =        -0.00000000
  eigenvalues    EBANDS =       159.20798340
  atomic energy  EATOM  =      9416.14232778
  Solvation  Ediel_sol  =         0.00000000
  ---------------------------------------------------
  free energy    TOTEN  =      -581.89374493 eV

  energy without entropy =     -581.89374493  energy(sigma->0) =     -581.89374493


--------------------------------------------------------------------------------------------------------




--------------------------------------- Iteration      1(  12)  ---------------------------------------


    POTLOK:  cpu time    0.0679: real time    0.0693
    SETDIJ:  cpu time    0.0399: real time    0.0399
     EDDAV:  cpu time   16.2076: real time   16.2092
       DOS:  cpu time    0.0028: real time    0.0028
    CHARGE:  cpu time    0.5170: real time    0.5170
    MIXING:  cpu time    0.0049: real time    0.0048
    --------------------------------------------
      LOOP:  cpu time   16.8400: real time   16.8430

 eigenvalue-minimisations  :  9920
 total energy-change (2. order) :-0.9537143E-07  (-0.4307915E-07)
 number of electron     255.9999995 magnetization 
 augmentation part        5.9038096 magnetization 

 Broyden mixing:
  rms(total) = 0.19094E-04    rms(broyden)= 0.17597E-04
  rms(prec ) = 0.24544E-04
  weight for this iteration     100.00

 eigenvalues of (default mixing * dielectric matrix)
  average eigenvalue GAMMA=   1.8828
  2.9374  2.6469  2.5046  2.0377  0.9747  1.0392  1.0392

 Free energy of the ion-electron system (eV)
  ---------------------------------------------------
  alpha Z        PSCENC =       901.65156814
  Ewald energy   TEWEN  =    -11062.73308363
  -Hartree energ DENC   =      -852.64627425
  -exchange      EXHF   =         0.00000000
  -V(xc)+E(xc)   XCENC  =       937.06877948
  PAW double counting   =      4136.41821374    -4216.98637515
  entropy T*S    EENTRO =        -0.00000000
  eigenvalues    EBANDS =       159.19109887
  atomic energy  EATOM  =      9416.14232778
  Solvation  Ediel_sol  =         0.00000000
  ---------------------------------------------------
  free energy    TOTEN  =      -581.89374503 eV

  energy without entropy =     -581.89374503  energy(sigma->0) =     -581.89374503


--------------------------------------------------------------------------------------------------------




--------------------------------------- Iteration      1(  13)  ---------------------------------------


    POTLOK:  cpu time    0.0565: real time    0.0568
    SETDIJ:  cpu time    0.0394: real time    0.0394
     EDDAV:  cpu time   13.5256: real time   13.5269
       DOS:  cpu time    0.0027: real time    0.0027
    CHARGE:  cpu time    0.5085: real time    0.5085
    MIXING:  cpu time    0.0053: real time    0.0053
    --------------------------------------------
      LOOP:  cpu time   14.1380: real time   14.1396

 eigenvalue-minimisations  :  7328
 total energy-change (2. order) :-0.9112773E-07  (-0.6005040E-09)
 number of electron     255.9999995 magnetization 
 augmentation part        5.9038073 magnetization 

 Broyden mixing:
  rms(total) = 0.42212E-05    rms(broyden)= 0.39636E-05
  rms(prec ) = 0.48339E-05
  weight for this iteration     100.00

 eigenvalues of (default mixing * dielectric matrix)
  average eigenvalue GAMMA=   2.0008
  2.0376  2.9406  2.9406  2.6029  2.4995  1.0087  1.0087  0.9677

 Free energy of the ion-electron system (eV)
  ---------------------------------------------------
  alpha Z        PSCENC =       901.65156814
  Ewald energy   TEWEN  =    -11062.73308363
  -Hartree energ DENC   =      -852.64450418
  -exchange      EXHF   =         0.00000000
  -V(xc)+E(xc)   XCENC  =       937.06861199
  PAW double counting   =      4136.41509977    -4216.98320119
  entropy T*S    EENTRO =        -0.00000000
  eigenvalues    EBANDS =       159.18943620
  atomic energy  EATOM  =      9416.14232778
  Solvation  Ediel_sol  =         0.00000000
  ---------------------------------------------------
  free energy    TOTEN  =      -581.89374512 eV

  energy without entropy =     -581.89374512  energy(sigma->0) =     -581.89374512


--------------------------------------------------------------------------------------------------------




--------------------------------------- Iteration      1(  14)  ---------------------------------------


    POTLOK:  cpu time    0.0627: real time    0.0630
    SETDIJ:  cpu time    0.0401: real time    0.0401
     EDDAV:  cpu time   12.5566: real time   12.5578
       DOS:  cpu time    0.0034: real time    0.0034
    CHARGE:  cpu time    0.5073: real time    0.5073
    MIXING:  cpu time    0.0051: real time    0.0051
    --------------------------------------------
      LOOP:  cpu time   13.1754: real time   13.1770

 eigenvalue-minimisations  :  6656
 total energy-change (2. order) :-0.1715853E-07  (-0.8957737E-10)
 number of electron     255.9999995 magnetization 
 augmentation part        5.9038076 magnetization 

 Broyden mixing:
  rms(total) = 0.18364E-05    rms(broyden)= 0.18195E-05
  rms(prec ) = 0.24514E-05
  weight for this iteration     100.00

 eigenvalues of (default mixing * dielectric matrix)
  average eigenvalue GAMMA=   1.8657
  2.0410  2.9075  2.7541  2.5323  2.5323  1.0349  1.0349  0.9769  0.9769

 Free energy of the ion-electron system (eV)
  ---------------------------------------------------
  alpha Z        PSCENC =       901.65156814
  Ewald energy   TEWEN  =    -11062.73308363
  -Hartree energ DENC   =      -852.64415001
  -exchange      EXHF   =         0.00000000
  -V(xc)+E(xc)   XCENC  =       937.06857908
  PAW double counting   =      4136.40930641    -4216.97739644
  entropy T*S    EENTRO =        -0.00000000
  eigenvalues    EBANDS =       159.18910353
  atomic energy  EATOM  =      9416.14232778
  Solvation  Ediel_sol  =         0.00000000
  ---------------------------------------------------
  free energy    TOTEN  =      -581.89374514 eV

  energy without entropy =     -581.89374514  energy(sigma->0) =     -581.89374514


--------------------------------------------------------------------------------------------------------




--------------------------------------- Iteration      1(  15)  ---------------------------------------


    POTLOK:  cpu time    0.0568: real time    0.0575
    SETDIJ:  cpu time    0.0396: real time    0.0397
     EDDAV:  cpu time   11.8329: real time   11.8340
       DOS:  cpu time    0.0025: real time    0.0025
    --------------------------------------------
      LOOP:  cpu time   11.9315: real time   11.9334

 eigenvalue-minimisations  :  6144
 total energy-change (2. order) : 0.5202310E-09  (-0.2135475E-10)
 number of electron     255.9999995 magnetization 
 augmentation part        5.9038076 magnetization 

 Free energy of the ion-electron system (eV)
  ---------------------------------------------------
  alpha Z        PSCENC =       901.65156814
  Ewald energy   TEWEN  =    -11062.73308363
  -Hartree energ DENC   =      -852.64429451
  -exchange      EXHF   =         0.00000000
  -V(xc)+E(xc)   XCENC  =       937.06859258
  PAW double counting   =      4136.41031527    -4216.97841740
  entropy T*S    EENTRO =        -0.00000000
  eigenvalues    EBANDS =       159.18924664
  atomic energy  EATOM  =      9416.14232778
  Solvation  Ediel_sol  =         0.00000000
  ---------------------------------------------------
  free energy    TOTEN  =      -581.89374514 eV

  energy without entropy =     -581.89374514  energy(sigma->0) =     -581.89374514


--------------------------------------------------------------------------------------------------------




 average (electrostatic) potential at core
  the test charge radii are     0.6991
  (the norm of the test charge is              1.0000)
       1 -45.6586       2 -45.6586       3 -45.6586       4 -45.6586       5 -45.6586
       6 -45.6586       7 -45.6586       8 -45.6586       9 -45.6586      10 -45.6586
      11 -45.6586      12 -45.6586      13 -45.6586      14 -45.6586      15 -45.6586
      16 -45.6586      17 -45.6586      18 -45.6586      19 -45.6586      20 -45.6586
      21 -45.6586      22 -45.6586      23 -45.6586      24 -45.6586      25 -45.6586
      26 -45.6586      27 -45.6586      28 -45.6586      29 -45.6586      30 -45.6586
      31 -45.6586      32 -45.6586      33 -45.6586      34 -45.6586      35 -45.6586
      36 -45.6586      37 -45.6586      38 -45.6586      39 -45.6586      40 -45.6586
      41 -45.6586      42 -45.6586      43 -45.6586      44 -45.6586      45 -45.6586
      46 -45.6586      47 -45.6586      48 -45.6586      49 -45.6586      50 -45.6586
      51 -45.6586      52 -45.6586      53 -45.6586      54 -45.6586      55 -45.6586
      56 -45.6586      57 -45.6586      58 -45.6586      59 -45.6586      60 -45.6586
      61 -45.6586      62 -45.6586      63 -45.6586      64 -45.6586
 
 
 
 E-fermi :   9.8270     XC(G=0): -13.1260     alpha+bet :-17.3579


 k-point     1 :       0.0000    0.0000    0.0000
  band No.  band energies     occupation 
      1     -11.7422      2.00000
      2      -9.4886      2.00000
      3      -9.4886      2.00000
      4      -9.4886      2.00000
      5      -9.4886      2.00000
      6      -9.4886      2.00000
      7      -9.4886      2.00000
      8      -7.3395      2.00000
      9      -7.3395      2.00000
     10      -7.3395      2.00000
     11      -7.3395      2.00000
     12      -7.3395      2.00000
     13      -7.3395      2.00000
     14      -7.3395      2.00000
     15      -7.3395      2.00000
     16      -7.3395      2.00000
     17      -7.3395      2.00000
     18      -7.3395      2.00000
     19      -7.3395      2.00000
     20      -6.0794      2.00000
     21      -6.0794      2.00000
     22      -6.0794      2.00000
     23      -6.0794      2.00000
     24      -3.6832      2.00000
     25      -3.6832      2.00000
     26      -3.6832      2.00000
     27      -3.6832      2.00000
     28      -3.1539      2.00000
     29      -3.1539      2.00000
     30      -3.1539      2.00000
     31      -3.1539      2.00000
     32      -3.1539      2.00000
     33      -3.1539      2.00000
     34      -2.3944      2.00000
     35      -2.3944      2.00000
     36      -2.3944      2.00000
     37      -2.3944      2.00000
     38      -2.3944      2.00000
     39      -2.3944      2.00000
     40      -2.3944      2.00000
     41      -2.3944      2.00000
     42      -2.3944      2.00000
     43      -2.3944      2.00000
     44      -2.3944      2.00000
     45      -2.3944      2.00000
     46       0.8701      2.00000
     47       0.8701      2.00000
     48       0.8701      2.00000
     49       0.8701      2.00000
     50       0.8701      2.00000
     51       0.8701      2.00000
     52       0.8701      2.00000
     53       0.8701      2.00000
     54       0.8701      2.00000
[...]
      4.487499  0.897500  6.282499     0.141678   -0.015679    0.074527  
      0.897500  4.487499  6.282499    -0.021434   -0.074001   -0.074527  
      4.487499  4.487499  6.282499    -0.021434   -0.015679    0.011541  
      0.000000  1.795000  0.000000     0.013077   -0.083041    0.016495  
      3.589999  1.795000  0.000000     0.013077    0.023338    0.049680  
      0.000000  5.384999  0.000000    -0.034339   -0.083041   -0.049680  
      3.589999  5.384999  0.000000    -0.034339    0.023338   -0.016495  
      0.000000  1.795000  3.589999     0.034339   -0.023338    0.016495  
      3.589999  1.795000  3.589999     0.034339    0.083041    0.049680  
      0.000000  5.384999  3.589999    -0.013077   -0.023338   -0.049680  
      3.589999  5.384999  3.589999    -0.013077    0.083041   -0.016495  
      2.692500  2.692500  2.692500    -0.109819    0.080023    0.025198  
      6.282499  2.692500  2.692500    -0.109819    0.009657    0.060911  
      2.692500  6.282499  2.692500    -0.010425    0.080023   -0.060911  
      6.282499  6.282499  2.692500    -0.010425    0.009657   -0.025198  
      2.692500  2.692500  6.282499     0.010425   -0.009657    0.025198  
      6.282499  2.692500  6.282499     0.010425   -0.080023    0.060911  
      2.692500  6.282499  6.282499     0.109819   -0.009657   -0.060911  
      6.282499  6.282499  6.282499     0.109819   -0.080023   -0.025198  
      1.795000  0.000000  0.000000     0.090846   -0.022119   -0.036592  
      5.384999  0.000000  0.000000     0.090846   -0.037584    0.029583  
      1.795000  3.589999  0.000000    -0.112108   -0.022119   -0.029583  
      5.384999  3.589999  0.000000    -0.112108   -0.037584    0.036592  
      1.795000  0.000000  3.589999     0.112108    0.037584   -0.036592  
      5.384999  0.000000  3.589999     0.112108    0.022119    0.029583  
      1.795000  3.589999  3.589999    -0.090846    0.037584   -0.029583  
      5.384999  3.589999  3.589999    -0.090846    0.022119    0.036592  
      2.692500  0.897500  0.897500    -0.009728    0.067839    0.013637  
      6.282499  0.897500  0.897500    -0.009728   -0.002527    0.049349  
      2.692500  4.487499  0.897500    -0.172840    0.067839   -0.049349  
      6.282499  4.487499  0.897500    -0.172840   -0.002527   -0.013637  
      2.692500  0.897500  4.487499     0.172840    0.002527    0.013637  
      6.282499  0.897500  4.487499     0.172840   -0.067839    0.049349  
      2.692500  4.487499  4.487499     0.009728    0.002527   -0.049349  
      6.282499  4.487499  4.487499     0.009728   -0.067839   -0.013637  
      1.795000  1.795000  1.795000    -0.079467    0.065830   -0.000000  
      5.384999  1.795000  1.795000    -0.079467    0.050365    0.066175  
      1.795000  5.384999  1.795000    -0.126882    0.065830   -0.066175  
      5.384999  5.384999  1.795000    -0.126882    0.050365    0.000000  
      1.795000  1.795000  5.384999     0.126882   -0.050365   -0.000000  
      5.384999  1.795000  5.384999     0.126882   -0.065830    0.066175  
      1.795000  5.384999  5.384999     0.079467   -0.050365   -0.066175  
      5.384999  5.384999  5.384999     0.079467   -0.065830    0.000000  
 
 190 f  =    0.000004 THz     0.000023 2PiTHz    0.000123 cm-1     0.000015 meV
             X         Y         Z           dx          dy          dz
      0.897500  2.692500  0.897500     0.115941    0.002474    0.046653  
      4.487499  2.692500  0.897500     0.115941    0.002474    0.046653  
      0.897500  6.282499  0.897500     0.115941    0.002474    0.046653  
      4.487499  6.282499  0.897500     0.115941    0.002474    0.046653  
      0.897500  2.692500  4.487499     0.115941    0.002474    0.046653  
      4.487499  2.692500  4.487499     0.115941    0.002474    0.046653  
      0.897500  6.282499  4.487499     0.115941    0.002474    0.046653  
      4.487499  6.282499  4.487499     0.115941    0.002474    0.046653  
      0.000000  0.000000  1.795000     0.115941    0.002474    0.046653  
      3.589999  0.000000  1.795000     0.115941    0.002474    0.046653  
      0.000000  3.589999  1.795000     0.115941    0.002474    0.046653  
      3.589999  3.589999  1.795000     0.115941    0.002474    0.046653  
      0.000000  0.000000  5.384999     0.115941    0.002474    0.046653  
      3.589999  0.000000  5.384999     0.115941    0.002474    0.046653  
      0.000000  3.589999  5.384999     0.115941    0.002474    0.046653  
      3.589999  3.589999  5.384999     0.115941    0.002474    0.046653  
      0.897500  0.897500  2.692500     0.115941    0.002474    0.046653  
      4.487499  0.897500  2.692500     0.115941    0.002474    0.046653  
      0.897500  4.487499  2.692500     0.115941    0.002474    0.046653  
      4.487499  4.487499  2.692500     0.115941    0.002474    0.046653  
      0.897500  0.897500  6.282499     0.115941    0.002474    0.046653  
      4.487499  0.897500  6.282499     0.115941    0.002474    0.046653  
      0.897500  4.487499  6.282499     0.115941    0.002474    0.046653  
      4.487499  4.487499  6.282499     0.115941    0.002474    0.046653  
      0.000000  1.795000  0.000000     0.115941    0.002474    0.046653  
      3.589999  1.795000  0.000000     0.115941    0.002474    0.046653  
      0.000000  5.384999  0.000000     0.115941    0.002474    0.046653  
      3.589999  5.384999  0.000000     0.115941    0.002474    0.046653  
      0.000000  1.795000  3.589999     0.115941    0.002474    0.046653  
      3.589999  1.795000  3.589999     0.115941    0.002474    0.046653  
      0.000000  5.384999  3.589999     0.115941    0.002474    0.046653  
      3.589999  5.384999  3.589999     0.115941    0.002474    0.046653  
      2.692500  2.692500  2.692500     0.115941    0.002474    0.046653  
      6.282499  2.692500  2.692500     0.115941    0.002474    0.046653  
      2.692500  6.282499  2.692500     0.115941    0.002474    0.046653  
      6.282499  6.282499  2.692500     0.115941    0.002474    0.046653  
      2.692500  2.692500  6.282499     0.115941    0.002474    0.046653  
      6.282499  2.692500  6.282499     0.115941    0.002474    0.046653  
      2.692500  6.282499  6.282499     0.115941    0.002474    0.046653  
      6.282499  6.282499  6.282499     0.115941    0.002474    0.046653  
      1.795000  0.000000  0.000000     0.115941    0.002474    0.046653  
      5.384999  0.000000  0.000000     0.115941    0.002474    0.046653  
      1.795000  3.589999  0.000000     0.115941    0.002474    0.046653  
      5.384999  3.589999  0.000000     0.115941    0.002474    0.046653  
      1.795000  0.000000  3.589999     0.115941    0.002474    0.046653  
      5.384999  0.000000  3.589999     0.115941    0.002474    0.046653  
      1.795000  3.589999  3.589999     0.115941    0.002474    0.046653  
      5.384999  3.589999  3.589999     0.115941    0.002474    0.046653  
      2.692500  0.897500  0.897500     0.115941    0.002474    0.046653  
      6.282499  0.897500  0.897500     0.115941    0.002474    0.046653  
      2.692500  4.487499  0.897500     0.115941    0.002474    0.046653  
      6.282499  4.487499  0.897500     0.115941    0.002474    0.046653  
      2.692500  0.897500  4.487499     0.115941    0.002474    0.046653  
      6.282499  0.897500  4.487499     0.115941    0.002474    0.046653  
      2.692500  4.487499  4.487499     0.115941    0.002474    0.046653  
      6.282499  4.487499  4.487499     0.115941    0.002474    0.046653  
      1.795000  1.795000  1.795000     0.115941    0.002474    0.046653  
      5.384999  1.795000  1.795000     0.115941    0.002474    0.046653  
      1.795000  5.384999  1.795000     0.115941    0.002474    0.046653  
      5.384999  5.384999  1.795000     0.115941    0.002474    0.046653  
      1.795000  1.795000  5.384999     0.115941    0.002474    0.046653  
      5.384999  1.795000  5.384999     0.115941    0.002474    0.046653  
      1.795000  5.384999  5.384999     0.115941    0.002474    0.046653  
      5.384999  5.384999  5.384999     0.115941    0.002474    0.046653  
 
 191 f  =    0.000004 THz     0.000023 2PiTHz    0.000123 cm-1     0.000015 meV
             X         Y         Z           dx          dy          dz
      0.897500  2.692500  0.897500    -0.046502   -0.005883    0.115879  
      4.487499  2.692500  0.897500    -0.046502   -0.005883    0.115879  
      0.897500  6.282499  0.897500    -0.046502   -0.005883    0.115879  
      4.487499  6.282499  0.897500    -0.046502   -0.005883    0.115879  
      0.897500  2.692500  4.487499    -0.046502   -0.005883    0.115879  
      4.487499  2.692500  4.487499    -0.046502   -0.005883    0.115879  
      0.897500  6.282499  4.487499    -0.046502   -0.005883    0.115879  
      4.487499  6.282499  4.487499    -0.046502   -0.005883    0.115879  
      0.000000  0.000000  1.795000    -0.046502   -0.005883    0.115879  
      3.589999  0.000000  1.795000    -0.046502   -0.005883    0.115879  
      0.000000  3.589999  1.795000    -0.046502   -0.005883    0.115879  
      3.589999  3.589999  1.795000    -0.046502   -0.005883    0.115879  
      0.000000  0.000000  5.384999    -0.046502   -0.005883    0.115879  
      3.589999  0.000000  5.384999    -0.046502   -0.005883    0.115879  
      0.000000  3.589999  5.384999    -0.046502   -0.005883    0.115879  
      3.589999  3.589999  5.384999    -0.046502   -0.005883    0.115879  
      0.897500  0.897500  2.692500    -0.046502   -0.005883    0.115879  
      4.487499  0.897500  2.692500    -0.046502   -0.005883    0.115879  
      0.897500  4.487499  2.692500    -0.046502   -0.005883    0.115879  
      4.487499  4.487499  2.692500    -0.046502   -0.005883    0.115879  
      0.897500  0.897500  6.282499    -0.046502   -0.005883    0.115879  
      4.487499  0.897500  6.282499    -0.046502   -0.005883    0.115879  
      0.897500  4.487499  6.282499    -0.046502   -0.005883    0.115879  
      4.487499  4.487499  6.282499    -0.046502   -0.005883    0.115879  
      0.000000  1.795000  0.000000    -0.046502   -0.005883    0.115879  
      3.589999  1.795000  0.000000    -0.046502   -0.005883    0.115879  
      0.000000  5.384999  0.000000    -0.046502   -0.005883    0.115879  
      3.589999  5.384999  0.000000    -0.046502   -0.005883    0.115879  
      0.000000  1.795000  3.589999    -0.046502   -0.005883    0.115879  
      3.589999  1.795000  3.589999    -0.046502   -0.005883    0.115879  
      0.000000  5.384999  3.589999    -0.046502   -0.005883    0.115879  
      3.589999  5.384999  3.589999    -0.046502   -0.005883    0.115879  
      2.692500  2.692500  2.692500    -0.046502   -0.005883    0.115879  
      6.282499  2.692500  2.692500    -0.046502   -0.005883    0.115879  
      2.692500  6.282499  2.692500    -0.046502   -0.005883    0.115879  
      6.282499  6.282499  2.692500    -0.046502   -0.005883    0.115879  
      2.692500  2.692500  6.282499    -0.046502   -0.005883    0.115879  
      6.282499  2.692500  6.282499    -0.046502   -0.005883    0.115879  
      2.692500  6.282499  6.282499    -0.046502   -0.005883    0.115879  
      6.282499  6.282499  6.282499    -0.046502   -0.005883    0.115879  
      1.795000  0.000000  0.000000    -0.046502   -0.005883    0.115879  
      5.384999  0.000000  0.000000    -0.046502   -0.005883    0.115879  
      1.795000  3.589999  0.000000    -0.046502   -0.005883    0.115879  
      5.384999  3.589999  0.000000    -0.046502   -0.005883    0.115879  
      1.795000  0.000000  3.589999    -0.046502   -0.005883    0.115879  
      5.384999  0.000000  3.589999    -0.046502   -0.005883    0.115879  
      1.795000  3.589999  3.589999    -0.046502   -0.005883    0.115879  
      5.384999  3.589999  3.589999    -0.046502   -0.005883    0.115879  
      2.692500  0.897500  0.897500    -0.046502   -0.005883    0.115879  
      6.282499  0.897500  0.897500    -0.046502   -0.005883    0.115879  
      2.692500  4.487499  0.897500    -0.046502   -0.005883    0.115879  
      6.282499  4.487499  0.897500    -0.046502   -0.005883    0.115879  
      2.692500  0.897500  4.487499    -0.046502   -0.005883    0.115879  
      6.282499  0.897500  4.487499    -0.046502   -0.005883    0.115879  
      2.692500  4.487499  4.487499    -0.046502   -0.005883    0.115879  
      6.282499  4.487499  4.487499    -0.046502   -0.005883    0.115879  
      1.795000  1.795000  1.795000    -0.046502   -0.005883    0.115879  
      5.384999  1.795000  1.795000    -0.046502   -0.005883    0.115879  
      1.795000  5.384999  1.795000    -0.046502   -0.005883    0.115879  
      5.384999  5.384999  1.795000    -0.046502   -0.005883    0.115879  
      1.795000  1.795000  5.384999    -0.046502   -0.005883    0.115879  
      5.384999  1.795000  5.384999    -0.046502   -0.005883    0.115879  
      1.795000  5.384999  5.384999    -0.046502   -0.005883    0.115879  
      5.384999  5.384999  5.384999    -0.046502   -0.005883    0.115879  
 
 192 f  =    0.000004 THz     0.000023 2PiTHz    0.000120 cm-1     0.000015 meV
             X         Y         Z           dx          dy          dz
      0.897500  2.692500  0.897500     0.004489   -0.124837   -0.004536  
      4.487499  2.692500  0.897500     0.004489   -0.124837   -0.004536  
      0.897500  6.282499  0.897500     0.004489   -0.124837   -0.004536  
      4.487499  6.282499  0.897500     0.004489   -0.124837   -0.004536  
      0.897500  2.692500  4.487499     0.004489   -0.124837   -0.004536  
      4.487499  2.692500  4.487499     0.004489   -0.124837   -0.004536  
      0.897500  6.282499  4.487499     0.004489   -0.124837   -0.004536  
      4.487499  6.282499  4.487499     0.004489   -0.124837   -0.004536  
      0.000000  0.000000  1.795000     0.004489   -0.124837   -0.004536  
      3.589999  0.000000  1.795000     0.004489   -0.124837   -0.004536  
      0.000000  3.589999  1.795000     0.004489   -0.124837   -0.004536  
      3.589999  3.589999  1.795000     0.004489   -0.124837   -0.004536  
      0.000000  0.000000  5.384999     0.004489   -0.124837   -0.004536  
      3.589999  0.000000  5.384999     0.004489   -0.124837   -0.004536  
      0.000000  3.589999  5.384999     0.004489   -0.124837   -0.004536  
      3.589999  3.589999  5.384999     0.004489   -0.124837   -0.004536  
      0.897500  0.897500  2.692500     0.004489   -0.124837   -0.004536  
      4.487499  0.897500  2.692500     0.004489   -0.124837   -0.004536  
      0.897500  4.487499  2.692500     0.004489   -0.124837   -0.004536  
      4.487499  4.487499  2.692500     0.004489   -0.124837   -0.004536  
      0.897500  0.897500  6.282499     0.004489   -0.124837   -0.004536  
      4.487499  0.897500  6.282499     0.004489   -0.124837   -0.004536  
      0.897500  4.487499  6.282499     0.004489   -0.124837   -0.004536  
      4.487499  4.487499  6.282499     0.004489   -0.124837   -0.004536  
      0.000000  1.795000  0.000000     0.004489   -0.124837   -0.004536  
      3.589999  1.795000  0.000000     0.004489   -0.124837   -0.004536  
      0.000000  5.384999  0.000000     0.004489   -0.124837   -0.004536  
      3.589999  5.384999  0.000000     0.004489   -0.124837   -0.004536  
      0.000000  1.795000  3.589999     0.004489   -0.124837   -0.004536  
      3.589999  1.795000  3.589999     0.004489   -0.124837   -0.004536  
      0.000000  5.384999  3.589999     0.004489   -0.124837   -0.004536  
      3.589999  5.384999  3.589999     0.004489   -0.124837   -0.004536  
      2.692500  2.692500  2.692500     0.004489   -0.124837   -0.004536  
      6.282499  2.692500  2.692500     0.004489   -0.124837   -0.004536  
      2.692500  6.282499  2.692500     0.004489   -0.124837   -0.004536  
      6.282499  6.282499  2.692500     0.004489   -0.124837   -0.004536  
      2.692500  2.692500  6.282499     0.004489   -0.124837   -0.004536  
      6.282499  2.692500  6.282499     0.004489   -0.124837   -0.004536  
      2.692500  6.282499  6.282499     0.004489   -0.124837   -0.004536  
      6.282499  6.282499  6.282499     0.004489   -0.124837   -0.004536  
      1.795000  0.000000  0.000000     0.004489   -0.124837   -0.004536  
      5.384999  0.000000  0.000000     0.004489   -0.124837   -0.004536  
      1.795000  3.589999  0.000000     0.004489   -0.124837   -0.004536  
      5.384999  3.589999  0.000000     0.004489   -0.124837   -0.004536  
      1.795000  0.000000  3.589999     0.004489   -0.124837   -0.004536  
      5.384999  0.000000  3.589999     0.004489   -0.124837   -0.004536  
      1.795000  3.589999  3.589999     0.004489   -0.124837   -0.004536  
      5.384999  3.589999  3.589999     0.004489   -0.124837   -0.004536  
      2.692500  0.897500  0.897500     0.004489   -0.124837   -0.004536  
      6.282499  0.897500  0.897500     0.004489   -0.124837   -0.004536  
      2.692500  4.487499  0.897500     0.004489   -0.124837   -0.004536  
      6.282499  4.487499  0.897500     0.004489   -0.124837   -0.004536  
      2.692500  0.897500  4.487499     0.004489   -0.124837   -0.004536  
      6.282499  0.897500  4.487499     0.004489   -0.124837   -0.004536  
      2.692500  4.487499  4.487499     0.004489   -0.124837   -0.004536  
      6.282499  4.487499  4.487499     0.004489   -0.124837   -0.004536  
      1.795000  1.795000  1.795000     0.004489   -0.124837   -0.004536  
      5.384999  1.795000  1.795000     0.004489   -0.124837   -0.004536  
      1.795000  5.384999  1.795000     0.004489   -0.124837   -0.004536  
      5.384999  5.384999  1.795000     0.004489   -0.124837   -0.004536  
      1.795000  1.795000  5.384999     0.004489   -0.124837   -0.004536  
      5.384999  1.795000  5.384999     0.004489   -0.124837   -0.004536  
      1.795000  5.384999  5.384999     0.004489   -0.124837   -0.004536  
      5.384999  5.384999  5.384999     0.004489   -0.124837   -0.004536  
 


--------------------------------------------------------------------------------------------------------



 ELASTIC MODULI CONTR FROM IONIC RELAXATION (kBar)
 Direction    XX          YY          ZZ          XY          YZ          ZX
 --------------------------------------------------------------------------------
 XX          -0.0000     -0.0000     -0.0000      0.0000      0.0000     -0.0000
 YY          -0.0000     -0.0000     -0.0000      0.0000      0.0000     -0.0000
 ZZ          -0.0000     -0.0000     -0.0000      0.0000      0.0000     -0.0000
 XY           0.0000      0.0000      0.0000    -23.6961      0.0000      0.0000
 YZ           0.0000      0.0000      0.0000      0.0000    -23.6961      0.0000
 ZX          -0.0000     -0.0000     -0.0000      0.0000      0.0000    -23.6961
 --------------------------------------------------------------------------------



--------------------------------------------------------------------------------------------------------


     LOOP+:  cpu time  824.3060: real time  824.9342
    4ORBIT:  cpu time    0.0000: real time    0.0000

 total amount of memory used by VASP MPI-rank0    70177. kBytes
=======================================================================

   base      :      30000. kBytes
   nonl-proj :      15630. kBytes
   fftplans  :       4537. kBytes
   grid      :       5806. kBytes
   one-center:        196. kBytes
   wavefun   :      14008. kBytes
 
  
  
 General timing and accounting informations for this job:
 ========================================================
  
                  Total CPU time used (sec):      832.919
                            User time (sec):      827.884
                          System time (sec):        5.035
                         Elapsed time (sec):      833.731
  
                   Maximum memory used (kb):      391368.
                   Average memory used (kb):           0.
  
                          Minor page faults:        39308
                          Major page faults:           35
                 Voluntary context switches:          849
