# Thermal properties / unit cell (natom)

unit:
  temperature:   K
  free_energy:   kJ/mol
  entropy:       J/K/mol
  heat_capacity: J/K/mol

natom: 8    
cutoff_frequency:    0.000
num_modes: 2654208
num_integrated_modes: 2654208

zero_point_energy:     136.3113379
high_T_entropy:        436.3394579

thermal_properties:
- temperature:         0.0000000
  free_energy:       136.3113379
  entropy:             0.0000000
  heat_capacity:       0.0000000
  energy:            136.3113379

- temperature:         2.0000000
  free_energy:       136.3113379
  entropy:             0.0000000
  heat_capacity:       0.0000000
  energy:            136.3113379

- temperature:         4.0000000
  free_energy:       136.3113379
  entropy:             0.0000087
  heat_capacity:       0.0000546
  energy:            136.3113379

- temperature:         6.0000000
  free_energy:       136.3113378
  entropy:             0.0000713
  heat_capacity:       0.0003076
  energy:            136.3113382

- temperature:         8.0000000
  free_energy:       136.3113375
  entropy:             0.0002201
  heat_capacity:       0.0007926
  energy:            136.3113393

- temperature:        10.0000000
  free_energy:       136.3113368
  entropy:             0.0004745
  heat_capacity:       0.0015717
  energy:            136.3113416

- temperature:        12.0000000
  free_energy:       136.3113355
  entropy:             0.0008568
  heat_capacity:       0.0027258
  energy:            136.3113458

- temperature:        14.0000000
  free_energy:       136.3113333
  entropy:             0.0013915
  heat_capacity:       0.0043357
  energy:            136.3113528

- temperature:        16.0000000
  free_energy:       136.3113298
  entropy:             0.0021041
  heat_capacity:       0.0064810
  energy:            136.3113635

- temperature:        18.0000000
  free_energy:       136.3113248
  entropy:             0.0030204
  heat_capacity:       0.0092417
  energy:            136.3113791

- temperature:        20.0000000
  free_energy:       136.3113176
  entropy:             0.0041666
  heat_capacity:       0.0126985
  energy:            136.3114009

- temperature:        22.0000000
  free_energy:       136.3113079
  entropy:             0.0055690
  heat_capacity:       0.0169331
  energy:            136.3114304

- temperature:        24.0000000
  free_energy:       136.3112952
  entropy:             0.0072543
  heat_capacity:       0.0220290
  energy:            136.3114693

- temperature:        26.0000000
  free_energy:       136.3112787
  entropy:             0.0092495
  heat_capacity:       0.0280710
  energy:            136.3115192

- temperature:        28.0000000
  free_energy:       136.3112579
  entropy:             0.0115821
  heat_capacity:       0.0351463
  energy:            136.3115822

- temperature:        30.0000000
  free_energy:       136.3112321
  entropy:             0.0142798
  heat_capacity:       0.0433441
  energy:            136.3116605

- temperature:        32.0000000
  free_energy:       136.3112005
  entropy:             0.0173708
  heat_capacity:       0.0527561
  energy:            136.3117564

- temperature:        34.0000000
  free_energy:       136.3111624
  entropy:             0.0208839
  heat_capacity:       0.0634771
  energy:            136.3118724

- temperature:        36.0000000
  free_energy:       136.3111167
  entropy:             0.0248486
  heat_capacity:       0.0756051
  energy:            136.3120113

- temperature:        38.0000000
  free_energy:       136.3110626
  entropy:             0.0292946
  heat_capacity:       0.0892420
  energy:            136.3121758

- temperature:        40.0000000
  free_energy:       136.3109992
  entropy:             0.0342528
  heat_capacity:       0.1044944
  energy:            136.3123693

- temperature:        42.0000000
  free_energy:       136.3109253
  entropy:             0.0397547
  heat_capacity:       0.1214737
  energy:            136.3125950

- temperature:        44.0000000
  free_energy:       136.3108398
  entropy:             0.0458327
  heat_capacity:       0.1402975
  energy:            136.3128564

- temperature:        46.0000000
  free_energy:       136.3107415
  entropy:             0.0525204
  heat_capacity:       0.1610903
  energy:            136.3131575

- temperature:        48.0000000
  free_energy:       136.3106293
  entropy:             0.0598524
  heat_capacity:       0.1839841
  energy:            136.3135022

- temperature:        50.0000000
  free_energy:       136.3105017
  entropy:             0.0678646
  heat_capacity:       0.2091194
  energy:            136.3138949

- temperature:        52.0000000
  free_energy:       136.3103573
  entropy:             0.0765947
  heat_capacity:       0.2366460
  energy:            136.3143403

- temperature:        54.0000000
  free_energy:       136.3101948
  entropy:             0.0860815
  heat_capacity:       0.2667236
  energy:            136.3148432

- temperature:        56.0000000
  free_energy:       136.3100125
  entropy:             0.0963658
  heat_capacity:       0.2995221
  energy:            136.3154090

- temperature:        58.0000000
  free_energy:       136.3098088
  entropy:             0.1074904
  heat_capacity:       0.3352218
  energy:            136.3160432

- temperature:        60.0000000
  free_energy:       136.3095819
  entropy:             0.1194998
  heat_capacity:       0.3740137
  energy:            136.3167519

- temperature:        62.0000000
  free_energy:       136.3093301
  entropy:             0.1324406
  heat_capacity:       0.4160987
  energy:            136.3175415

- temperature:        64.0000000
  free_energy:       136.3090515
  entropy:             0.1463615
  heat_capacity:       0.4616875
  energy:            136.3184186

- temperature:        66.0000000
  free_energy:       136.3087440
  entropy:             0.1613133
  heat_capacity:       0.5109998
  energy:            136.3193907

- temperature:        68.0000000
  free_energy:       136.3084055
  entropy:             0.1773491
  heat_capacity:       0.5642627
  energy:            136.3204653

- temperature:        70.0000000
  free_energy:       136.3080339
  entropy:             0.1945240
  heat_capacity:       0.6217105
  energy:            136.3216505

- temperature:        72.0000000
  free_energy:       136.3076266
  entropy:             0.2128948
  heat_capacity:       0.6835825
  energy:            136.3229551

- temperature:        74.0000000
  free_energy:       136.3071814
  entropy:             0.2325207
  heat_capacity:       0.7501222
  energy:            136.3243880

- temperature:        76.0000000
  free_energy:       136.3066957
  entropy:             0.2534625
  heat_capacity:       0.8215753
  energy:            136.3259588

- temperature:        78.0000000
  free_energy:       136.3061667
  entropy:             0.2757826
  heat_capacity:       0.8981885
  energy:            136.3276777

- temperature:        80.0000000
  free_energy:       136.3055916
  entropy:             0.2995450
  heat_capacity:       0.9802080
  energy:            136.3295552

- temperature:        82.0000000
  free_energy:       136.3049675
  entropy:             0.3248150
  heat_capacity:       1.0678776
  energy:            136.3316023

- temperature:        84.0000000
  free_energy:       136.3042913
  entropy:             0.3516589
  heat_capacity:       1.1614377
  energy:            136.3338306

- temperature:        86.0000000
  free_energy:       136.3035598
  entropy:             0.3801441
  heat_capacity:       1.2611238
  energy:            136.3362522

- temperature:        88.0000000
  free_energy:       136.3027696
  entropy:             0.4103386
  heat_capacity:       1.3671653
  energy:            136.3388794

- temperature:        90.0000000
  free_energy:       136.3019172
  entropy:             0.4423109
  heat_capacity:       1.4797844
  energy:            136.3417252

- temperature:        92.0000000
  free_energy:       136.3009991
  entropy:             0.4761297
  heat_capacity:       1.5991949
  energy:            136.3448030

- temperature:        94.0000000
  free_energy:       136.3000114
  entropy:             0.5118640
  heat_capacity:       1.7256019
  energy:            136.3481266

- temperature:        96.0000000
  free_energy:       136.2989503
  entropy:             0.5495825
  heat_capacity:       1.8592005
  energy:            136.3517102

- temperature:        98.0000000
  free_energy:       136.2978117
  entropy:             0.5893534
  heat_capacity:       2.0001755
  energy:            136.3555684

- temperature:       100.0000000
  free_energy:       136.2965915
  entropy:             0.6312448
  heat_capacity:       2.1487010
  energy:            136.3597160

- temperature:       102.0000000
  free_energy:       136.2952853
  entropy:             0.6753237
  heat_capacity:       2.3049401
  energy:            136.3641683

- temperature:       104.0000000
  free_energy:       136.2938887
  entropy:             0.7216566
  heat_capacity:       2.4690443
  energy:            136.3689410

- temperature:       106.0000000
  free_energy:       136.2923971
  entropy:             0.7703086
  heat_capacity:       2.6411542
  energy:            136.3740498

- temperature:       108.0000000
  free_energy:       136.2908059
  entropy:             0.8213439
  heat_capacity:       2.8213984
  energy:            136.3795110

- temperature:       110.0000000
  free_energy:       136.2891101
  entropy:             0.8748256
  heat_capacity:       3.0098947
  energy:            136.3853409

- temperature:       112.0000000
  free_energy:       136.2873049
  entropy:             0.9308149
  heat_capacity:       3.2067492
  energy:            136.3915562

- temperature:       114.0000000
  free_energy:       136.2853851
  entropy:             0.9893721
  heat_capacity:       3.4120574
  energy:            136.3981736

- temperature:       116.0000000
  free_energy:       136.2833457
  entropy:             1.0505554
  heat_capacity:       3.6259038
  energy:            136.4052101

- temperature:       118.0000000
  free_energy:       136.2811811
  entropy:             1.1144219
  heat_capacity:       3.8483624
  energy:            136.4126829

- temperature:       120.0000000
  free_energy:       136.2788861
  entropy:             1.1810265
  heat_capacity:       4.0794972
  energy:            136.4206093

- temperature:       122.0000000
  free_energy:       136.2764552
  entropy:             1.2504226
  heat_capacity:       4.3193621
  energy:            136.4290067

- temperature:       124.0000000
  free_energy:       136.2738826
  entropy:             1.3226618
  heat_capacity:       4.5680018
  energy:            136.4378926

- temperature:       126.0000000
  free_energy:       136.2711626
  entropy:             1.3977938
  heat_capacity:       4.8254517
  energy:            136.4472846

- temperature:       128.0000000
  free_energy:       136.2682894
  entropy:             1.4758664
  heat_capacity:       5.0917384
  energy:            136.4572003

- temperature:       130.0000000
  free_energy:       136.2652571
  entropy:             1.5569256
  heat_capacity:       5.3668804
  energy:            136.4676575

- temperature:       132.0000000
  free_energy:       136.2620597
  entropy:             1.6410155
  heat_capacity:       5.6508878
  energy:            136.4786737

- temperature:       134.0000000
  free_energy:       136.2586910
  entropy:             1.7281784
  heat_capacity:       5.9437632
  energy:            136.4902669

- temperature:       136.0000000
  free_energy:       136.2551449
  entropy:             1.8184544
  heat_capacity:       6.2455017
  energy:            136.5024547

- temperature:       138.0000000
  free_energy:       136.2514151
  entropy:             1.9118821
  heat_capacity:       6.5560916
  energy:            136.5152548

- temperature:       140.0000000
  free_energy:       136.2474953
  entropy:             2.0084979
  heat_capacity:       6.8755142
  energy:            136.5286850

- temperature:       142.0000000
  free_energy:       136.2433790
  entropy:             2.1083366
  heat_capacity:       7.2037446
  energy:            136.5427628

- temperature:       144.0000000
  free_energy:       136.2390597
  entropy:             2.2114310
  heat_capacity:       7.5407516
  energy:            136.5575058

- temperature:       146.0000000
  free_energy:       136.2345310
  entropy:             2.3178120
  heat_capacity:       7.8864981
  energy:            136.5729316

- temperature:       148.0000000
  free_energy:       136.2297863
  entropy:             2.4275088
  heat_capacity:       8.2409415
  energy:            136.5890576

- temperature:       150.0000000
  free_energy:       136.2248188
  entropy:             2.5405490
  heat_capacity:       8.6040337
  energy:            136.6059011

- temperature:       152.0000000
  free_energy:       136.2196218
  entropy:             2.6569580
  heat_capacity:       8.9757214
  energy:            136.6234794

- temperature:       154.0000000
  free_energy:       136.2141887
  entropy:             2.7767598
  heat_capacity:       9.3559464
  energy:            136.6418097

- temperature:       156.0000000
  free_energy:       136.2085125
  entropy:             2.8999767
  heat_capacity:       9.7446456
  energy:            136.6609089

- temperature:       158.0000000
  free_energy:       136.2025865
  entropy:             3.0266291
  heat_capacity:      10.1417514
  energy:            136.6807939

- temperature:       160.0000000
  free_energy:       136.1964037
  entropy:             3.1567359
  heat_capacity:      10.5471917
  energy:            136.7014814

- temperature:       162.0000000
  free_energy:       136.1899572
  entropy:             3.2903144
  heat_capacity:      10.9608904
  energy:            136.7229882

- temperature:       164.0000000
  free_energy:       136.1832401
  entropy:             3.4273801
  heat_capacity:      11.3827670
  energy:            136.7453305

- temperature:       166.0000000
  free_energy:       136.1762454
  entropy:             3.5679473
  heat_capacity:      11.8127371
  energy:            136.7685246

- temperature:       168.0000000
  free_energy:       136.1689660
  entropy:             3.7120283
  heat_capacity:      12.2507127
  energy:            136.7925867

- temperature:       170.0000000
  free_energy:       136.1613949
  entropy:             3.8596343
  heat_capacity:      12.6966020
  energy:            136.8175327

- temperature:       172.0000000
  free_energy:       136.1535251
  entropy:             4.0107748
  heat_capacity:      13.1503098
  energy:            136.8433784

- temperature:       174.0000000
  free_energy:       136.1453494
  entropy:             4.1654580
  heat_capacity:      13.6117374
  energy:            136.8701391

- temperature:       176.0000000
  free_energy:       136.1368609
  entropy:             4.3236903
  heat_capacity:      14.0807828
  energy:            136.8978304

- temperature:       178.0000000
  free_energy:       136.1280523
  entropy:             4.4854773
  heat_capacity:      14.5573412
  energy:            136.9264673

- temperature:       180.0000000
  free_energy:       136.1189166
  entropy:             4.6508227
  heat_capacity:      15.0413044
  energy:            136.9560647

- temperature:       182.0000000
  free_energy:       136.1094467
  entropy:             4.8197291
  heat_capacity:      15.5325617
  energy:            136.9866374

- temperature:       184.0000000
  free_energy:       136.0996353
  entropy:             4.9921979
  heat_capacity:      16.0309994
  energy:            137.0181997

- temperature:       186.0000000
  free_energy:       136.0894755
  entropy:             5.1682289
  heat_capacity:      16.5365013
  energy:            137.0507661

- temperature:       188.0000000
  free_energy:       136.0789600
  entropy:             5.3478209
  heat_capacity:      17.0489488
  energy:            137.0843504

- temperature:       190.0000000
  free_energy:       136.0680818
  entropy:             5.5309714
  heat_capacity:      17.5682209
  energy:            137.1189664

- temperature:       192.0000000
  free_energy:       136.0568338
  entropy:             5.7176768
  heat_capacity:      18.0941941
  energy:            137.1546277

- temperature:       194.0000000
  free_energy:       136.0452088
  entropy:             5.9079320
  heat_capacity:      18.6267433
  energy:            137.1913476

- temperature:       196.0000000
  free_energy:       136.0331997
  entropy:             6.1017311
  heat_capacity:      19.1657410
  energy:            137.2291390

- temperature:       198.0000000
  free_energy:       136.0207995
  entropy:             6.2990670
  heat_capacity:      19.7110580
  energy:            137.2680147

- temperature:       200.0000000
  free_energy:       136.0080011
  entropy:             6.4999314
  heat_capacity:      20.2625634
  energy:            137.3079873

- temperature:       202.0000000
  free_energy:       135.9947974
  entropy:             6.7043150
  heat_capacity:      20.8201246
  energy:            137.3490690

- temperature:       204.0000000
  free_energy:       135.9811815
  entropy:             6.9122075
  heat_capacity:      21.3836076
  energy:            137.3912718

- temperature:       206.0000000
  free_energy:       135.9671462
  entropy:             7.1235975
  heat_capacity:      21.9528771
  energy:            137.4346073

- temperature:       208.0000000
  free_energy:       135.9526848
  entropy:             7.3384727
  heat_capacity:      22.5277965
  energy:            137.4790871

- temperature:       210.0000000
  free_energy:       135.9377900
  entropy:             7.5568198
  heat_capacity:      23.1082281
  energy:            137.5247222

- temperature:       212.0000000
  free_energy:       135.9224552
  entropy:             7.7786245
  heat_capacity:      23.6940332
  energy:            137.5715236

- temperature:       214.0000000
  free_energy:       135.9066732
  entropy:             8.0038718
  heat_capacity:      24.2850722
  energy:            137.6195018

- temperature:       216.0000000
  free_energy:       135.8904374
  entropy:             8.2325456
  heat_capacity:      24.8812050
  energy:            137.6686672

- temperature:       218.0000000
  free_energy:       135.8737408
  entropy:             8.4646291
  heat_capacity:      25.4822907
  energy:            137.7190299

- temperature:       220.0000000
  free_energy:       135.8565766
  entropy:             8.7001045
  heat_capacity:      26.0881878
  energy:            137.7705996

- temperature:       222.0000000
  free_energy:       135.8389381
  entropy:             8.9389535
  heat_capacity:      26.6987547
  energy:            137.8233858

- temperature:       224.0000000
  free_energy:       135.8208186
  entropy:             9.1811566
  heat_capacity:      27.3138494
  energy:            137.8773977

- temperature:       226.0000000
  free_energy:       135.8022113
  entropy:             9.4266940
  heat_capacity:      27.9333296
  energy:            137.9326441

- temperature:       228.0000000
  free_energy:       135.7831096
  entropy:             9.6755448
  heat_capacity:      28.5570533
  energy:            137.9891338

- temperature:       230.0000000
  free_energy:       135.7635069
  entropy:             9.9276877
  heat_capacity:      29.1848783
  energy:            138.0468751

- temperature:       232.0000000
  free_energy:       135.7433967
  entropy:            10.1831004
  heat_capacity:      29.8166626
  energy:            138.1058760

- temperature:       234.0000000
  free_energy:       135.7227723
  entropy:            10.4417604
  heat_capacity:      30.4522646
  energy:            138.1661443

- temperature:       236.0000000
  free_energy:       135.7016275
  entropy:            10.7036441
  heat_capacity:      31.0915431
  energy:            138.2276875

- temperature:       238.0000000
  free_energy:       135.6799556
  entropy:            10.9687276
  heat_capacity:      31.7343571
  energy:            138.2905128

- temperature:       240.0000000
  free_energy:       135.6577504
  entropy:            11.2369863
  heat_capacity:      32.3805665
  energy:            138.3546272

- temperature:       242.0000000
  free_energy:       135.6350056
  entropy:            11.5083952
  heat_capacity:      33.0300317
  energy:            138.4200372

- temperature:       244.0000000
  free_energy:       135.6117148
  entropy:            11.7829286
  heat_capacity:      33.6826139
  energy:            138.4867494

- temperature:       246.0000000
  free_energy:       135.5878718
  entropy:            12.0605604
  heat_capacity:      34.3381751
  energy:            138.5547697

- temperature:       248.0000000
  free_energy:       135.5634705
  entropy:            12.3412640
  heat_capacity:      34.9965783
  energy:            138.6241040

- temperature:       250.0000000
  free_energy:       135.5385047
  entropy:            12.6250123
  heat_capacity:      35.6576874
  energy:            138.6947578

- temperature:       252.0000000
  free_energy:       135.5129684
  entropy:            12.9117778
  heat_capacity:      36.3213674
  energy:            138.7667364

- temperature:       254.0000000
  free_energy:       135.4868556
  entropy:            13.2015326
  heat_capacity:      36.9874845
  energy:            138.8400449

- temperature:       256.0000000
  free_energy:       135.4601603
  entropy:            13.4942483
  heat_capacity:      37.6559061
  energy:            138.9146879

- temperature:       258.0000000
  free_energy:       135.4328767
  entropy:            13.7898965
  heat_capacity:      38.3265009
  energy:            138.9906699

- temperature:       260.0000000
  free_energy:       135.4049988
  entropy:            14.0884479
  heat_capacity:      38.9991388
  energy:            139.0679953

- temperature:       262.0000000
  free_energy:       135.3765210
  entropy:            14.3898734
  heat_capacity:      39.6736913
  energy:            139.1466678

- temperature:       264.0000000
  free_energy:       135.3474374
  entropy:            14.6941432
  heat_capacity:      40.3500312
  energy:            139.2266912

- temperature:       266.0000000
  free_energy:       135.3177425
  entropy:            15.0012275
  heat_capacity:      41.0280330
  energy:            139.3080690

- temperature:       268.0000000
  free_energy:       135.2874306
  entropy:            15.3110960
  heat_capacity:      41.7075726
  energy:            139.3908044

- temperature:       270.0000000
  free_energy:       135.2564963
  entropy:            15.6237184
  heat_capacity:      42.3885274
  energy:            139.4749002

- temperature:       272.0000000
  free_energy:       135.2249339
  entropy:            15.9390640
  heat_capacity:      43.0707768
  energy:            139.5603593

- temperature:       274.0000000
  free_energy:       135.1927382
  entropy:            16.2571019
  heat_capacity:      43.7542015
  energy:            139.6471841

- temperature:       276.0000000
  free_energy:       135.1599038
  entropy:            16.5778010
  heat_capacity:      44.4386842
  energy:            139.7353769

- temperature:       278.0000000
  free_energy:       135.1264253
  entropy:            16.9011303
  heat_capacity:      45.1241092
  energy:            139.8249395

- temperature:       280.0000000
  free_energy:       135.0922975
  entropy:            17.2270583
  heat_capacity:      45.8103628
  energy:            139.9158738

- temperature:       282.0000000
  free_energy:       135.0575153
  entropy:            17.5555536
  heat_capacity:      46.4973327
  energy:            140.0081814

- temperature:       284.0000000
  free_energy:       135.0220736
  entropy:            17.8865844
  heat_capacity:      47.1849089
  energy:            140.1018636

- temperature:       286.0000000
  free_energy:       134.9859673
  entropy:            18.2201192
  heat_capacity:      47.8729829
  energy:            140.1969214

- temperature:       288.0000000
  free_energy:       134.9491915
  entropy:            18.5561260
  heat_capacity:      48.5614483
  energy:            140.2933558

- temperature:       290.0000000
  free_energy:       134.9117412
  entropy:            18.8945731
  heat_capacity:      49.2502006
  energy:            140.3911674

- temperature:       292.0000000
  free_energy:       134.8736116
  entropy:            19.2354285
  heat_capacity:      49.9391371
  energy:            140.4903567

- temperature:       294.0000000
  free_energy:       134.8347979
  entropy:            19.5786602
  heat_capacity:      50.6281570
  energy:            140.5909240

- temperature:       296.0000000
  free_energy:       134.7952954
  entropy:            19.9242363
  heat_capacity:      51.3171616
  energy:            140.6928693

- temperature:       298.0000000
  free_energy:       134.7550994
  entropy:            20.2721247
  heat_capacity:      52.0060539
  energy:            140.7961926

- temperature:       300.0000000
  free_energy:       134.7142054
  entropy:            20.6222934
  heat_capacity:      52.6947392
  energy:            140.9008934

- temperature:       302.0000000
  free_energy:       134.6726087
  entropy:            20.9747105
  heat_capacity:      53.3831243
  energy:            141.0069713

- temperature:       304.0000000
  free_energy:       134.6303050
  entropy:            21.3293440
  heat_capacity:      54.0711183
  energy:            141.1144256

- temperature:       306.0000000
  free_energy:       134.5872899
  entropy:            21.6861620
  heat_capacity:      54.7586322
  energy:            141.2232555

- temperature:       308.0000000
  free_energy:       134.5435590
  entropy:            22.0451325
  heat_capacity:      55.4455788
  energy:            141.3334598

- temperature:       310.0000000
  free_energy:       134.4991080
  entropy:            22.4062238
  heat_capacity:      56.1318729
  energy:            141.4450373

- temperature:       312.0000000
  free_energy:       134.4539327
  entropy:            22.7694042
  heat_capacity:      56.8174314
  energy:            141.5579868

- temperature:       314.0000000
  free_energy:       134.4080290
  entropy:            23.1346419
  heat_capacity:      57.5021729
  energy:            141.6723065

- temperature:       316.0000000
  free_energy:       134.3613928
  entropy:            23.5019054
  heat_capacity:      58.1860180
  energy:            141.7879949

- temperature:       318.0000000
  free_energy:       134.3140200
  entropy:            23.8711633
  heat_capacity:      58.8688893
  energy:            141.9050500

- temperature:       320.0000000
  free_energy:       134.2659068
  entropy:            24.2423842
  heat_capacity:      59.5507112
  energy:            142.0234697

- temperature:       322.0000000
  free_energy:       134.2170492
  entropy:            24.6155368
  heat_capacity:      60.2314101
  energy:            142.1432520

- temperature:       324.0000000
  free_energy:       134.1674434
  entropy:            24.9905901
  heat_capacity:      60.9109141
  energy:            142.2643946

- temperature:       326.0000000
  free_energy:       134.1170856
  entropy:            25.3675131
  heat_capacity:      61.5891534
  energy:            142.3868949

- temperature:       328.0000000
  free_energy:       134.0659721
  entropy:            25.7462750
  heat_capacity:      62.2660597
  energy:            142.5107503

- temperature:       330.0000000
  free_energy:       134.0140993
  entropy:            26.1268451
  heat_capacity:      62.9415669
  energy:            142.6359582

- temperature:       332.0000000
  free_energy:       133.9614635
  entropy:            26.5091929
  heat_capacity:      63.6156105
  energy:            142.7625156

- temperature:       334.0000000
  free_energy:       133.9080613
  entropy:            26.8932882
  heat_capacity:      64.2881278
  energy:            142.8904196

- temperature:       336.0000000
  free_energy:       133.8538892
  entropy:            27.2791006
  heat_capacity:      64.9590580
  energy:            143.0196670

- temperature:       338.0000000
  free_energy:       133.7989438
  entropy:            27.6666003
  heat_capacity:      65.6283419
  energy:            143.1502547

- temperature:       340.0000000
  free_energy:       133.7432217
  entropy:            28.0557575
  heat_capacity:      66.2959220
  energy:            143.2821793

- temperature:       342.0000000
  free_energy:       133.6867197
  entropy:            28.4465425
  heat_capacity:      66.9617428
  energy:            143.4154372

- temperature:       344.0000000
  free_energy:       133.6294345
  entropy:            28.8389260
  heat_capacity:      67.6257501
  energy:            143.5500250

- temperature:       346.0000000
  free_energy:       133.5713630
  entropy:            29.2328787
  heat_capacity:      68.2878916
  energy:            143.6859390

- temperature:       348.0000000
  free_energy:       133.5125020
  entropy:            29.6283718
  heat_capacity:      68.9481166
  energy:            143.8231753

- temperature:       350.0000000
  free_energy:       133.4528485
  entropy:            30.0253763
  heat_capacity:      69.6063761
  energy:            143.9617302

- temperature:       352.0000000
  free_energy:       133.3923995
  entropy:            30.4238637
  heat_capacity:      70.2626225
  energy:            144.1015995

- temperature:       354.0000000
  free_energy:       133.3311520
  entropy:            30.8238058
  heat_capacity:      70.9168098
  energy:            144.2427793

- temperature:       356.0000000
  free_energy:       133.2691033
  entropy:            31.2251743